 Entering Gaussian System, Link 0=g16
 Initial command:
 /nopt/nrel/apps/gaussian/g16B/g16/l1.exe "/dev/shm/Gau-94070.inp" -scrdir="/dev/shm/"
 Default is to use a total of  36 processors:
                               36 via shared-memory
                                1 via Linda
 Entering Link 1 = /nopt/nrel/apps/gaussian/g16B/g16/l1.exe PID=     94071.
  
 Copyright (c) 1988-2017, Gaussian, Inc.  All Rights Reserved.
  
 This is part of the Gaussian(R) 16 program.  It is based on
 the Gaussian(R) 09 system (copyright 2009, Gaussian, Inc.),
 the Gaussian(R) 03 system (copyright 2003, Gaussian, Inc.),
 ...
 
 ******************************************
 Gaussian 16:  ES64L-G16RevB.01 20-Dec-2017
                16-Oct-2019 
 ******************************************
 %RWF=/dev/shm/,5GB,/tmp/scratch/1533660/,-1
 %NoSave
 %OldChk=dioxolan4ol_ts4.chk
 %Chk=/dev/shm/dioxolan4ol_ts4_ts.chk
 Copying data from "dioxolan4ol_ts4.chk" to current chk file "/dev/shm/dioxolan4ol_ts4_ts.chk"
 IOpt=  2 FromEx=T IUOpen= 4 IOptOp= 5 NList=   0 IFRang= 0 IUIn= 4 IUOut= 2.
 Default route: CacheSize=180224 MaxDisk=256GB
 ----------------------------------------------------------------------
 # m062x/Def2TZVP nosymm scf=(xqc,maxconventionalcycles=400) opt=(TS,Re
 adFC,noeigentest,maxcycles=200,NoFreeze) freq=NoRaman CPHF=Grid=Fine g
 uess=read geom=allcheck
 ----------------------------------------------------------------------
 1/4=180224,5=1,6=200,10=3,11=1,18=20,26=3,29=2007,38=1/1,3;
 2/4=180224,9=110,12=2,15=1,40=1/2;
 3/4=180224,5=44,7=101,11=2,14=-4,25=1,30=1,71=1,74=-55,116=-2/1,2,3;
 4/4=180224,5=1/1;
 5/4=180224,5=2,8=3,13=1,38=6,85=400/2,8;
 6/4=180224,7=2,8=2,9=2,10=2,28=1/1;
 7/4=180224,30=1/1,2,3,16;
 1/4=180224,5=1,6=200,11=1,18=20,26=3/3(2);
 2/4=180224,9=110,15=1/2;
 99/4=180224/99;
 2/4=180224,9=110,15=1/2;
 3/4=180224,5=44,7=101,11=2,14=-2,25=1,30=1,71=1,74=-55/1,2,3;
 4/4=180224,5=5,16=3,69=1/1;
 5/4=180224,5=2,8=3,13=1,38=5,85=400/2,8;
 7/4=180224,30=1/1,2,3,16;
 1/4=180224,5=1,6=200,11=1,18=20,26=3/3(-5);
 2/4=180224,9=110,15=1/2;
 6/4=180224,7=2,8=2,9=2,10=2,19=2,28=1/1;
 99/4=180224,9=1/99;
 Structure from the checkpoint file:  "/dev/shm/dioxolan4ol_ts4_ts.chk"
 ----------------------------------------------------
 based on scan of lme2acetoxprpnt_ts8_ts_ircr_opt.log
 ----------------------------------------------------
 Charge =  0 Multiplicity = 1
 Redundant internal coordinates found in file.  (old form).
 C,0,-0.5607072736,0.2961119072,0.417561772
 O,0,-1.6329907553,-0.521515148,0.5412465654
 O,0,-0.457604078,1.1770323769,1.4142991291
 C,0,-0.6244993287,0.6391133285,2.7281338501
 H,0,-1.6555137798,0.3269435389,2.8837835279
 H,0,0.0482300379,-0.2064691133,2.8728747773
 H,0,-0.3671113687,1.4429864374,3.4108481966
 C,0,-0.0893482612,0.8140326489,-0.9254196253
 H,0,0.9074035777,0.6119615167,-0.3517999409
 O,0,-0.057318199,-0.4469737749,-1.6499755795
 C,0,0.6361717365,-1.2469327874,-0.7751154729
 O,0,0.7740875503,-0.5258906456,0.3737897614
 C,0,1.089222689,-2.4654834973,-1.0157003712
 H,0,-1.7661189697,-0.9860853683,-0.296988541
 H,0,0.9864421131,-2.8877677987,-2.0023848066
 H,0,1.573683894,-3.0181865014,-0.2283602506
 C,0,-0.7484151702,1.915709806,-1.6751167085
 H,0,-1.767547221,1.6466303901,-1.9625647417
 H,0,-0.7865378464,2.8038619474,-1.0453472553
 H,0,-0.185185347,2.1518367368,-2.5765112862
 Recover connectivity data from disk.
 Any frozen variables have been unfrozen.

 GradGradGradGradGradGradGradGradGradGradGradGradGradGradGradGradGradGrad
 Berny optimization.
 Initialization pass.
 Force constant matrix read from checkpoint file:
 "/dev/shm/dioxolan4ol_ts4_ts.chk"
                           ----------------------------
                           !    Initial Parameters    !
                           ! (Angstroms and Degrees)  !
 --------------------------                            --------------------------
 ! Name  Definition              Value          Derivative Info.                !
 --------------------------------------------------------------------------------
 ! R1    R(1,2)                  1.3541         D2E/DX2 =    0.4187             !
 ! R2    R(1,3)                  1.3342         D2E/DX2 =    0.4745             !
 ! R3    R(1,8)                  1.5146         D2E/DX2 =    0.2002             !
 ! R4    R(1,12)                 1.5682         D2E/DX2 =    0.1044             !
 ! R5    R(2,14)                 0.9676         D2E/DX2 =    0.5208             !
 ! R6    R(3,4)                  1.4295         D2E/DX2 =    0.349              !
 ! R7    R(4,5)                  1.0884         D2E/DX2 =    0.349              !
 ! R8    R(4,6)                  1.0902         D2E/DX2 =    0.3455             !
 ! R9    R(4,7)                  1.0856         D2E/DX2 =    0.3562             !
 ! R10   R(8,9)                  1.1676         D2E/DX2 =    0.204              !
 ! R11   R(8,10)                 1.4547         D2E/DX2 =    0.2424             !
 ! R12   R(8,17)                 1.4866         D2E/DX2 =    0.3263             !
 ! R13   R(9,12)                 1.3561         D2E/DX2 =    0.0684             !
 ! R14   R(10,11)                1.3734         D2E/DX2 =    0.2774             !
 ! R15   R(11,12)                1.3634         D2E/DX2 =    0.2968             !
 ! R16   R(11,13)                1.3221         D2E/DX2 =    0.6399             !
 ! R17   R(13,15)                1.0782         D2E/DX2 =    0.3769             !
 ! R18   R(13,16)                1.0771         D2E/DX2 =    0.3793             !
 ! R19   R(17,18)                1.0925         D2E/DX2 =    0.339              !
 ! R20   R(17,19)                1.0894         D2E/DX2 =    0.3488             !
 ! R21   R(17,20)                1.0888         D2E/DX2 =    0.3489             !
 ! A1    A(2,1,3)              113.0557         D2E/DX2 =    0.0888             !
 ! A2    A(2,1,8)              122.2697         D2E/DX2 =    0.0643             !
 ! A3    A(2,1,12)             111.104          D2E/DX2 =    0.035              !
 ! A4    A(3,1,8)              114.3673         D2E/DX2 =    0.0671             !
 ! A5    A(3,1,12)             107.5273         D2E/DX2 =    0.0426             !
 ! A6    A(8,1,12)              83.6617         D2E/DX2 =    0.0471             !
 ! A7    A(1,2,14)             108.6472         D2E/DX2 =    0.1842             !
 ! A8    A(1,3,4)              115.4134         D2E/DX2 =    0.296              !
 ! A9    A(3,4,5)              110.4849         D2E/DX2 =    0.1445             !
 ! A10   A(3,4,6)              109.9899         D2E/DX2 =    0.1455             !
 ! A11   A(3,4,7)              105.764          D2E/DX2 =    0.145              !
 ! A12   A(5,4,6)              110.0648         D2E/DX2 =    0.0711             !
 ! A13   A(5,4,7)              110.3056         D2E/DX2 =    0.0702             !
 ! A14   A(6,4,7)              110.1536         D2E/DX2 =    0.0698             !
 ! A15   A(1,8,9)               76.7551         D2E/DX2 =    0.0599             !
 ! A16   A(1,8,10)              98.7471         D2E/DX2 =    0.0504             !
 ! A17   A(1,8,17)             124.2346         D2E/DX2 =    0.0568             !
 ! A18   A(9,8,10)              94.3516         D2E/DX2 =    0.0379             !
 ! A19   A(9,8,17)             138.9753         D2E/DX2 =    0.022              !
 ! A20   A(10,8,17)            113.6386         D2E/DX2 =    0.0441             !
 ! A21   A(8,10,11)            101.4639         D2E/DX2 =    0.0878             !
 ! A22   A(10,11,12)           106.2495         D2E/DX2 =    0.1041             !
 ! A23   A(10,11,13)           126.4378         D2E/DX2 =    0.1173             !
 ! A24   A(12,11,13)           127.3079         D2E/DX2 =    0.1153             !
 ! A25   A(1,12,11)            102.3936         D2E/DX2 =    0.0843             !
 ! A26   A(11,13,15)           119.66           D2E/DX2 =    0.0691             !
 ! A27   A(11,13,16)           119.6082         D2E/DX2 =    0.0693             !
 ! A28   A(15,13,16)           120.7217         D2E/DX2 =    0.0649             !
 ! A29   A(8,17,18)            111.3278         D2E/DX2 =    0.1048             !
 ! A30   A(8,17,19)            109.1555         D2E/DX2 =    0.1002             !
 ! A31   A(8,17,20)            110.4182         D2E/DX2 =    0.1011             !
 ! A32   A(18,17,19)           108.6768         D2E/DX2 =    0.0494             !
 ! A33   A(18,17,20)           108.5499         D2E/DX2 =    0.0514             !
 ! A34   A(19,17,20)           108.6551         D2E/DX2 =    0.0481             !
 ! D1    D(3,1,2,14)           167.0443         D2E/DX2 =    0.0166             !
 ! D2    D(8,1,2,14)            24.0037         D2E/DX2 =    0.0142             !
 ! D3    D(12,1,2,14)          -71.9514         D2E/DX2 =    0.0236             !
 ! D4    D(2,1,3,4)             46.5373         D2E/DX2 =    0.0155             !
 ! D5    D(8,1,3,4)           -167.3871         D2E/DX2 =    0.0151             !
 ! D6    D(12,1,3,4)           -76.4731         D2E/DX2 =    0.0209             !
 ! D7    D(2,1,8,9)           -142.0411         D2E/DX2 =    0.0222             !
 ! D8    D(2,1,8,10)           -49.5966         D2E/DX2 =    0.0257             !
 ! D9    D(2,1,8,17)            76.9448         D2E/DX2 =    0.0144             !
 ! D10   D(3,1,8,9)             75.3552         D2E/DX2 =    0.0236             !
 ! D11   D(3,1,8,10)           167.7997         D2E/DX2 =    0.0244             !
 ! D12   D(3,1,8,17)           -65.6588         D2E/DX2 =    0.0135             !
 ! D13   D(12,1,8,9)           -31.0443         D2E/DX2 =    0.0399             !
 ! D14   D(12,1,8,10)           61.4002         D2E/DX2 =    0.0311             !
 ! D15   D(12,1,8,17)         -172.0584         D2E/DX2 =    0.0249             !
 ! D16   D(2,1,12,11)           63.9791         D2E/DX2 =    0.0468             !
 ! D17   D(3,1,12,11)         -171.8191         D2E/DX2 =    0.0467             !
 ! D18   D(8,1,12,11)          -58.2252         D2E/DX2 =    0.0327             !
 ! D19   D(1,3,4,5)            -68.8043         D2E/DX2 =    0.0261             !
 ! D20   D(1,3,4,6)             52.9058         D2E/DX2 =    0.0252             !
 ! D21   D(1,3,4,7)            171.8294         D2E/DX2 =    0.0237             !
 ! D22   D(1,8,10,11)          -48.8756         D2E/DX2 =    0.0189             !
 ! D23   D(9,8,10,11)           28.37           D2E/DX2 =    0.0288             !
 ! D24   D(17,8,10,11)         177.5984         D2E/DX2 =    0.0196             !
 ! D25   D(1,8,17,18)          -63.3157         D2E/DX2 =    0.0134             !
 ! D26   D(1,8,17,19)           56.6545         D2E/DX2 =    0.0131             !
 ! D27   D(1,8,17,20)          176.0365         D2E/DX2 =    0.0126             !
 ! D28   D(9,8,17,18)         -174.4111         D2E/DX2 =    0.0123             !
 ! D29   D(9,8,17,19)          -54.4409         D2E/DX2 =    0.0134             !
 ! D30   D(9,8,17,20)           64.9411         D2E/DX2 =    0.0135             !
 ! D31   D(10,8,17,18)          56.5939         D2E/DX2 =    0.014              !
 ! D32   D(10,8,17,19)         176.564          D2E/DX2 =    0.0127             !
 ! D33   D(10,8,17,20)         -64.054          D2E/DX2 =    0.0132             !
 ! D34   D(8,10,11,12)           8.0899         D2E/DX2 =    0.0149             !
 ! D35   D(8,10,11,13)        -171.1561         D2E/DX2 =    0.011              !
 ! D36   D(10,11,12,1)          34.0001         D2E/DX2 =    0.0172             !
 ! D37   D(13,11,12,1)        -146.7625         D2E/DX2 =    0.0123             !
 ! D38   D(10,11,13,15)          4.5689         D2E/DX2 =    0.0182             !
 ! D39   D(10,11,13,16)       -176.5814         D2E/DX2 =    0.0223             !
 ! D40   D(12,11,13,15)       -174.521          D2E/DX2 =    0.0221             !
 ! D41   D(12,11,13,16)          4.3288         D2E/DX2 =    0.0176             !
 --------------------------------------------------------------------------------
 Trust Radius=3.00D-01 FncErr=1.00D-07 GrdErr=1.00D-06 EigMax=2.50D+02 EigMin=1.00D-04
 Number of steps in this run=    120 maximum allowed number of steps=    120.
 Search for a saddle point of order  1.
 GradGradGradGradGradGradGradGradGradGradGradGradGradGradGradGradGradGrad

                          Input orientation:                          
 ---------------------------------------------------------------------
 Center     Atomic      Atomic             Coordinates (Angstroms)
 Number     Number       Type             X           Y           Z
 ---------------------------------------------------------------------
      1          6           0       -0.560707    0.296112    0.417562
      2          8           0       -1.632991   -0.521515    0.541247
      3          8           0       -0.457604    1.177032    1.414299
      4          6           0       -0.624499    0.639113    2.728134
      5          1           0       -1.655514    0.326944    2.883784
      6          1           0        0.048230   -0.206469    2.872875
      7          1           0       -0.367111    1.442986    3.410848
      8          6           0       -0.089348    0.814033   -0.925420
      9          1           0        0.907404    0.611962   -0.351800
     10          8           0       -0.057318   -0.446974   -1.649976
     11          6           0        0.636172   -1.246933   -0.775115
     12          8           0        0.774088   -0.525891    0.373790
     13          6           0        1.089223   -2.465483   -1.015700
     14          1           0       -1.766119   -0.986085   -0.296989
     15          1           0        0.986442   -2.887768   -2.002385
     16          1           0        1.573684   -3.018187   -0.228360
     17          6           0       -0.748415    1.915710   -1.675117
     18          1           0       -1.767547    1.646630   -1.962565
     19          1           0       -0.786538    2.803862   -1.045347
     20          1           0       -0.185185    2.151837   -2.576511
 ---------------------------------------------------------------------
                    Distance matrix (angstroms):
                    1          2          3          4          5
     1  C    0.000000
     2  O    1.354106   0.000000
     3  O    1.334218   2.242503   0.000000
     4  C    2.336763   2.673311   1.429466   0.000000
     5  H    2.698481   2.491560   2.077745   1.088424   0.000000
     6  H    2.579138   2.891755   2.073014   1.090195   1.785327
     7  H    3.211318   3.700855   2.016216   1.085615   1.784189
     8  C    1.514602   2.513490   2.396177   3.696679   4.147307
     9  H    1.687314   2.921627   2.302533   3.439979   4.137485
    10  O    2.253949   2.699955   3.491046   4.546331   4.869101
    11  C    2.288228   2.721790   3.444632   4.173634   4.595264
    12  O    1.568210   2.412900   2.345138   2.975939   3.595881
    13  C    3.521778   3.689653   4.643866   5.156710   5.526048
    14  H    1.899376   0.967567   3.052834   3.618830   3.442904
    15  H    4.287995   4.350936   5.502872   6.116521   6.417861
    16  H    3.994673   4.136233   4.942097   5.191215   5.594913
    17  C    2.652854   3.410983   3.189781   4.586248   4.912288
    18  H    2.990880   3.314820   3.652353   4.931967   5.024064
    19  H    2.912029   3.780462   2.967260   4.353338   4.725284
    20  H    3.542486   4.354695   4.117162   5.533587   5.941963
                    6          7          8          9         10
     6  H    0.000000
     7  H    1.783992   0.000000
     8  C    3.935402   4.390439   0.000000
     9  H    3.436064   4.058634   1.167641   0.000000
    10  O    4.530470   5.411087   1.454697   1.933208   0.000000
    11  C    3.838759   5.075878   2.190103   1.925682   1.373406
    12  O    2.621893   3.795067   2.056419   1.356083   2.189313
    13  C    4.616040   6.082054   3.486030   3.153489   2.406500
    14  H    3.734662   4.648189   2.539077   3.115202   2.245265
    15  H    5.642496   7.063330   4.002562   3.870243   2.677892
    16  H    4.455381   6.075573   4.235265   3.692850   3.360401
    17  C    5.081586   5.122099   1.486643   2.488506   2.461813
    18  H    5.487486   5.556641   2.141318   3.289447   2.721355
    19  H    5.011127   4.678202   2.111842   2.855674   3.386040
    20  H    5.942381   6.031918   2.127207   2.917929   2.761998
                   11         12         13         14         15
    11  C    0.000000
    12  O    1.363417   0.000000
    13  C    1.322120   2.406660   0.000000
    14  H    2.463260   2.667278   3.295169   0.000000
    15  H    2.078754   3.357047   1.078162   3.755178   0.000000
    16  H    2.077308   2.685792   1.077074   3.910042   1.873239
    17  C    3.567827   3.532343   4.796519   3.369774   5.117639
    18  H    3.944694   4.079008   5.095799   3.115339   5.305357
    19  H    4.301868   3.941669   5.593332   3.985388   6.037717
    20  H    3.933356   4.098134   5.037846   4.188333   5.205761
                   16         17         18         19         20
    16  H    0.000000
    17  C    5.641682   0.000000
    18  H    5.994315   1.092548   0.000000
    19  H    6.335169   1.089439   1.772809   0.000000
    20  H    5.944457   1.088805   1.770885   1.769527   0.000000
 Symmetry turned off by external request.
 Stoichiometry    C6H10O4
 Framework group  C1[X(C6H10O4)]
 Deg. of freedom    54
 Full point group                 C1      NOp   1
 Rotational constants (GHZ):           1.9183282           1.2859185           0.9284576
 Standard basis: def2TZVP (5D, 7F)
   370 basis functions,   590 primitive gaussians,   420 cartesian basis functions
    39 alpha electrons       39 beta electrons
       nuclear repulsion energy       607.1764057163 Hartrees.
 NAtoms=   20 NActive=   20 NUniq=   20 SFac= 1.00D+00 NAtFMM=   60 NAOKFM=F Big=F
 Integral buffers will be    131072 words long.
 Raffenetti 2 integral format.
 Two-electron integral symmetry is turned off.
 One-electron integrals computed using PRISM.
   1 Symmetry operations used in ECPInt.
 ECPInt:  NShTT=   11325 NPrTT=   34180 LenC2=   11001 LenP2D=   25932.
 LDataN:  DoStor=T MaxTD1= 6 Len=  172
 NBasis=   370 RedAO= T EigKep=  8.90D-05  NBF=   370
 Initial guess from the checkpoint file:  "/dev/shm/dioxolan4ol_ts4_ts.chk"
 B after Tr=     0.000000    0.000000    0.000000
         Rot=    1.000000    0.000000    0.000000    0.000000 Ang=   0.00 deg.
 Requested convergence on RMS density matrix=1.00D-08 within 400 cycles.
 Requested convergence on MAX density matrix=1.00D-06.
 Requested convergence on             energy=1.00D-06.
 No special actions if energy rises.
 SCF Done:  E(RM062X) =  -535.419909338     A.U. after    1 cycles
            NFock=  1  Conv=0.22D-08     -V/T= 2.0040
 QCSCF skips out because SCF is already converged.

 **********************************************************************

            Population analysis using the SCF Density.

 **********************************************************************

 Alpha  occ. eigenvalues --  -19.67247 -19.67133 -19.66607 -19.66224 -10.71707
 Alpha  occ. eigenvalues --  -10.64955 -10.59425 -10.58587 -10.53829 -10.51769
 Alpha  occ. eigenvalues --   -1.29464  -1.23051  -1.17746  -1.13734  -0.91527
 Alpha  occ. eigenvalues --   -0.83645  -0.83164  -0.75323  -0.72314  -0.66993
 Alpha  occ. eigenvalues --   -0.66375  -0.63184  -0.60734  -0.56469  -0.54850
 Alpha  occ. eigenvalues --   -0.52861  -0.51473  -0.50343  -0.49382  -0.48546
 Alpha  occ. eigenvalues --   -0.46382  -0.45368  -0.44585  -0.44302  -0.42653
 Alpha  occ. eigenvalues --   -0.39429  -0.37813  -0.35448  -0.26969
 Alpha virt. eigenvalues --    0.05530   0.06907   0.08884   0.10032   0.11442
 Alpha virt. eigenvalues --    0.11846   0.13146   0.13500   0.14008   0.14852
 Alpha virt. eigenvalues --    0.15082   0.16122   0.17269   0.18034   0.18542
 Alpha virt. eigenvalues --    0.20744   0.21338   0.21684   0.23250   0.23475
 Alpha virt. eigenvalues --    0.24137   0.27025   0.27837   0.28563   0.29940
 Alpha virt. eigenvalues --    0.30789   0.33578   0.34014   0.35053   0.36090
 Alpha virt. eigenvalues --    0.36692   0.37780   0.38509   0.38781   0.39923
 Alpha virt. eigenvalues --    0.40399   0.42169   0.43446   0.44127   0.44906
 Alpha virt. eigenvalues --    0.45457   0.48194   0.48692   0.49043   0.49783
 Alpha virt. eigenvalues --    0.50698   0.51295   0.52139   0.53359   0.54292
 Alpha virt. eigenvalues --    0.55163   0.56946   0.58316   0.59202   0.60120
 Alpha virt. eigenvalues --    0.60543   0.63353   0.64329   0.66428   0.66698
 Alpha virt. eigenvalues --    0.68167   0.69000   0.70174   0.73644   0.74880
 Alpha virt. eigenvalues --    0.77223   0.79968   0.81313   0.83935   0.85330
 Alpha virt. eigenvalues --    0.85957   0.87663   0.89101   0.89992   0.91203
 Alpha virt. eigenvalues --    0.92114   0.93596   0.95913   0.97589   0.99451
 Alpha virt. eigenvalues --    1.00139   1.01162   1.02894   1.04249   1.06315
 Alpha virt. eigenvalues --    1.07810   1.08905   1.10861   1.12830   1.14380
 Alpha virt. eigenvalues --    1.16722   1.20099   1.20879   1.25201   1.27408
 Alpha virt. eigenvalues --    1.28860   1.33216   1.33378   1.36967   1.41856
 Alpha virt. eigenvalues --    1.42431   1.45790   1.47520   1.50254   1.51098
 Alpha virt. eigenvalues --    1.53658   1.54925   1.57199   1.57984   1.59536
 Alpha virt. eigenvalues --    1.60285   1.61335   1.62624   1.63741   1.64175
 Alpha virt. eigenvalues --    1.65758   1.66647   1.68219   1.69983   1.72305
 Alpha virt. eigenvalues --    1.74407   1.76105   1.79022   1.81409   1.83252
 Alpha virt. eigenvalues --    1.83801   1.86270   1.86646   1.88867   1.89563
 Alpha virt. eigenvalues --    1.90650   1.93108   1.94953   1.95794   1.99823
 Alpha virt. eigenvalues --    2.01368   2.02363   2.03998   2.06341   2.07496
 Alpha virt. eigenvalues --    2.08621   2.10878   2.11149   2.12789   2.13172
 Alpha virt. eigenvalues --    2.17711   2.18946   2.20360   2.21056   2.23340
 Alpha virt. eigenvalues --    2.26473   2.28697   2.30065   2.30909   2.31805
 Alpha virt. eigenvalues --    2.32528   2.34289   2.35617   2.37616   2.38881
 Alpha virt. eigenvalues --    2.39877   2.43741   2.45518   2.47081   2.48765
 Alpha virt. eigenvalues --    2.50589   2.51752   2.53964   2.55320   2.56644
 Alpha virt. eigenvalues --    2.57950   2.59154   2.59789   2.62193   2.64166
 Alpha virt. eigenvalues --    2.66160   2.69146   2.72293   2.72814   2.74710
 Alpha virt. eigenvalues --    2.76906   2.77831   2.78950   2.82535   2.84632
 Alpha virt. eigenvalues --    2.86541   2.88462   2.89948   2.91862   2.93874
 Alpha virt. eigenvalues --    2.96878   2.97455   2.99793   3.02617   3.04479
 Alpha virt. eigenvalues --    3.06381   3.07158   3.09880   3.10712   3.11667
 Alpha virt. eigenvalues --    3.12834   3.15003   3.16124   3.16357   3.17817
 Alpha virt. eigenvalues --    3.19575   3.20207   3.20857   3.22767   3.23828
 Alpha virt. eigenvalues --    3.26240   3.27753   3.29818   3.30630   3.32460
 Alpha virt. eigenvalues --    3.33226   3.34828   3.36828   3.37086   3.39422
 Alpha virt. eigenvalues --    3.41344   3.42641   3.44019   3.44705   3.47552
 Alpha virt. eigenvalues --    3.49229   3.50284   3.51471   3.55777   3.56875
 Alpha virt. eigenvalues --    3.58958   3.61294   3.61863   3.64695   3.65881
 Alpha virt. eigenvalues --    3.68607   3.71182   3.76269   3.77272   3.80052
 Alpha virt. eigenvalues --    3.83939   3.85465   3.87572   3.88780   3.92991
 Alpha virt. eigenvalues --    3.97965   4.04021   4.06755   4.08272   4.13227
 Alpha virt. eigenvalues --    4.17844   4.17962   4.22083   4.24931   4.32582
 Alpha virt. eigenvalues --    4.34390   4.36599   4.40332   4.41511   4.45415
 Alpha virt. eigenvalues --    4.47186   4.53794   4.58485   4.59936   4.68112
 Alpha virt. eigenvalues --    4.73436   4.75759   4.80975   4.85439   4.89222
 Alpha virt. eigenvalues --    4.91230   5.01056   5.05344   5.24798   5.30152
 Alpha virt. eigenvalues --    5.33080   5.36747   5.41551   5.44247   5.45303
 Alpha virt. eigenvalues --    5.52914   5.56989   5.65296   5.66740   5.71199
 Alpha virt. eigenvalues --    5.72621   5.75558   5.77427   5.82162   5.85101
 Alpha virt. eigenvalues --    5.91565   5.98226   6.02197   6.03660   6.08908
 Alpha virt. eigenvalues --    6.16469   6.22136   6.24657   6.33883   6.44353
 Alpha virt. eigenvalues --    6.46740   6.54852   6.65232   6.66516   6.68257
 Alpha virt. eigenvalues --    6.72048   6.77145   6.78983   6.82001   6.85391
 Alpha virt. eigenvalues --    6.90998   6.93150   6.97810   6.99623   7.12438
 Alpha virt. eigenvalues --    7.20007   7.23034   7.28237   7.29664   7.37396
 Alpha virt. eigenvalues --    7.40913  22.43067  22.50085  22.51079  22.84373
 Alpha virt. eigenvalues --   23.16386  23.36942  44.14456  44.31064  44.32811
 Alpha virt. eigenvalues --   44.48974
          Condensed to atoms (all electrons):
               1          2          3          4          5          6
     1  C    5.076598   0.305676   0.414340  -0.044885  -0.019322  -0.003232
     2  O    0.305676   7.947632  -0.060999  -0.003372   0.008136  -0.001855
     3  O    0.414340  -0.060999   7.939401   0.214950  -0.030878  -0.040655
     4  C   -0.044885  -0.003372   0.214950   4.882631   0.423750   0.411708
     5  H   -0.019322   0.008136  -0.030878   0.423750   0.534052  -0.041815
     6  H   -0.003232  -0.001855  -0.040655   0.411708  -0.041815   0.523581
     7  H    0.003518   0.000425  -0.031211   0.398092  -0.025238  -0.022394
     8  C   -0.144839  -0.058825  -0.087768  -0.012687  -0.002789   0.007094
     9  H   -0.110705   0.010492   0.010202  -0.001517   0.000342  -0.000513
    10  O   -0.020708  -0.015374   0.003034  -0.000335   0.000022   0.000044
    11  C    0.057212   0.024683   0.006296   0.002087  -0.000274  -0.000659
    12  O    0.220105  -0.059895  -0.051743  -0.006177  -0.000825   0.009835
    13  C    0.010580   0.012310   0.000252   0.000514  -0.000019  -0.000085
    14  H   -0.040620   0.304054   0.004575  -0.000483  -0.000138  -0.000003
    15  H   -0.000510   0.000060   0.000008  -0.000007   0.000001   0.000000
    16  H    0.000470  -0.000123  -0.000033  -0.000041  -0.000001   0.000062
    17  C   -0.111314   0.003063  -0.002431  -0.000881  -0.000295   0.000118
    18  H   -0.038137   0.004151   0.000435  -0.000213   0.000018   0.000017
    19  H    0.000737   0.000385   0.004749  -0.000014   0.000007   0.000009
    20  H    0.016851  -0.000343  -0.000173   0.000045   0.000001   0.000002
               7          8          9         10         11         12
     1  C    0.003518  -0.144839  -0.110705  -0.020708   0.057212   0.220105
     2  O    0.000425  -0.058825   0.010492  -0.015374   0.024683  -0.059895
     3  O   -0.031211  -0.087768   0.010202   0.003034   0.006296  -0.051743
     4  C    0.398092  -0.012687  -0.001517  -0.000335   0.002087  -0.006177
     5  H   -0.025238  -0.002789   0.000342   0.000022  -0.000274  -0.000825
     6  H   -0.022394   0.007094  -0.000513   0.000044  -0.000659   0.009835
     7  H    0.527520   0.000522  -0.000193   0.000004   0.000152  -0.000140
     8  C    0.000522   6.221980   0.406946   0.143192  -0.239134  -0.340843
     9  H   -0.000193   0.406946   0.449743  -0.033628  -0.024248   0.054719
    10  O    0.000004   0.143192  -0.033628   8.049761   0.283098  -0.028399
    11  C    0.000152  -0.239134  -0.024248   0.283098   4.868352   0.287637
    12  O   -0.000140  -0.340843   0.054719  -0.028399   0.287637   8.274031
    13  C    0.000001  -0.008638   0.005581  -0.071766   0.550971  -0.068724
    14  H   -0.000025  -0.000592   0.001544   0.018625  -0.004657   0.002122
    15  H   -0.000000   0.002209   0.000063   0.003456  -0.056200   0.003343
    16  H    0.000001  -0.000179  -0.000060   0.002951  -0.041852   0.000471
    17  C    0.000115   0.304061  -0.010173  -0.040357  -0.008658  -0.003046
    18  H   -0.000011  -0.023040   0.004032  -0.000675  -0.004222  -0.000871
    19  H   -0.000053  -0.049194  -0.001538   0.004073   0.000292   0.000800
    20  H   -0.000000  -0.062142  -0.004339   0.002344  -0.000247  -0.000047
              13         14         15         16         17         18
     1  C    0.010580  -0.040620  -0.000510   0.000470  -0.111314  -0.038137
     2  O    0.012310   0.304054   0.000060  -0.000123   0.003063   0.004151
     3  O    0.000252   0.004575   0.000008  -0.000033  -0.002431   0.000435
     4  C    0.000514  -0.000483  -0.000007  -0.000041  -0.000881  -0.000213
     5  H   -0.000019  -0.000138   0.000001  -0.000001  -0.000295   0.000018
     6  H   -0.000085  -0.000003   0.000000   0.000062   0.000118   0.000017
     7  H    0.000001  -0.000025  -0.000000   0.000001   0.000115  -0.000011
     8  C   -0.008638  -0.000592   0.002209  -0.000179   0.304061  -0.023040
     9  H    0.005581   0.001544   0.000063  -0.000060  -0.010173   0.004032
    10  O   -0.071766   0.018625   0.003456   0.002951  -0.040357  -0.000675
    11  C    0.550971  -0.004657  -0.056200  -0.041852  -0.008658  -0.004222
    12  O   -0.068724   0.002122   0.003343   0.000471  -0.003046  -0.000871
    13  C    5.182194  -0.001226   0.419082   0.414655  -0.000898  -0.000207
    14  H   -0.001226   0.356325   0.000154  -0.000093   0.001270   0.001853
    15  H    0.419082   0.000154   0.494686  -0.014981  -0.000022   0.000028
    16  H    0.414655  -0.000093  -0.014981   0.488761   0.000029   0.000001
    17  C   -0.000898   0.001270  -0.000022   0.000029   5.083450   0.420341
    18  H   -0.000207   0.001853   0.000028   0.000001   0.420341   0.553698
    19  H    0.000037   0.000011   0.000001  -0.000003   0.416176  -0.026808
    20  H   -0.000144  -0.000236   0.000001   0.000002   0.428495  -0.030873
              19         20
     1  C    0.000737   0.016851
     2  O    0.000385  -0.000343
     3  O    0.004749  -0.000173
     4  C   -0.000014   0.000045
     5  H    0.000007   0.000001
     6  H    0.000009   0.000002
     7  H   -0.000053  -0.000000
     8  C   -0.049194  -0.062142
     9  H   -0.001538  -0.004339
    10  O    0.004073   0.002344
    11  C    0.000292  -0.000247
    12  O    0.000800  -0.000047
    13  C    0.000037  -0.000144
    14  H    0.000011  -0.000236
    15  H    0.000001   0.000001
    16  H   -0.000003   0.000002
    17  C    0.416176   0.428495
    18  H   -0.026808  -0.030873
    19  H    0.514606  -0.021687
    20  H   -0.021687   0.513887
 Mulliken charges:
               1
     1  C    0.428185
     2  O   -0.420279
     3  O   -0.292351
     4  C   -0.263165
     5  H    0.155266
     6  H    0.158740
     7  H    0.148913
     8  C   -0.055333
     9  H    0.243250
    10  O   -0.299361
    11  C    0.299371
    12  O   -0.292353
    13  C   -0.444471
    14  H    0.357540
    15  H    0.148627
    16  H    0.149962
    17  C   -0.479043
    18  H    0.140483
    19  H    0.157412
    20  H    0.158605
 Sum of Mulliken charges =  -0.00000
 Mulliken charges with hydrogens summed into heavy atoms:
               1
     1  C    0.428185
     2  O   -0.062739
     3  O   -0.292351
     4  C    0.199755
     8  C    0.187917
    10  O   -0.299361
    11  C    0.299371
    12  O   -0.292353
    13  C   -0.145882
    17  C   -0.022542
 Electronic spatial extent (au):  <R**2>=           1379.2123
 Charge=             -0.0000 electrons
 Dipole moment (field-independent basis, Debye):
    X=             -1.1754    Y=              0.5008    Z=              0.8840  Tot=              1.5537
 Quadrupole moment (field-independent basis, Debye-Ang):
   XX=            -60.6454   YY=            -58.5611   ZZ=            -55.2151
   XY=             -0.2417   XZ=              1.0581   YZ=              0.0345
 Traceless Quadrupole moment (field-independent basis, Debye-Ang):
   XX=             -2.5049   YY=             -0.4206   ZZ=              2.9255
   XY=             -0.2417   XZ=              1.0581   YZ=              0.0345
 Octapole moment (field-independent basis, Debye-Ang**2):
  XXX=             26.4830  YYY=              1.2517  ZZZ=             34.2379  XYY=             12.4957
  XXY=             -0.8405  XXZ=              0.5519  XZZ=              6.6319  YZZ=              8.2301
  YYZ=             -2.6100  XYZ=             -1.4785
 Hexadecapole moment (field-independent basis, Debye-Ang**3):
 XXXX=           -327.0636 YYYY=           -666.4360 ZZZZ=           -746.2526 XXXY=            126.8724
 XXXZ=             73.8060 YYYX=             99.7965 YYYZ=            -47.7829 ZZZX=             44.8363
 ZZZY=            -35.1134 XXYY=           -162.3661 XXZZ=           -188.2120 YYZZ=           -229.6626
 XXYZ=            -18.0443 YYXZ=             22.6494 ZZXY=             34.1892
 N-N= 6.071764057163D+02 E-N=-2.468340258028D+03  KE= 5.332869638675D+02
   1 Symmetry operations used in ECPInt.
 ECPInt:  NShTT=   11325 NPrTT=   34180 LenC2=   11001 LenP2D=   25932.
 LDataN:  DoStor=T MaxTD1= 7 Len=  274
 Calling FoFJK, ICntrl=      2127 FMM=F ISym2X=0 I1Cent= 0 IOpClX= 0 NMat=1 NMatS=1 NMatT=0.
 -------------------------------------------------------------------
 Center     Atomic                   Forces (Hartrees/Bohr)
 Number     Number              X              Y              Z
 -------------------------------------------------------------------
      1        6          -0.000011570   -0.000005052    0.000007871
      2        8           0.000000947   -0.000000818   -0.000000474
      3        8           0.000000120    0.000002011   -0.000001673
      4        6           0.000002100    0.000002911   -0.000000374
      5        1           0.000002506    0.000002223    0.000001062
      6        1           0.000002935    0.000003599    0.000000086
      7        1           0.000002079    0.000003905   -0.000001479
      8        6           0.000101157   -0.000017610    0.000044780
      9        1           0.009900292    0.085234579   -0.054395851
     10        8          -0.000003157   -0.000000315   -0.000000620
     11        6           0.000000608   -0.000000801   -0.000000638
     12        8          -0.009984156   -0.085210772    0.054343321
     13        6           0.000001282   -0.000000102    0.000001794
     14        1           0.000000587   -0.000001677    0.000002674
     15        1           0.000000556   -0.000001365    0.000002337
     16        1           0.000002360    0.000001223    0.000001951
     17        6          -0.000008113   -0.000003583    0.000000951
     18        1          -0.000004203   -0.000002430    0.000002196
     19        1          -0.000000544   -0.000000829   -0.000003829
     20        1          -0.000005787   -0.000005097   -0.000004085
 -------------------------------------------------------------------
 Cartesian Forces:  Max     0.085234579 RMS     0.018545272

 GradGradGradGradGradGradGradGradGradGradGradGradGradGradGradGradGradGrad
 Berny optimization.
 FormGI is forming the generalized inverse of G from B-inverse, IUseBI=4.
 Internal  Forces:  Max     0.075371119 RMS     0.008930164
 Search for a saddle point.
 Step number   1 out of a maximum of  120
 All quantities printed in internal units (Hartrees-Bohrs-Radians)
 Swapping is turned off.
 Second derivative matrix not updated -- first step.
 ITU=  0
     Eigenvalues ---    0.00190   0.00264   0.00350   0.00681   0.01094
     Eigenvalues ---    0.01482   0.01770   0.02779   0.02842   0.02944
     Eigenvalues ---    0.04075   0.04235   0.04352   0.04434   0.04970
     Eigenvalues ---    0.07595   0.08586   0.08633   0.09495   0.09619
     Eigenvalues ---    0.10887   0.12399   0.12557   0.12993   0.13619
     Eigenvalues ---    0.15234   0.15601   0.16190   0.17298   0.18044
     Eigenvalues ---    0.19011   0.19166   0.22348   0.24039   0.25506
     Eigenvalues ---    0.26410   0.30526   0.31446   0.33000   0.34082
     Eigenvalues ---    0.34447   0.34773   0.34874   0.35388   0.35575
     Eigenvalues ---    0.36756   0.37831   0.37976   0.38375   0.39414
     Eigenvalues ---    0.43603   0.52514   0.54845   0.65262
 Eigenvectors required to have negative eigenvalues:
                          D29       D30       D26       D27       D28
   1                   -0.34532  -0.34296  -0.34132  -0.33895  -0.33799
                          D25       D32       D33       D31       R13
   1                   -0.33399  -0.31680  -0.31444  -0.30947   0.05059
 RFO step:  Lambda0=6.170191648D-03 Lambda=-6.92035451D-02.
 Linear search not attempted -- option 19 set.
 Maximum step size (   0.300) exceeded in Quadratic search.
    -- Step size scaled by   0.398
 Iteration  1 RMS(Cart)=  0.03978963 RMS(Int)=  0.00534366
 Iteration  2 RMS(Cart)=  0.00511448 RMS(Int)=  0.00028923
 Iteration  3 RMS(Cart)=  0.00001667 RMS(Int)=  0.00028889
 Iteration  4 RMS(Cart)=  0.00000002 RMS(Int)=  0.00028889
 Variable       Old X    -DE/DX   Delta X   Delta X   Delta X     New X
                                 (Linear)    (Quad)   (Total)
    R1        2.55889   0.00000   0.00000   0.00581   0.00581   2.56470
    R2        2.52131  -0.00000   0.00000   0.00456   0.00456   2.52586
    R3        2.86218   0.01243   0.00000   0.01463   0.01530   2.87748
    R4        2.96349   0.00734   0.00000  -0.04610  -0.04577   2.91772
    R5        1.82844   0.00000   0.00000  -0.00076  -0.00076   1.82768
    R6        2.70130  -0.00000   0.00000  -0.00068  -0.00068   2.70062
    R7        2.05682   0.00000   0.00000   0.00011   0.00011   2.05694
    R8        2.06017   0.00000   0.00000  -0.00008  -0.00008   2.06009
    R9        2.05151   0.00000   0.00000   0.00017   0.00017   2.05168
   R10        2.20652  -0.00859   0.00000  -0.08794  -0.08822   2.11830
   R11        2.74898   0.00141   0.00000  -0.00774  -0.00761   2.74137
   R12        2.80935   0.00000   0.00000  -0.00170  -0.00170   2.80765
   R13        2.56263   0.07537   0.00000   0.25874   0.25758   2.82021
   R14        2.59536   0.00688   0.00000   0.00968   0.00990   2.60526
   R15        2.57648   0.00264   0.00000  -0.00777  -0.00776   2.56873
   R16        2.49845   0.00000   0.00000  -0.00005  -0.00005   2.49839
   R17        2.03743   0.00000   0.00000  -0.00007  -0.00007   2.03736
   R18        2.03537   0.00000   0.00000   0.00006   0.00006   2.03543
   R19        2.06462  -0.00000   0.00000  -0.00182  -0.00182   2.06280
   R20        2.05874  -0.00000   0.00000  -0.00054  -0.00054   2.05820
   R21        2.05754   0.00000   0.00000   0.00018   0.00018   2.05772
    A1        1.97319   0.00235   0.00000   0.00086   0.00087   1.97407
    A2        2.13401  -0.00447   0.00000  -0.01519  -0.01545   2.11856
    A3        1.93913  -0.00859   0.00000  -0.01018  -0.01039   1.92874
    A4        1.99609   0.00020   0.00000  -0.00060  -0.00080   1.99528
    A5        1.87670   0.00087   0.00000   0.01001   0.00994   1.88665
    A6        1.46017   0.01107   0.00000   0.02438   0.02490   1.48508
    A7        1.89625   0.00000   0.00000   0.00133   0.00133   1.89759
    A8        2.01434  -0.00000   0.00000  -0.00202  -0.00202   2.01232
    A9        1.92833   0.00000   0.00000  -0.00049  -0.00049   1.92783
   A10        1.91969   0.00000   0.00000   0.00070   0.00070   1.92039
   A11        1.84593   0.00000   0.00000   0.00038   0.00038   1.84631
   A12        1.92099  -0.00000   0.00000  -0.00019  -0.00019   1.92080
   A13        1.92520  -0.00000   0.00000  -0.00021  -0.00021   1.92499
   A14        1.92254  -0.00000   0.00000  -0.00017  -0.00017   1.92238
   A15        1.33963   0.01139   0.00000   0.06064   0.06176   1.40139
   A16        1.72346  -0.00898   0.00000  -0.00983  -0.01022   1.71324
   A17        2.16830   0.00002   0.00000  -0.00570  -0.00523   2.16307
   A18        1.64675   0.00332   0.00000   0.03846   0.03900   1.68574
   A19        2.42558  -0.01297   0.00000  -0.07151  -0.07247   2.35311
   A20        1.98337   0.00665   0.00000   0.00713   0.00706   1.99043
   A21        1.77088   0.00726   0.00000  -0.00044  -0.00005   1.77083
   A22        1.85440   0.00365   0.00000   0.00872   0.00873   1.86314
   A23        2.20676  -0.00179   0.00000  -0.01152  -0.01154   2.19521
   A24        2.22194  -0.00181   0.00000   0.00291   0.00289   2.22483
   A25        1.78711  -0.00588   0.00000   0.00385   0.00355   1.79066
   A26        2.08846  -0.00000   0.00000   0.00091   0.00091   2.08937
   A27        2.08756   0.00000   0.00000  -0.00096  -0.00096   2.08660
   A28        2.10699   0.00000   0.00000   0.00002   0.00002   2.10701
   A29        1.94304   0.00000   0.00000  -0.00785  -0.00785   1.93519
   A30        1.90512   0.00000   0.00000   0.00245   0.00245   1.90757
   A31        1.92716  -0.00000   0.00000   0.00027   0.00027   1.92743
   A32        1.89677  -0.00000   0.00000   0.00213   0.00213   1.89890
   A33        1.89455  -0.00000   0.00000   0.00193   0.00192   1.89648
   A34        1.89639   0.00000   0.00000   0.00128   0.00127   1.89766
    D1        2.91547   0.00025   0.00000  -0.00899  -0.00894   2.90653
    D2        0.41894   0.00297   0.00000   0.01429   0.01444   0.43339
    D3       -1.25579  -0.00322   0.00000  -0.00283  -0.00303  -1.25882
    D4        0.81223  -0.00145   0.00000   0.00743   0.00744   0.81967
    D5       -2.92146  -0.00584   0.00000  -0.01964  -0.01996  -2.94142
    D6       -1.33471   0.00729   0.00000   0.01265   0.01296  -1.32175
    D7       -2.47908  -0.00750   0.00000  -0.06070  -0.06046  -2.53954
    D8       -0.86562  -0.00037   0.00000  -0.00983  -0.00997  -0.87559
    D9        1.34294   0.00029   0.00000  -0.01329  -0.01347   1.32947
   D10        1.31520  -0.00543   0.00000  -0.03754  -0.03728   1.27791
   D11        2.92866   0.00171   0.00000   0.01334   0.01321   2.94186
   D12       -1.14596   0.00237   0.00000   0.00987   0.00971  -1.13625
   D13       -0.54183  -0.01125   0.00000  -0.05923  -0.05921  -0.60103
   D14        1.07164  -0.00412   0.00000  -0.00836  -0.00872   1.06292
   D15       -3.00298  -0.00346   0.00000  -0.01182  -0.01221  -3.01520
   D16        1.11665   0.00300   0.00000   0.01110   0.01125   1.12789
   D17       -2.99881   0.00099   0.00000   0.01243   0.01236  -2.98645
   D18       -1.01622   0.00450   0.00000   0.01920   0.01951  -0.99671
   D19       -1.20086  -0.00000   0.00000  -0.00159  -0.00159  -1.20245
   D20        0.92338  -0.00000   0.00000  -0.00168  -0.00168   0.92170
   D21        2.99899  -0.00000   0.00000  -0.00130  -0.00130   2.99769
   D22       -0.85304   0.00404   0.00000   0.01224   0.01250  -0.84054
   D23        0.49515   0.01566   0.00000   0.07863   0.07958   0.57473
   D24        3.09968   0.00658   0.00000   0.02230   0.02233   3.12201
   D25       -1.10507   0.00444   0.00000   0.10018   0.10019  -1.00488
   D26        0.98881   0.00444   0.00000   0.09951   0.09951   1.08832
   D27        3.07242   0.00444   0.00000   0.10277   0.10277  -3.10800
   D28       -3.04405  -0.00227   0.00000   0.07596   0.07618  -2.96787
   D29       -0.95017  -0.00227   0.00000   0.07529   0.07550  -0.87467
   D30        1.13344  -0.00227   0.00000   0.07855   0.07876   1.21220
   D31        0.98775  -0.00217   0.00000   0.08766   0.08744   1.07519
   D32        3.08162  -0.00217   0.00000   0.08699   0.08677  -3.11479
   D33       -1.11795  -0.00217   0.00000   0.09025   0.09003  -1.02792
   D34        0.14120   0.00422   0.00000   0.01915   0.01924   0.16044
   D35       -2.98724   0.00107   0.00000   0.01030   0.01026  -2.97698
   D36        0.59341  -0.00668   0.00000  -0.02098  -0.02145   0.57197
   D37       -2.56149  -0.00350   0.00000  -0.01217  -0.01241  -2.57390
   D38        0.07974   0.00192   0.00000   0.00645   0.00653   0.08627
   D39       -3.08193   0.00192   0.00000   0.00492   0.00500  -3.07692
   D40       -3.04597  -0.00192   0.00000  -0.00423  -0.00431  -3.05028
   D41        0.07555  -0.00192   0.00000  -0.00576  -0.00584   0.06971
         Item               Value     Threshold  Converged?
 Maximum Force            0.075371     0.000450     NO 
 RMS     Force            0.008930     0.000300     NO 
 Maximum Displacement     0.198615     0.001800     NO 
 RMS     Displacement     0.042403     0.001200     NO 
 Predicted change in Energy=-2.500552D-02
 GradGradGradGradGradGradGradGradGradGradGradGradGradGradGradGradGradGrad

                          Input orientation:                          
 ---------------------------------------------------------------------
 Center     Atomic      Atomic             Coordinates (Angstroms)
 Number     Number       Type             X           Y           Z
 ---------------------------------------------------------------------
      1          6           0       -0.542138    0.286505    0.420350
      2          8           0       -1.623730   -0.526556    0.525366
      3          8           0       -0.451684    1.170679    1.418666
      4          6           0       -0.636939    0.632653    2.729599
      5          1           0       -1.670712    0.322624    2.870984
      6          1           0        0.031758   -0.214457    2.883479
      7          1           0       -0.387331    1.435619    3.416399
      8          6           0       -0.075118    0.814594   -0.929327
      9          1           0        0.916193    0.695057   -0.419862
     10          8           0       -0.047270   -0.446649   -1.645522
     11          6           0        0.638989   -1.249655   -0.759581
     12          8           0        0.758949   -0.544458    0.396289
     13          6           0        1.089451   -2.467281   -1.009376
     14          1           0       -1.749461   -0.986236   -0.316236
     15          1           0        0.997984   -2.877660   -2.002136
     16          1           0        1.562190   -3.030673   -0.222446
     17          6           0       -0.747527    1.914987   -1.667190
     18          1           0       -1.794746    1.672736   -1.857462
     19          1           0       -0.700476    2.827328   -1.074166
     20          1           0       -0.252038    2.091758   -2.620575
 ---------------------------------------------------------------------
                    Distance matrix (angstroms):
                    1          2          3          4          5
     1  C    0.000000
     2  O    1.357180   0.000000
     3  O    1.336630   2.247728   0.000000
     4  C    2.336972   2.678836   1.429104   0.000000
     5  H    2.698258   2.495043   2.077127   1.088483   0.000000
     6  H    2.578241   2.898058   2.073161   1.090151   1.785222
     7  H    3.212591   3.706330   2.016252   1.085704   1.784181
     8  C    1.522699   2.512571   2.404510   3.706277   4.150943
     9  H    1.731935   2.972710   2.340403   3.512153   4.202434
    10  O    2.247273   2.684095   3.488344   4.544699   4.860676
    11  C    2.268718   2.700714   3.433997   4.164787   4.581243
    12  O    1.543990   2.386240   2.335076   2.962841   3.574801
    13  C    3.505643   3.671947   4.637373   5.154604   5.518991
    14  H    1.902644   0.967165   3.057186   3.624309   3.446402
    15  H    4.272277   4.334668   5.494768   6.114294   6.411791
    16  H    3.980584   4.120669   4.939665   5.193332   5.591563
    17  C    2.655552   3.396493   3.188106   4.581306   4.897235
    18  H    2.946030   3.247153   3.576156   4.843906   4.918983
    19  H    2.952021   3.828764   3.003430   4.391955   4.772747
    20  H    3.548284   4.316717   4.147735   5.558912   5.941355
                    6          7          8          9         10
     6  H    0.000000
     7  H    1.783926   0.000000
     8  C    3.950679   4.400964   0.000000
     9  H    3.538574   4.118799   1.120956   0.000000
    10  O    4.535638   5.411249   1.450670   1.932356   0.000000
    11  C    3.835655   5.069796   2.190864   1.993529   1.378645
    12  O    2.612245   3.788895   2.073631   1.492389   2.197396
    13  C    4.620416   6.082844   3.483293   3.221479   2.404115
    14  H    3.742533   4.653315   2.534224   3.153283   2.226120
    15  H    5.647608   7.062860   3.991893   3.908272   2.670121
    16  H    4.463190   6.081907   4.238695   3.786470   3.360460
    17  C    5.084329   5.118829   1.485745   2.410813   2.463362
    18  H    5.419792   5.463575   2.134236   3.220519   2.755065
    19  H    5.044956   4.711697   2.112617   2.754689   3.387041
    20  H    5.974427   6.074033   2.126680   2.856339   2.726934
                   11         12         13         14         15
    11  C    0.000000
    12  O    1.359312   0.000000
    13  C    1.322092   2.404657   0.000000
    14  H    2.443488   2.644802   3.276180   0.000000
    15  H    2.079236   3.354611   1.078124   3.737405   0.000000
    16  H    2.076738   2.685013   1.077104   3.893013   1.873243
    17  C    3.572273   3.546305   4.797028   3.353512   5.111601
    18  H    3.958381   4.064074   5.116403   3.073689   5.341009
    19  H    4.302896   3.957410   5.589357   4.027170   6.024349
    20  H    3.927119   4.131972   5.018006   4.126294   5.161408
                   16         17         18         19         20
    16  H    0.000000
    17  C    5.646382   0.000000
    18  H    6.005361   1.091585   0.000000
    19  H    6.337291   1.089154   1.773150   0.000000
    20  H    5.939844   1.088899   1.771403   1.770181   0.000000
 Symmetry turned off by external request.
 Stoichiometry    C6H10O4
 Framework group  C1[X(C6H10O4)]
 Deg. of freedom    54
 Full point group                 C1      NOp   1
 Rotational constants (GHZ):           1.9190061           1.2917866           0.9294417
 Standard basis: def2TZVP (5D, 7F)
   370 basis functions,   590 primitive gaussians,   420 cartesian basis functions
    39 alpha electrons       39 beta electrons
       nuclear repulsion energy       607.4771689245 Hartrees.
 NAtoms=   20 NActive=   20 NUniq=   20 SFac= 1.00D+00 NAtFMM=   60 NAOKFM=F Big=F
 Integral buffers will be    131072 words long.
 Raffenetti 2 integral format.
 Two-electron integral symmetry is turned off.
 One-electron integrals computed using PRISM.
   1 Symmetry operations used in ECPInt.
 ECPInt:  NShTT=   11325 NPrTT=   34180 LenC2=   10999 LenP2D=   25933.
 LDataN:  DoStor=T MaxTD1= 6 Len=  172
 NBasis=   370 RedAO= T EigKep=  8.68D-05  NBF=   370
 NBsUse=   370 1.00D-06 EigRej= -1.00D+00 NBFU=   370
 Initial guess from the checkpoint file:  "/dev/shm/dioxolan4ol_ts4_ts.chk"
 B after Tr=     0.004571   -0.008067    0.007587
         Rot=    0.999998   -0.000530    0.001693    0.000644 Ang=  -0.22 deg.
 ExpMin= 9.52D-02 ExpMax= 2.70D+04 ExpMxC= 9.22D+02 IAcc=3 IRadAn=         5 AccDes= 0.00D+00
 Harris functional with IExCor= 1009 and IRadAn=       5 diagonalized for initial guess.
 HarFok:  IExCor= 1009 AccDes= 0.00D+00 IRadAn=         5 IDoV= 1 UseB2=F ITyADJ=14
 ICtDFT=  3500011 ScaDFX=  1.000000  1.000000  1.000000  1.000000
 FoFCou: FMM=F IPFlag=           0 FMFlag=      100000 FMFlg1=           0
         NFxFlg=           0 DoJE=T BraDBF=F KetDBF=T FulRan=T
         wScrn=  0.000000 ICntrl=       500 IOpCl=  0 I1Cent=   200000004 NGrid=           0
         NMat0=    1 NMatS0=      1 NMatT0=    0 NMatD0=    1 NMtDS0=    0 NMtDT0=    0
 Symmetry not used in FoFCou.
 Requested convergence on RMS density matrix=1.00D-08 within 400 cycles.
 Requested convergence on MAX density matrix=1.00D-06.
 Requested convergence on             energy=1.00D-06.
 No special actions if energy rises.
 Integral accuracy reduced to 1.0D-05 until final iterations.
 Initial convergence to 1.0D-05 achieved.  Increase integral accuracy.
 SCF Done:  E(RM062X) =  -535.444512683     A.U. after   12 cycles
            NFock= 12  Conv=0.64D-08     -V/T= 2.0041
 QCSCF skips out because SCF is already converged.
   1 Symmetry operations used in ECPInt.
 ECPInt:  NShTT=   11325 NPrTT=   34180 LenC2=   10999 LenP2D=   25933.
 LDataN:  DoStor=T MaxTD1= 7 Len=  274
 Calling FoFJK, ICntrl=      2127 FMM=F ISym2X=0 I1Cent= 0 IOpClX= 0 NMat=1 NMatS=1 NMatT=0.
 -------------------------------------------------------------------
 Center     Atomic                   Forces (Hartrees/Bohr)
 Number     Number              X              Y              Z
 -------------------------------------------------------------------
      1        6           0.007720171   -0.003062777   -0.000891082
      2        8          -0.002462129    0.002459979    0.000193997
      3        8          -0.000838502    0.000692261   -0.000204209
      4        6           0.000332714   -0.000042452   -0.000084922
      5        1          -0.000007151   -0.000006315    0.000010318
      6        1          -0.000003906    0.000002550    0.000049874
      7        1          -0.000010290   -0.000003056    0.000026395
      8        6          -0.004398084   -0.007252374    0.004801993
      9        1           0.011405690    0.075246353   -0.047129357
     10        8           0.001395547    0.000304695   -0.001240594
     11        6          -0.000241689    0.000927598    0.000142427
     12        8          -0.014042081   -0.069863270    0.045037518
     13        6           0.000164030    0.000255922   -0.000265320
     14        1           0.000099548   -0.000133455    0.000110465
     15        1           0.000057451    0.000036062    0.000010034
     16        1           0.000020739   -0.000007255    0.000021847
     17        6           0.001070867    0.000626186   -0.000672811
     18        1           0.000044659   -0.000157016   -0.000136465
     19        1          -0.000365783   -0.000121958    0.000171327
     20        1           0.000058199    0.000098323    0.000048564
 -------------------------------------------------------------------
 Cartesian Forces:  Max     0.075246353 RMS     0.015971300

 GradGradGradGradGradGradGradGradGradGradGradGradGradGradGradGradGradGrad
 Berny optimization.
 FormGI is forming the generalized inverse of G from B-inverse, IUseBI=4.
 Internal  Forces:  Max     0.062788033 RMS     0.007510596
 Search for a saddle point.
 ...
 Step number  36 out of a maximum of  120
 All quantities printed in internal units (Hartrees-Bohrs-Radians)
 Swapping is turned off.
 Update second derivatives using D2CorX and points   13   20   30   35   36
 ITU=  0  0  0  0  0  0  0  0  0  0  0  0  0  0  0  0  0  0  0  0
 ITU=  0  0  0  0  0  0  0  0  0  0  0  0  0  0  0  0
     Eigenvalues ---   -0.00400  -0.00072   0.00149   0.00289   0.00764
..
     Eigenvalues ---    0.43681   0.52560   0.55442   0.65253
 Eigenvectors required to have negative eigenvalues:
                          D30       D28       D29       D33       D31
   1                    0.33372   0.32420   0.32266   0.31128   0.30175
                          D32       D27       D25       D26       R13
   1                    0.30022   0.29064   0.28112   0.27958  -0.15003
 RFO step:  Lambda0=3.705074402D-05 Lambda=-1.04608055D-03.
 Linear search not attempted -- option 19 set.
 Iteration  1 RMS(Cart)=  0.13058459 RMS(Int)=  0.01414681
 Iteration  2 RMS(Cart)=  0.02247988 RMS(Int)=  0.00205107
 Iteration  3 RMS(Cart)=  0.00048944 RMS(Int)=  0.00203882
 Iteration  4 RMS(Cart)=  0.00000068 RMS(Int)=  0.00203882
 Variable       Old X    -DE/DX   Delta X   Delta X   Delta X     New X
                                 (Linear)    (Quad)   (Total)
    R1        2.62779   0.00022   0.00000   0.00575   0.00575   2.63355
    R2        2.57916   0.00032   0.00000  -0.00712  -0.00712   2.57204
...
   D40       -3.12830   0.00003   0.00000   0.02479   0.02448  -3.10382
   D41        0.02760   0.00002   0.00000   0.00007  -0.00024   0.02736
         Item               Value     Threshold  Converged?
 Maximum Force            0.001025     0.000450     NO 
 RMS     Force            0.000321     0.000300     NO 
 Maximum Displacement     0.493946     0.001800     NO 
 RMS     Displacement     0.137713     0.001200     NO 
 Predicted change in Energy=-7.672117D-04
 GradGradGradGradGradGradGradGradGradGradGradGradGradGradGradGradGradGrad

                          Input orientation:                          
 ---------------------------------------------------------------------
 Center     Atomic      Atomic             Coordinates (Angstroms)
 Number     Number       Type             X           Y           Z
 ---------------------------------------------------------------------
      1          6           0       -0.456721    0.259924    0.387321
      2          8           0       -1.812337   -0.034465    0.253918
      3          8           0       -0.223167    1.066644    1.458374
      4          6           0       -0.698502    0.583174    2.707680
      5          1           0       -1.778247    0.442764    2.682978
      6          1           0       -0.203250   -0.354580    2.966327
      7          1           0       -0.442453    1.343499    3.439838
      8          6           0        0.137953    0.882773   -0.875385
      9          1           0        1.075298    1.373672   -0.576143
     10          8           0        0.464815   -0.292884   -1.630121
     11          6           0        0.681638   -1.313175   -0.767589
     12          8           0        0.267254   -0.964540    0.488473
     13          6           0        1.194381   -2.491421   -1.081079
     14          1           0       -1.920940   -0.989610    0.299947
     15          1           0        1.528722   -2.673166   -2.088726
     16          1           0        1.282195   -3.254468   -0.326021
     17          6           0       -0.774526    1.815429   -1.648986
     18          1           0       -1.771647    1.838597   -1.212961
     19          1           0       -0.369991    2.824633   -1.667637
     20          1           0       -0.864130    1.458118   -2.672955
 ---------------------------------------------------------------------
                    Distance matrix (angstroms):
                    1          2          3          4          5
     1  C    0.000000
     2  O    1.393612   0.000000
     3  O    1.361065   2.277853   0.000000
     4  C    2.355210   2.764607   1.421426   0.000000
     5  H    2.655165   2.475731   2.075369   1.089116   0.000000
...
    20  H    5.685356   1.088215   1.760664   1.766976   0.000000
 Symmetry turned off by external request.
 Stoichiometry    C6H10O4
 Framework group  C1[X(C6H10O4)]
 Deg. of freedom    54
 Full point group                 C1      NOp   1
 Rotational constants (GHZ):           1.9279855           1.2687087           0.9124087
 Standard basis: def2TZVP (5D, 7F)
   370 basis functions,   590 primitive gaussians,   420 cartesian basis functions
    39 alpha electrons       39 beta electrons
       nuclear repulsion energy       603.7199977574 Hartrees.
 NAtoms=   20 NActive=   20 NUniq=   20 SFac= 1.00D+00 NAtFMM=   60 NAOKFM=F Big=F
 Integral buffers will be    131072 words long.
 Raffenetti 2 integral format.
 Two-electron integral symmetry is turned off.
 One-electron integrals computed using PRISM.
   1 Symmetry operations used in ECPInt.
 ECPInt:  NShTT=   11325 NPrTT=   34180 LenC2=   10990 LenP2D=   25865.
 LDataN:  DoStor=T MaxTD1= 6 Len=  172
 NBasis=   370 RedAO= T EigKep=  8.39D-05  NBF=   370
 NBsUse=   370 1.00D-06 EigRej= -1.00D+00 NBFU=   370
 Initial guess from the checkpoint file:  "/dev/shm/dioxolan4ol_ts4_ts.chk"
 B after Tr=     0.045709    0.016086   -0.006148
         Rot=    0.999983    0.000908    0.002424   -0.005158 Ang=   0.66 deg.
 ExpMin= 9.52D-02 ExpMax= 2.70D+04 ExpMxC= 9.22D+02 IAcc=3 IRadAn=         5 AccDes= 0.00D+00
 Harris functional with IExCor= 1009 and IRadAn=       5 diagonalized for initial guess.
 HarFok:  IExCor= 1009 AccDes= 0.00D+00 IRadAn=         5 IDoV= 1 UseB2=F ITyADJ=14
 ICtDFT=  3500011 ScaDFX=  1.000000  1.000000  1.000000  1.000000
 FoFCou: FMM=F IPFlag=           0 FMFlag=      100000 FMFlg1=           0
         NFxFlg=           0 DoJE=T BraDBF=F KetDBF=T FulRan=T
         wScrn=  0.000000 ICntrl=       500 IOpCl=  0 I1Cent=   200000004 NGrid=           0
         NMat0=    1 NMatS0=      1 NMatT0=    0 NMatD0=    1 NMtDS0=    0 NMtDT0=    0
 Symmetry not used in FoFCou.
 Requested convergence on RMS density matrix=1.00D-08 within 400 cycles.
 Requested convergence on MAX density matrix=1.00D-06.
 Requested convergence on             energy=1.00D-06.
 No special actions if energy rises.
 Integral accuracy reduced to 1.0D-05 until final iterations.
 Initial convergence to 1.0D-05 achieved.  Increase integral accuracy.
 SCF Done:  E(RM062X) =  -535.524464978     A.U. after   12 cycles
            NFock= 12  Conv=0.46D-08     -V/T= 2.0045
 QCSCF skips out because SCF is already converged.
   1 Symmetry operations used in ECPInt.
 ECPInt:  NShTT=   11325 NPrTT=   34180 LenC2=   10990 LenP2D=   25865.
 LDataN:  DoStor=T MaxTD1= 7 Len=  274
 Calling FoFJK, ICntrl=      2127 FMM=F ISym2X=0 I1Cent= 0 IOpClX= 0 NMat=1 NMatS=1 NMatT=0.
 -------------------------------------------------------------------
 Center     Atomic                   Forces (Hartrees/Bohr)
 Number     Number              X              Y              Z
 -------------------------------------------------------------------
      1        6           0.000810083   -0.001003538    0.000510674
      2        8           0.001173431   -0.000670626    0.000158661
      3        8           0.000708770    0.000877491    0.000467570
      4        6           0.000893101   -0.000289453   -0.000485779
      5        1          -0.000354656    0.000143630   -0.000033403
      6        1          -0.000215742   -0.000026083    0.000001240
      7        1          -0.000032087   -0.000017016    0.000067122
      8        6           0.004288746    0.000007317    0.002336033
      9        1          -0.003794257   -0.001794607   -0.001705652
     10        8          -0.001007029    0.002569264   -0.000223991
     11        6          -0.001299812    0.001021916    0.000625366
     12        8          -0.002192153    0.000680432   -0.000363900
     13        6           0.000439214    0.000484481   -0.000047266
     14        1          -0.000505791   -0.000588388   -0.000030231
     15        1           0.000093631    0.000020085    0.000011124
     16        1          -0.000066841    0.000037815    0.000014600
     17        6           0.000310363   -0.001308126   -0.000811287
     18        1           0.000496556   -0.000406111    0.000033669
     19        1          -0.000243174   -0.000022804    0.000058438
     20        1           0.000497645    0.000284323   -0.000582987
 -------------------------------------------------------------------
 Cartesian Forces:  Max     0.004288746 RMS     0.001094005

 GradGradGradGradGradGradGradGradGradGradGradGradGradGradGradGradGradGrad
 Berny optimization.
 FormGI is forming the generalized inverse of G from B-inverse, IUseBI=4.
 Internal  Forces:  Max     0.003936483 RMS     0.000766556
 Search for a saddle point.
 Step number  37 out of a maximum of  120
 All quantities printed in internal units (Hartrees-Bohrs-Radians)
 Swapping is turned off.
 Update second derivatives using D2CorX and points   20   36   37
 ITU=  0  0  0  0  0  0  0  0  0  0  0  0  0  0  0  0  0  0  0  0
 ITU=  0  0  0  0  0  0  0  0  0  0  0  0  0  0  0  0  0
     Eigenvalues ---   -0.00489   0.00006   0.00278   0.00294   0.00725
     Eigenvalues ---    0.01127   0.02667   0.02828   0.03746   0.04288
     Eigenvalues ---    0.04465   0.04490   0.05130   0.06224   0.07340
     Eigenvalues ---    0.08597   0.08628   0.09516   0.09624   0.10183
     Eigenvalues ---    0.12432   0.12840   0.13537   0.14379   0.15460
     Eigenvalues ---    0.15643   0.16279   0.17553   0.18955   0.19101
     Eigenvalues ---    0.19731   0.20824   0.24281   0.25279   0.26502
     Eigenvalues ---    0.28515   0.30721   0.31869   0.33636   0.34354
     Eigenvalues ---    0.34457   0.34835   0.34921   0.35549   0.35669
     Eigenvalues ---    0.36768   0.37839   0.38005   0.38353   0.39654
     Eigenvalues ---    0.43714   0.52567   0.55472   0.65276
 Eigenvectors required to have negative eigenvalues:
                          D30       D28       D29       D33       D31
   1                    0.34557   0.33563   0.33425   0.32692   0.31698
                          D32       D27       D25       D26       D23
   1                    0.31561   0.30559   0.29565   0.29427  -0.09204
 RFO step:  Lambda0=2.201153231D-04 Lambda=-6.48067434D-04.
 Linear search not attempted -- option 19 set.
 Iteration  1 RMS(Cart)=  0.07128108 RMS(Int)=  0.00360429
 Iteration  2 RMS(Cart)=  0.00486937 RMS(Int)=  0.00046891
 Iteration  3 RMS(Cart)=  0.00001775 RMS(Int)=  0.00046873
 Iteration  4 RMS(Cart)=  0.00000000 RMS(Int)=  0.00046873
 Variable       Old X    -DE/DX   Delta X   Delta X   Delta X     New X
                                 (Linear)    (Quad)   (Total)
    R1        2.63355  -0.00040   0.00000  -0.00246  -0.00246   2.63108
    R2        2.57204   0.00059   0.00000   0.00301   0.00301   2.57505
...
   D40       -3.10382   0.00030   0.00000  -0.01041  -0.01047  -3.11429
   D41        0.02736   0.00025   0.00000   0.00090   0.00084   0.02819
         Item               Value     Threshold  Converged?
 Maximum Force            0.003936     0.000450     NO 
 RMS     Force            0.000767     0.000300     NO 
 Maximum Displacement     0.251815     0.001800     NO 
 RMS     Displacement     0.072022     0.001200     NO 
 Predicted change in Energy=-2.643584D-04
 GradGradGradGradGradGradGradGradGradGradGradGradGradGradGradGradGradGrad

                          Input orientation:                          
 ---------------------------------------------------------------------
 Center     Atomic      Atomic             Coordinates (Angstroms)
 Number     Number       Type             X           Y           Z
 ---------------------------------------------------------------------
      1          6           0       -0.490085    0.251257    0.391394
      2          8           0       -1.861024    0.025492    0.301507
      3          8           0       -0.194067    1.039352    1.462894
      4          6           0       -0.675078    0.570916    2.715983
      5          1           0       -1.764109    0.551109    2.728795
      6          1           0       -0.280577   -0.424086    2.929047
      7          1           0       -0.309199    1.274005    3.458796
      8          6           0        0.117599    0.866032   -0.873284
      9          1           0        1.052183    1.347386   -0.569898
     10          8           0        0.439171   -0.303085   -1.631483
     11          6           0        0.665335   -1.318278   -0.766854
     12          8           0        0.164903   -1.009629    0.467661
     13          6           0        1.259467   -2.461873   -1.062892
     14          1           0       -2.010198   -0.921192    0.211999
     15          1           0        1.648775   -2.615222   -2.055397
     16          1           0        1.348505   -3.228961   -0.312038
     17          6           0       -0.780418    1.800525   -1.660761
     18          1           0       -1.762440    1.876320   -1.198292
     19          1           0       -0.343784    2.793740   -1.732215
     20          1           0       -0.908613    1.407108   -2.667708
 ---------------------------------------------------------------------
                    Distance matrix (angstroms):
                    1          2          3          4          5
     1  C    0.000000
     2  O    1.392309   0.000000
     3  O    1.362657   2.270568   0.000000
     4  C    2.353746   2.744749   1.421631   0.000000
     5  H    2.678897   2.485435   2.075070   1.089286   0.000000
     6  H    2.634324   3.099016   2.073340   1.091355   1.786609
...
    20  H    5.668942   1.088648   1.763056   1.765483   0.000000
 Symmetry turned off by external request.
 Stoichiometry    C6H10O4
 Framework group  C1[X(C6H10O4)]
 Deg. of freedom    54
 Full point group                 C1      NOp   1
 Rotational constants (GHZ):           1.9192481           1.2667956           0.9111137
 Standard basis: def2TZVP (5D, 7F)
   370 basis functions,   590 primitive gaussians,   420 cartesian basis functions
    39 alpha electrons       39 beta electrons
       nuclear repulsion energy       603.4705038019 Hartrees.
 NAtoms=   20 NActive=   20 NUniq=   20 SFac= 1.00D+00 NAtFMM=   60 NAOKFM=F Big=F
 Integral buffers will be    131072 words long.
 Raffenetti 2 integral format.
 Two-electron integral symmetry is turned off.
 One-electron integrals computed using PRISM.
   1 Symmetry operations used in ECPInt.
 ECPInt:  NShTT=   11325 NPrTT=   34180 LenC2=   10989 LenP2D=   25869.
 LDataN:  DoStor=T MaxTD1= 6 Len=  172
 NBasis=   370 RedAO= T EigKep=  7.86D-05  NBF=   370
 NBsUse=   370 1.00D-06 EigRej= -1.00D+00 NBFU=   370
 Initial guess from the checkpoint file:  "/dev/shm/dioxolan4ol_ts4_ts.chk"
 B after Tr=    -0.023237   -0.008511    0.006869
         Rot=    0.999997   -0.000367   -0.001313    0.001892 Ang=  -0.27 deg.
 ExpMin= 9.52D-02 ExpMax= 2.70D+04 ExpMxC= 9.22D+02 IAcc=3 IRadAn=         5 AccDes= 0.00D+00
 Harris functional with IExCor= 1009 and IRadAn=       5 diagonalized for initial guess.
 HarFok:  IExCor= 1009 AccDes= 0.00D+00 IRadAn=         5 IDoV= 1 UseB2=F ITyADJ=14
 ICtDFT=  3500011 ScaDFX=  1.000000  1.000000  1.000000  1.000000
 FoFCou: FMM=F IPFlag=           0 FMFlag=      100000 FMFlg1=           0
         NFxFlg=           0 DoJE=T BraDBF=F KetDBF=T FulRan=T
         wScrn=  0.000000 ICntrl=       500 IOpCl=  0 I1Cent=   200000004 NGrid=           0
         NMat0=    1 NMatS0=      1 NMatT0=    0 NMatD0=    1 NMtDS0=    0 NMtDT0=    0
 Symmetry not used in FoFCou.
 Requested convergence on RMS density matrix=1.00D-08 within 400 cycles.
 Requested convergence on MAX density matrix=1.00D-06.
 Requested convergence on             energy=1.00D-06.
 No special actions if energy rises.
 Integral accuracy reduced to 1.0D-05 until final iterations.
 Initial convergence to 1.0D-05 achieved.  Increase integral accuracy.
 SCF Done:  E(RM062X) =  -535.524650426     A.U. after   12 cycles
            NFock= 12  Conv=0.40D-08     -V/T= 2.0045
 QCSCF skips out because SCF is already converged.
   1 Symmetry operations used in ECPInt.
 ECPInt:  NShTT=   11325 NPrTT=   34180 LenC2=   10989 LenP2D=   25869.
 LDataN:  DoStor=T MaxTD1= 7 Len=  274
 Calling FoFJK, ICntrl=      2127 FMM=F ISym2X=0 I1Cent= 0 IOpClX= 0 NMat=1 NMatS=1 NMatT=0.
 -------------------------------------------------------------------
 Center     Atomic                   Forces (Hartrees/Bohr)
 Number     Number              X              Y              Z
 -------------------------------------------------------------------
      1        6           0.000118405   -0.000495631   -0.000086562
      2        8          -0.000077091   -0.000028267    0.000065546
      3        8           0.000021435    0.000082745    0.000093190
      4        6           0.000062816   -0.000000918   -0.000065882
      5        1          -0.000033098    0.000027612   -0.000003658
      6        1          -0.000007801   -0.000018706   -0.000003458
      7        1           0.000022366   -0.000027513   -0.000008738
      8        6           0.001149507    0.000752382    0.000868514
      9        1          -0.000926310   -0.000053653   -0.000592119
     10        8          -0.000488723    0.000166932    0.000120117
     11        6          -0.000430808   -0.000430638    0.000241222
     12        8           0.000215432    0.000263732   -0.000365218
     13        6           0.000156485   -0.000018029    0.000058733
     14        1          -0.000040553   -0.000024009   -0.000054329
     15        1           0.000034278    0.000030211    0.000032997
     16        1          -0.000063009   -0.000022361   -0.000026670
     17        6           0.000113681   -0.000154729   -0.000238494
     18        1           0.000088464   -0.000155904   -0.000055733
     19        1          -0.000066251    0.000057774    0.000107754
     20        1           0.000150774    0.000048970   -0.000087215
 -------------------------------------------------------------------
 Cartesian Forces:  Max     0.001149507 RMS     0.000298384

 GradGradGradGradGradGradGradGradGradGradGradGradGradGradGradGradGradGrad
 Berny optimization.
 FormGI is forming the generalized inverse of G from B-inverse, IUseBI=4.
 Internal  Forces:  Max     0.000969927 RMS     0.000159571
 Search for a saddle point.
 ...
 Step number  43 out of a maximum of  120
 All quantities printed in internal units (Hartrees-Bohrs-Radians)
 Swapping is turned off.
 Update second derivatives using D2CorX and points   12   23   24   25   27
                                                     28   29   31   32   33
                                                     34   39   40   41   42
                                                     43
 ITU=  0  0  0  0  0  0  0  0  0  0  0  0  0  0  0  0  0  0  0  0
 ITU=  0  0  0  0  0  0  0  0  0  0  0  0  0  0  0  0  0  0  0  0
 ITU=  0  0  0
     Eigenvalues ---   -0.00246   0.00146   0.00269   0.00313   0.00549
     Eigenvalues ---    0.01145   0.02603   0.02834   0.03689   0.04298
     Eigenvalues ---    0.04439   0.04517   0.04946   0.06188   0.07720
     Eigenvalues ---    0.08599   0.08627   0.09517   0.09625   0.10110
     Eigenvalues ---    0.12436   0.12865   0.13557   0.14453   0.15422
     Eigenvalues ---    0.15795   0.16343   0.17532   0.18973   0.19101
     Eigenvalues ---    0.19828   0.21205   0.24376   0.25354   0.26525
     Eigenvalues ---    0.29181   0.30651   0.31883   0.33707   0.34439
     Eigenvalues ---    0.34473   0.34845   0.34931   0.35563   0.35721
     Eigenvalues ---    0.36903   0.37847   0.38013   0.38362   0.39794
     Eigenvalues ---    0.43753   0.52572   0.55533   0.65266
 Eigenvectors required to have negative eigenvalues:
                          D30       D33       D29       D28       D32
   1                    0.34532   0.33976   0.33412   0.33035   0.32855
                          D31       D27       D26       D25       D18
   1                    0.32478   0.32025   0.30905   0.30527   0.06771
 RFO step:  Lambda0=1.363184036D-08 Lambda=-4.23999894D-08.
 Linear search not attempted -- option 19 set.
 Iteration  1 RMS(Cart)=  0.00036874 RMS(Int)=  0.00000008
 Iteration  2 RMS(Cart)=  0.00000010 RMS(Int)=  0.00000001
 Variable       Old X    -DE/DX   Delta X   Delta X   Delta X     New X
                                 (Linear)    (Quad)   (Total)
    R1        2.62681   0.00000   0.00000  -0.00000  -0.00000   2.62681
    R2        2.56653  -0.00000   0.00000   0.00001   0.00001   2.56653
...
   D40       -3.11245   0.00000   0.00000   0.00008   0.00008  -3.11237
   D41        0.03182   0.00000   0.00000  -0.00004  -0.00004   0.03178
         Item               Value     Threshold  Converged?
 Maximum Force            0.000031     0.000450     YES
 RMS     Force            0.000009     0.000300     YES
 Maximum Displacement     0.001124     0.001800     YES
 RMS     Displacement     0.000369     0.001200     YES
 Predicted change in Energy=-1.438347D-08
 Optimization completed.
    -- Stationary point found.
                           ----------------------------
                           !   Optimized Parameters   !
                           ! (Angstroms and Degrees)  !
 --------------------------                            --------------------------
 ! Name  Definition              Value          Derivative Info.                !
 --------------------------------------------------------------------------------
 ! R1    R(1,2)                  1.39           -DE/DX =    0.0                 !
 ! R2    R(1,3)                  1.3581         -DE/DX =    0.0                 !
 ! R3    R(1,8)                  1.5335         -DE/DX =    0.0                 !
 ! R4    R(1,12)                 1.4267         -DE/DX =    0.0                 !
 ! R5    R(2,14)                 0.9637         -DE/DX =    0.0                 !
 ! R6    R(3,4)                  1.4243         -DE/DX =    0.0                 !
 ! R7    R(4,5)                  1.0887         -DE/DX =    0.0                 !
 ! R8    R(4,6)                  1.0907         -DE/DX =    0.0                 !
 ! R9    R(4,7)                  1.0863         -DE/DX =    0.0                 !
 ! R10   R(8,9)                  1.0927         -DE/DX =    0.0                 !
 ! R11   R(8,10)                 1.4304         -DE/DX =    0.0                 !
 ! R12   R(8,17)                 1.5163         -DE/DX =    0.0                 !
 ! R13   R(9,12)                 2.7093         -DE/DX =    0.0                 !
 ! R14   R(10,11)                1.357          -DE/DX =    0.0                 !
 ! R15   R(11,12)                1.3626         -DE/DX =    0.0                 !
 ! R16   R(11,13)                1.3224         -DE/DX =    0.0                 !
 ! R17   R(13,15)                1.0771         -DE/DX =    0.0                 !
 ! R18   R(13,16)                1.0771         -DE/DX =    0.0                 !
 ! R19   R(17,18)                1.0885         -DE/DX =    0.0                 !
 ! R20   R(17,19)                1.0873         -DE/DX =    0.0                 !
 ! R21   R(17,20)                1.0889         -DE/DX =    0.0                 !
 ! A1    A(2,1,3)              109.4057         -DE/DX =    0.0                 !
 ! A2    A(2,1,8)              114.9318         -DE/DX =    0.0                 !
 ! A3    A(2,1,12)             108.7135         -DE/DX =    0.0                 !
 ! A4    A(3,1,8)              109.8105         -DE/DX =    0.0                 !
 ! A5    A(3,1,12)             111.773          -DE/DX =    0.0                 !
 ! A6    A(8,1,12)             102.0649         -DE/DX =    0.0                 !
 ! A7    A(1,2,14)             109.0296         -DE/DX =    0.0                 !
 ! A8    A(1,3,4)              115.3665         -DE/DX =    0.0                 !
 ! A9    A(3,4,5)              110.7859         -DE/DX =    0.0                 !
 ! A10   A(3,4,6)              110.3944         -DE/DX =    0.0                 !
 ! A11   A(3,4,7)              105.8351         -DE/DX =    0.0                 !
 ! A12   A(5,4,6)              109.9277         -DE/DX =    0.0                 !
 ! A13   A(5,4,7)              110.0954         -DE/DX =    0.0                 !
 ! A14   A(6,4,7)              109.7281         -DE/DX =    0.0                 !
 ! A15   A(1,8,9)              106.8178         -DE/DX =    0.0                 !
 ! A16   A(1,8,10)             101.2537         -DE/DX =    0.0                 !
 ! A17   A(1,8,17)             116.2575         -DE/DX =    0.0                 !
 ! A18   A(9,8,10)             108.5834         -DE/DX =    0.0                 !
 ! A19   A(9,8,17)             112.1569         -DE/DX =    0.0                 !
 ! A20   A(10,8,17)            111.0248         -DE/DX =    0.0                 !
 ! A21   A(8,10,11)            107.7911         -DE/DX =    0.0                 !
 ! A22   A(10,11,12)           110.1324         -DE/DX =    0.0                 !
 ! A23   A(10,11,13)           125.212          -DE/DX =    0.0                 !
 ! A24   A(12,11,13)           124.6399         -DE/DX =    0.0                 !
 ! A25   A(1,12,11)            108.8238         -DE/DX =    0.0                 !
 ! A26   A(11,13,15)           119.4572         -DE/DX =    0.0                 !
 ! A27   A(11,13,16)           119.7771         -DE/DX =    0.0                 !
 ! A28   A(15,13,16)           120.7656         -DE/DX =    0.0                 !
 ! A29   A(8,17,18)            110.7428         -DE/DX =    0.0                 !
 ! A30   A(8,17,19)            111.1243         -DE/DX =    0.0                 !
 ! A31   A(8,17,20)            109.2363         -DE/DX =    0.0                 !
[...]
 3,-0.03377284,-0.01685415,0.02395029,0.00444685,0.00358144,-0.00635272
 ,0.00011607,-0.00220447,-0.00116611,-0.00001891,-0.00010539,-0.0004500
 3,-0.00011102,0.00014644,0.00011678,0.00032802,0.00019398,-0.00073714,
 0.58606477,-0.01860502,-0.07498233,0.03435678,-0.01137830,-0.00501759,
 0.01011104,0.00526526,0.00623024,-0.02566427,-0.00270126,-0.00138429,-
 0.00267283,0.00003025,-0.00005397,0.00010911,0.00009153,0.00003974,-0.
 00011430,0.00039150,0.00031236,-0.00107508,0.03353186,0.54583732,0.028
 30203,0.05244315,-0.13773875,-0.00175565,-0.00084813,0.00648626,0.0075
 7194,0.00064180,-0.03526968,0.00013393,-0.00132496,-0.00018802,-0.0000
 7426,-0.00005185,-0.00024383,-0.00008710,-0.00012817,0.00030198,0.0001
 7769,0.00010182,-0.00009377,0.06479633,-0.03740722,0.49928607,-0.01493
 897,-0.00606907,-0.00600220,-0.00173452,-0.00178605,0.00301114,0.00145
 314,0.00070375,-0.00153065,0.00025294,0.00009755,0.00061342,0.00013758
 ,0.00004501,-0.00028107,0.00000225,0.00006372,-0.00011830,0.00000784,-
 0.00002238,0.00003982,-0.25526842,-0.09924057,-0.05255311,0.26715995,-
 0.01220225,-0.00428676,-0.00161458,-0.00121628,-0.00055378,0.00117109,
 0.00120966,0.00057031,-0.00157435,0.00023609,-0.00010030,0.00036281,0.
 00006677,0.00003237,-0.00015264,-0.00002388,0.00001033,-0.00004750,0.0
 0000042,0.00001244,-0.00000953,-0.09449537,-0.09275584,-0.02038615,0.1
 0387179,0.11698510,0.02358869,0.01094018,0.00824393,0.00549462,0.00280
 546,-0.00470351,0.00012409,0.00033077,0.00024946,0.00002652,-0.0002093
 8,0.00017902,-0.00001351,0.00003528,0.00017817,0.00000150,-0.00002852,
 0.00010007,-0.00001748,-0.00002202,-0.00001602,-0.05457886,-0.02002011
 ,-0.06608799,0.05872178,0.03070069,0.07342105,-0.00474654,0.02127610,0
 .01548731,0.00198203,-0.00166278,0.00045495,-0.00077017,-0.00240958,0.
 00560304,0.00111130,0.00126670,-0.00048262,-0.00005178,-0.00004606,0.0
 0000817,-0.00003054,-0.00009951,0.00015857,-0.00011828,-0.00009131,0.0
 0047770,-0.06602009,0.01485860,0.01711985,0.01502336,-0.01789557,-0.01
 323440,0.10664778,0.01090207,-0.02856882,-0.01096667,0.00014369,0.0059
 3643,-0.00241432,0.00193115,0.00592390,-0.00471052,-0.00013982,-0.0018
 4911,0.00170417,0.00020010,0.00020148,-0.00037601,0.00004692,0.0003100
 3,-0.00064952,0.00008562,0.00021796,-0.00042581,0.01285743,-0.14626477
 ,-0.07836135,0.00651681,-0.02899435,-0.02186855,-0.10612038,0.45548901
 ,-0.00062278,-0.01673385,-0.03785158,0.00341496,-0.00011102,0.00379181
 ,0.00351136,0.00110049,-0.01008399,-0.00155341,-0.00087236,0.00051032,
 0.00025776,0.00002245,-0.00022497,0.00009732,-0.00004097,0.00014941,0.
 00027266,-0.00007274,-0.00056167,0.00783464,-0.04353879,-0.13773575,0.
 00182128,-0.01484612,-0.00579781,-0.00851077,-0.03140599,0.41102116,-0
 .02144267,0.02769392,0.02355499,0.00065671,0.00050941,-0.00205599,0.00
 171576,-0.00532650,-0.00604796,-0.00118276,-0.00056035,0.00184036,0.00
 021008,0.00004340,-0.00009275,0.00003188,0.00004803,0.00029393,0.00007
 756,-0.00019334,-0.00034167,-0.00740651,0.01235725,-0.00446491,0.00118
 220,-0.00269929,-0.00101862,-0.06771297,0.04553689,-0.00976888,0.34678
 699,0.01935134,-0.01480257,-0.04256882,-0.00297830,-0.00106861,0.00314
 620,0.00083843,-0.00959068,0.00404877,0.00061541,0.00031354,-0.0000155
 5,-0.00019967,-0.00005583,0.00008663,-0.00029289,0.00034458,0.00008573
 ,-0.00012123,0.00024859,0.00037771,0.02197868,-0.06502661,0.01045555,-
 0.00114911,0.00233696,0.00158094,0.04648669,-0.19456384,0.06117522,-0.
 32360423,0.83563468,0.03508521,-0.07389228,0.00019387,-0.01614667,0.01
 163634,-0.00737222,-0.00072638,0.01528186,0.00403217,0.00211432,-0.001
 28958,-0.00299644,-0.00027458,-0.00000044,-0.00004919,-0.00010872,-0.0
 0000398,-0.00078703,-0.00001232,0.00051865,0.00010131,-0.00848977,0.01
 838251,0.02378855,0.00044693,-0.00506450,-0.00332319,-0.02302608,0.095
 95404,-0.18290653,-0.11808819,0.06131316,0.53059840,-0.07564150,0.0178
 3312,-0.01867694,-0.05839335,0.04744852,-0.00703815,0.00800045,0.01249
 211,0.01078110,0.00086560,0.00066901,-0.00177023,0.00010169,-0.0002109
 6,-0.00034130,-0.00055288,0.00006072,0.00053420,0.00023026,0.00007598,
 0.00014390,0.00363356,0.00898933,0.00050603,0.00118644,0.00024706,-0.0
 0162585,0.01158403,-0.00798900,0.00911908,-0.07824250,0.03791352,0.062
 84943,0.18233450,0.01814773,-0.12307773,0.05602589,0.03126931,-0.00178
 158,0.00266757,0.01203657,-0.04744302,-0.03011749,-0.00344795,-0.00066
 198,0.00743390,0.00062420,0.00020212,-0.00056044,0.00044194,0.00074997
 ,-0.00231908,-0.00012849,0.00021412,-0.00038269,0.02011260,-0.04366964
 ,0.01964817,0.00000382,0.00091380,-0.00002000,-0.00524556,0.00858234,0
 .01890684,0.04288103,-0.11292480,-0.03212891,-0.13772772,0.32938416,-0
 .00784048,0.03731468,-0.10436403,0.00813702,-0.00665034,0.01505907,0.0
 1491630,-0.04913106,-0.00813449,-0.00169859,-0.00172984,0.00557142,0.0
 0053225,0.00000113,-0.00055623,0.00028087,-0.00068607,0.00054405,0.000
 17573,-0.00063696,0.00003332,-0.00501283,0.01133541,-0.01663497,0.0009
 0087,0.00125025,0.00007349,0.01018772,0.03141527,-0.06539281,0.0570174
 8,-0.01217459,-0.23892440,-0.09319714,0.00482660,0.43319618,0.00308192
 ,-0.00530140,0.00074806,-0.00121685,0.00073823,-0.00024440,-0.00055212
 ,0.00177055,0.00190424,0.00033126,0.00023616,-0.00083751,-0.00004676,-
 0.00006542,0.00005200,-0.00005513,-0.00011768,-0.00007151,-0.00002610,
 0.00006311,0.00012584,0.00248371,-0.00190998,-0.00094270,-0.00072065,0
 .00118454,0.00043824,0.00408192,0.01799430,-0.00469136,-0.16536123,0.1
 9108471,0.05729223,-0.00250460,0.02154791,0.01628278,0.26025854,-0.004
 21361,0.00556665,0.00287866,0.00292876,-0.00051881,-0.00027532,0.00073
 012,-0.00037023,-0.00242214,-0.00046056,-0.00030394,0.00094119,0.00011
 000,0.00003954,-0.00007851,0.00001600,0.00007998,0.00001645,0.00002590
 ,-0.00005228,-0.00016759,-0.00180063,0.00465433,0.00546183,0.00002541,
 -0.00115884,-0.00089874,0.02556298,-0.04239605,0.00890698,0.19070254,-
 0.42633239,-0.08114225,0.01436157,-0.00508663,-0.01821576,-0.28796938,
 0.72301459,-0.00497907,0.01273181,-0.00646333,0.00393429,-0.00237702,0
 .00158053,0.00096388,-0.00440757,-0.00177410,-0.00053954,-0.00007517,0
 .00114716,0.00008231,0.00002638,-0.00004858,-0.00000097,0.00009654,0.0
 0018144,0.00000936,-0.00007559,-0.00008196,0.00004953,-0.00112330,-0.0
 0611203,0.00006899,0.00071151,0.00058284,-0.01578857,0.03583142,0.0133
 5312,0.05540472,-0.08012710,-0.12455376,0.03194956,-0.04871954,-0.0189
 4845,-0.15774859,-0.03137440,0.66160839,-0.01069068,-0.03735095,-0.027
 18055,-0.05387703,-0.03915844,-0.02425416,-0.00833270,-0.00374199,-0.0
 0271829,-0.00010076,-0.00040252,0.00127624,0.00028760,0.00017275,-0.00
 029762,0.00007104,0.00007693,-0.00024687,0.00012972,0.00009366,-0.0000
 6241,-0.00087304,-0.00142760,0.00005473,0.00004710,0.00012444,-0.00012
 093,0.00073046,0.00086857,0.00033107,-0.00417805,0.00205975,0.00320622
 ,0.00465049,0.00064154,-0.00086052,0.00049725,-0.00071838,-0.00057765,
 0.07139742,-0.00082396,-0.00631453,-0.00562120,-0.08224225,-0.33874823
 ,-0.24163298,0.00028599,0.00260313,0.00173565,-0.00016686,0.00032497,0
 .00018688,0.00026266,-0.00003920,0.00018208,0.00005291,-0.00005211,0.0
 0002775,0.00011002,-0.00002035,0.00002197,-0.00055119,0.00086104,0.000
 73420,0.00040464,0.00003076,-0.00049970,0.00123306,-0.00123604,0.00075
 245,-0.00060669,0.00262145,-0.00098792,0.00329566,-0.00145097,0.001247
 49,-0.00023881,-0.00111688,-0.00011087,0.07883122,0.34330073,-0.001927
 85,-0.00038726,-0.00391329,-0.05330968,-0.24090690,-0.17332829,-0.0018
 7694,-0.00097743,-0.00008621,-0.00032495,-0.00065308,0.00101393,-0.000
 01744,-0.00011880,0.00019679,-0.00019148,0.00008114,-0.00022059,-0.000
 04747,0.00012373,0.00001942,0.00172901,0.00038603,0.00069682,0.0001011
 7,0.00005909,-0.00026491,-0.00120795,0.00069980,-0.00202800,-0.0001174
 5,-0.00046407,0.00542586,0.00554392,-0.00083309,-0.00163009,0.00002204
 ,-0.00044438,-0.00099474,0.05141687,0.24334544,0.17552724,0.00224766,0
 .00045930,0.00086817,0.00039247,-0.00037092,0.00012536,-0.00044600,0.0
 0090568,0.00039158,0.00007537,0.00006957,-0.00017395,-0.00001671,-0.00
 000057,0.00002265,0.00001549,-0.00002614,-0.00000523,-0.00000499,-0.00
 000814,0.00001152,-0.00098855,-0.00030195,0.00014900,0.00011562,-0.000
 19320,-0.00014635,-0.00362929,-0.00272369,-0.00181152,-0.00323898,-0.0
 0001548,0.01385343,0.00425808,0.00460806,0.00070517,-0.06626777,0.0268
 5274,0.10342661,0.00005351,-0.00000342,0.00006599,0.06504087,0.0004061
 5,0.00205373,-0.00114047,0.00068830,-0.00049707,0.00029387,-0.00003738
 ,-0.00041608,-0.00010161,-0.00003831,-0.00002181,0.00014254,0.00000224
 ,0.00000987,-0.00000335,0.00001258,0.00000643,0.00001815,-0.00000042,-
 0.00000863,-0.00000838,-0.00047490,-0.00048155,-0.00019071,0.00005931,
 -0.00003121,-0.00002909,-0.00270325,0.00082297,-0.00028869,0.00791456,
 0.00000394,-0.02567120,0.00528644,-0.00434389,0.00038754,0.02499825,-0
 .05517448,-0.03393467,-0.00005379,-0.00000145,-0.00008837,-0.02784762,
 0.05099568,0.00015679,0.00096120,0.00007455,0.00027312,-0.00018970,0.0
 0015521,-0.00013879,0.00000369,0.00009766,-0.00001442,0.00006737,-0.00
 001921,-0.00000283,-0.00000413,0.00000812,0.00000607,0.,0.00000898,-0.
 00000073,-0.00001064,0.00000590,-0.00006875,-0.00061329,-0.00013606,0.
 00004354,-0.00001334,-0.00000063,-0.00181447,0.00062102,-0.00042158,0.
 00106868,0.00120039,-0.00466227,0.00148383,0.00012576,0.00232287,0.106
 24521,-0.04031602,-0.31639581,0.00001167,0.00000491,-0.00006565,-0.112
 76690,0.04334528,0.32935097,-0.00080732,-0.00048737,-0.00033460,-0.000
 50023,0.00006359,-0.00006938,0.00011648,-0.00046406,-0.00020827,-0.000
 01481,-0.00000968,0.00002792,-0.00000645,0.00001332,-0.00000338,0.0000
 2443,0.00002654,0.00002157,0.00000505,-0.00001507,-0.00000722,0.001539
 81,0.00123582,-0.00070484,-0.00019881,0.00028347,0.00019040,0.00550711
 ,0.00471021,0.00440068,-0.00085012,0.00900715,-0.01222501,-0.00293939,
 -0.00217965,-0.00095543,-0.03409925,0.03366379,-0.01556351,0.00000962,
 0.00016541,-0.00005108,0.00236092,-0.00820023,0.00553987,0.02996595,0.
 00002256,-0.00130554,0.00016548,-0.00044370,0.00030686,-0.00024484,0.0
 0002179,0.00012755,-0.00013947,0.00003410,-0.00009765,0.00002007,-0.00
 000857,0.00001550,-0.00000966,0.00001449,0.00001109,-0.00003734,0.0000
 0360,0.00001428,-0.00001129,0.00109418,0.00099524,0.00125031,-0.000080
 98,0.00001995,0.00002180,0.00444546,-0.00207329,-0.00198365,0.00079934
 ,-0.01463267,0.02084695,-0.00278501,0.00143475,0.00020733,0.03603632,-
 0.19941454,0.15137675,0.00004654,-0.00002452,0.00011392,-0.00154810,0.
 00695418,-0.00524051,-0.03776320,0.20817206,-0.00032637,0.00007501,0.0
 0013974,-0.00013684,0.00004231,-0.00008221,0.00002701,-0.00007239,-0.0
 0013091,0.00000617,-0.00006320,0.00006125,-0.00000213,0.00001259,-0.00
 000434,0.00000590,0.00000702,-0.00001402,-0.00000076,0.00000511,-0.000
 00794,0.00045563,0.00000107,0.00049066,-0.00005174,0.00001695,-0.00000
 915,0.00324294,-0.00187591,0.00127377,0.00098283,-0.00633959,0.0065032
 7,-0.00096864,-0.00039862,-0.00034715,-0.01837782,0.15767606,-0.204282
 17,-0.00002056,0.00005268,0.00002195,-0.00470283,0.01717227,-0.0103552
 3,0.01987727,-0.16605168,0.20682700,0.01156268,-0.00167403,-0.00127829
 ,-0.00143857,-0.00132099,0.00067448,-0.00031031,0.00018931,0.00160994,
 0.00017390,0.00018000,0.00015216,-0.00002174,-0.00004772,0.00003781,-0
 .00002987,-0.00000676,-0.00001479,-0.00003863,-0.00002227,0.00010266,-
 0.13135825,0.04425661,-0.04095815,-0.01252173,0.01687643,-0.01630315,-
 0.00300091,0.01270454,-0.00232432,-0.00070988,-0.00121006,0.00356928,0
 .00089930,-0.00466244,0.00118254,0.00015085,-0.00012575,-0.00040814,0.
 00006622,-0.00001173,0.00021319,0.00004428,-0.00001737,-0.00001522,-0.
 00005953,0.00004545,-0.00005369,0.54664822,-0.00097604,-0.01041473,0.0
 1119706,0.00414935,-0.00066629,0.00242475,0.00039245,0.00038337,-0.000
 38409,-0.00005386,0.00001142,0.00042192,0.00007474,0.00002095,-0.00009
 081,0.00000563,0.00004256,-0.00012204,0.00000319,0.00001402,0.00000015
 ,0.04519988,-0.12031498,0.03788811,-0.00515733,0.00721188,-0.00407773,
 0.01821357,-0.02643822,0.01479298,0.00360691,-0.00267066,-0.00261213,0
 .00114880,0.00044471,-0.00005924,-0.00007364,-0.00096462,0.00112052,-0
 .00015637,0.00006171,-0.00039039,0.00009193,0.00010115,0.00004662,-0.0
 0005892,-0.00036312,-0.00021151,0.03431018,0.56218666,-0.01740171,0.01
 424464,-0.01035710,-0.00134014,-0.00040875,0.00155072,0.00066497,0.000
 11315,-0.00008336,0.00030235,-0.00030914,0.00005034,0.00003145,0.00000
 268,-0.00012176,-0.00003440,0.00001173,0.00007789,0.00003683,-0.000015
 54,-0.00003380,-0.04537732,0.04742544,-0.11828925,-0.00365272,0.007025
 43,-0.00119401,0.01004197,-0.01229725,0.01202461,0.00132689,-0.0020205
 3,-0.00492880,0.00077280,0.00464319,-0.00179280,-0.00020453,-0.0005644
 6,0.00112893,-0.00007270,0.00048977,-0.00029293,-0.00002996,0.00006535
 ,0.00001686,0.00016010,-0.00024222,-0.00007427,-0.03228662,0.02643034,
 0.55135303,-0.00203104,-0.00015096,0.00225651,0.00151709,-0.00180602,0
 .00172886,0.00024854,-0.00032531,-0.00032543,0.00001308,0.00002397,-0.
 00016529,0.00000908,0.00001525,-0.00001639,-0.00000734,-0.00002667,0.0
 0004252,0.00000228,0.00001524,-0.00000979,-0.01710011,0.00206282,0.005
 10562,-0.00095564,0.00193086,-0.00126407,-0.00085417,0.00139706,-0.000
 89613,-0.00023242,-0.00046692,0.00105368,0.00028577,-0.00039300,-0.000
 44086,0.00001284,0.00020634,-0.00019364,0.00005245,-0.00011085,-0.0000
 2352,-0.00001152,-0.00002775,-0.00001399,-0.00000262,0.00004541,0.0000
 1909,-0.26079538,0.02546268,0.11262537,0.28343359,0.00299060,0.0001295
 9,0.00071179,-0.00123424,-0.00027091,-0.00033726,-0.00047340,-0.000222
 60,-0.00007813,0.00011380,-0.00004716,0.00007479,-0.00002418,0.0000420
 6,0.00004422,0.00001541,-0.00000559,0.00000831,-0.00004398,-0.00001028
 ,-0.00001392,0.01611530,-0.00044708,-0.01143783,0.00085340,-0.00072830
 ,0.00114538,0.00141363,-0.00421780,0.00217250,0.00045420,0.00018264,-0
 .00194455,-0.00099739,0.00072368,0.00049664,-0.00003920,-0.00027069,0.
 00042834,0.00001628,-0.00082485,0.00032101,-0.00001225,0.00002988,0.00
 001037,0.00006693,-0.00008353,-0.00000692,0.02356189,-0.04962351,-0.01
 144734,-0.02900439,0.05228421,-0.00078227,0.00208755,-0.00002885,-0.00
 028103,0.00088180,-0.00204829,0.00046902,-0.00037439,0.00055910,0.0000
 5583,0.00001873,-0.00025035,-0.00000105,0.00002541,-0.00003346,-0.0000
 0489,-0.00003350,0.00005515,0.00000743,0.00000163,0.00001463,-0.017191
 99,0.00045175,0.00810667,-0.00140145,0.00127032,-0.00187603,-0.0007481
 4,0.00126158,-0.00070532,-0.00025028,0.00010879,0.00111795,0.00048953,
 -0.00084848,0.00006519,0.00005288,0.00002914,-0.00021857,0.00023641,-0
 .00005415,0.00042344,0.00002242,0.00000012,-0.00000546,-0.00004578,0.0
 0002956,0.00000275,0.11459409,-0.01394120,-0.10583479,-0.12220416,0.01
 017180,0.11397236,-0.00265228,0.00046021,-0.00024357,0.00097905,-0.000
 78208,0.00138320,0.00019243,0.00011832,-0.00023365,-0.00008766,-0.0000
 1493,-0.00003356,0.00001484,-0.00001821,-0.00002332,-0.00000410,0.0000
 0816,-0.00000541,0.00003224,0.00000714,-0.00001511,0.00864361,0.019628
 55,-0.00260452,0.00103549,0.00055886,0.00046403,-0.00154706,0.00287824
 ,-0.00176096,-0.00042568,0.00045677,0.00043105,0.00012877,0.00061759,-
 0.00039880,-0.00002920,0.00027345,-0.00025094,-0.00009954,0.00029743,-
 0.00019136,-0.00001362,-0.00001704,-0.00000450,-0.00002486,0.00007799,
 0.00003497,-0.09858512,-0.11021935,0.01222458,-0.01050443,-0.02587102,
 0.00021069,0.10571417,0.00148489,-0.00062817,-0.00097173,-0.00000345,0
 .00019483,-0.00008878,-0.00007443,0.00013514,0.00048744,0.00005656,0.0
 0008863,-0.00002776,-0.00000827,-0.00001141,-0.00000070,-0.00000300,0.
 ,-0.00001754,-0.00000751,-0.00000400,0.00004573,-0.01000402,-0.0145065
 3,0.00002050,0.00012513,0.00132210,-0.00043065,0.00195391,-0.00242167,
 0.00228527,0.00034942,0.00016785,-0.00042300,0.00011941,-0.00065743,0.
 00032151,0.00011194,-0.00039742,0.00022050,0.00011295,0.00005671,-0.00
 003370,0.00001586,0.00001934,0.00000988,-0.00002235,-0.00008575,-0.000
 05424,-0.10563522,-0.27277391,0.02621371,0.00164751,0.00485502,-0.0001
 2923,0.11463574,0.29459103,-0.00076270,0.00152764,0.00018899,-0.000454
 62,0.00040947,-0.00060910,-0.00002149,-0.00035016,-0.00043232,-0.00002
 120,-0.00008619,-0.00005577,-0.00000188,0.00001562,0.00001686,-0.00000
 027,-0.00001361,0.00002965,-0.00000198,0.00001127,-0.00005734,0.007681
 18,0.01510188,-0.00373986,0.00010941,-0.00011373,0.00100697,0.00021196
 ,0.00006967,-0.00075590,0.00018553,0.00020602,-0.00041958,-0.00042890,
 0.00104594,-0.00029083,-0.00003371,0.00009495,0.00003137,-0.00006920,-
 0.00006911,-0.00010268,-0.00001051,0.00000290,0.00000537,-0.00001485,0
 .00000288,0.00001424,0.01150853,0.02371814,-0.04849358,0.00576500,0.01
 482922,-0.00131485,-0.00988993,-0.02924910,0.04962019,-0.00243899,-0.0
 0016768,0.00084156,0.00017704,-0.00015277,-0.00034703,0.00022642,-0.00
 012753,-0.00029899,0.00003199,-0.00004845,0.00001140,0.00001508,0.0000
 2777,-0.00004469,0.00000390,0.00000467,0.00000815,-0.00000116,0.000003
 93,-0.00001576,-0.00611752,-0.00713472,-0.01977191,-0.00126520,0.00213
 546,-0.00072665,0.00181380,-0.00180071,0.00087933,0.00032260,0.0002454
 5,-0.00080407,0.00011528,0.00085252,0.00008590,-0.00001861,-0.00017129
 ,0.00016137,0.00015893,-0.00018323,0.00019497,0.00001318,0.00005024,0.
 00001183,-0.00002598,-0.00005767,-0.00001044,-0.05067554,-0.01596382,-
 0.03778723,0.00691995,0.01209864,0.02677274,-0.00276705,-0.00485507,-0
 .01375038,0.05351188,0.00309950,-0.00096369,-0.00067454,-0.00045278,-0
 .00002529,-0.00022909,-0.00018033,0.00007270,0.00008851,-0.00004594,0.
 00006561,-0.00002641,-0.00001349,-0.00001280,0.00003651,0.00000703,-0.
 00000622,-0.00000913,-0.00000503,-0.00000546,0.00002671,0.00323957,0.0
 0597491,0.02149092,0.00073516,-0.00083661,0.00054399,-0.00043668,0.001
 53984,-0.00022101,0.00009350,-0.00018558,0.00122725,-0.00023117,-0.001
 55199,0.00048000,-0.00005051,0.00020270,-0.00021853,-0.00003459,-0.000
 03135,0.00016731,0.00004834,-0.00002101,-0.00000885,-0.00003571,0.0000
 2914,0.00001299,-0.01739005,-0.08624839,-0.09936019,-0.00049527,-0.001
 49480,-0.00095726,-0.00309580,-0.00994434,-0.02715370,0.01524426,0.093
 44264,-0.00243829,-0.00040709,0.00049443,0.00044071,0.00038188,0.00026
 344,0.00018157,0.00020182,-0.00025899,0.00000591,-0.00010038,0.0001814
 0,0.00002950,0.00000669,-0.00004328,0.00000046,0.00002026,-0.00002673,
 0.00000997,0.00000017,-0.00003156,-0.00256562,-0.00543180,-0.01688704,
 -0.00028713,0.00125430,-0.00076174,0.00181881,-0.00220507,0.00234170,0
 .00057132,-0.00007489,-0.00083795,-0.00012622,0.00100446,0.00015065,-0
 .00001137,-0.00010568,0.00025972,-0.00005178,0.00019466,-0.00039808,0.
 00000534,0.00002853,0.00001544,-0.00003447,-0.00007438,-0.00002724,-0.
 04000230,-0.09615144,-0.27470594,-0.00304339,-0.00514842,-0.01200126,0
 .00090710,0.00182188,0.00535817,0.04458989,0.10478451,0.29691484\\0.00
 004964,0.00003030,0.00001439,-0.00000056,-0.00000859,-0.00001163,-0.00
 000342,-0.00000780,0.00001006,0.00000027,-0.00000054,0.00000195,-0.000
 00078,-0.00000217,-0.00000089,-0.00000033,-0.00000021,-0.00000069,-0.0
 0000112,0.00000048,0.00000022,-0.00005168,0.00000356,-0.00006726,0.000
 00210,-0.00000778,0.00002097,-0.00000843,0.00003811,-0.00000505,0.0000
 1334,-0.00001770,0.00000540,-0.00002079,-0.00002829,0.00003747,0.00000
 511,0.00000109,-0.00000197,0.00000633,0.00000191,-0.00000128,0.0000013
 9,0.00000070,-0.00000020,0.00000215,0.00000096,0.00000009,0.00001513,0
 .00000585,-0.00000354,-0.00000430,-0.00000358,0.00000403,-0.00000285,-
 0.00000227,-0.00000278,-0.00000122,-0.00000401,0.00000070\\\@


 Once you get people laughing, they're
 listening and you can tell them almost anything.
                                 -- Herb Gardner
 Job cpu time:       0 days  2 hours 54 minutes 28.5 seconds.
 Elapsed time:       0 days  0 hours  4 minutes 51.5 seconds.
 File lengths (MBytes):  RWF=    230 Int=      0 D2E=      0 Chk=     12 Scr=      1
 Normal termination of Gaussian 16 at Wed Oct 16 11:28:22 2019.
