 Entering Gaussian System, Link 0=g16
 Initial command:
 /nopt/nrel/apps/gaussian/g16B/g16/l1.exe "/dev/shm/Gau-35407.inp" -scrdir="/dev/shm/"
 Default linda workers: r6i0n0
 Default is to use  36 SMP processors on each worker.
 Entering Link 1 = /nopt/nrel/apps/gaussian/g16B/g16/l1.exe PID=     35408.
  
 Copyright (c) 1988-2017, Gaussian, Inc.  All Rights Reserved.
  
 This is part of the Gaussian(R) 16 program.  It is based on
 the Gaussian(R) 09 system (copyright 2009, Gaussian, Inc.),
 the Gaussian(R) 03 system (copyright 2003, Gaussian, Inc.),
 the Gaussian(R) 98 system (copyright 1998, Gaussian, Inc.),
 the Gaussian(R) 94 system (copyright 1995, Gaussian, Inc.),
 the Gaussian 92(TM) system (copyright 1992, Gaussian, Inc.),
 the Gaussian 90(TM) system (copyright 1990, Gaussian, Inc.),
 the Gaussian 88(TM) system (copyright 1988, Gaussian, Inc.),
 the Gaussian 86(TM) system (copyright 1986, Carnegie Mellon
 University), and the Gaussian 82(TM) system (copyright 1983,
 Carnegie Mellon University). Gaussian is a federally registered
 trademark of Gaussian, Inc.
  
 This software contains proprietary and confidential information,
 including trade secrets, belonging to Gaussian, Inc.
  
 This software is provided under written license and may be
 used, copied, transmitted, or stored only in accord with that
 written license.
  
 The following legend is applicable only to US Government
 contracts under FAR:
  
                    RESTRICTED RIGHTS LEGEND
  
 Use, reproduction and disclosure by the US Government is
 subject to restrictions as set forth in subparagraphs (a)
 and (c) of the Commercial Computer Software - Restricted
 Rights clause in FAR 52.227-19.
  
 Gaussian, Inc.
 340 Quinnipiac St., Bldg. 40, Wallingford CT 06492
  
  
 ---------------------------------------------------------------
 Warning -- This program may not be used in any manner that
 competes with the business of Gaussian, Inc. or will provide
 assistance to any competitor of Gaussian, Inc.  The licensee
 of this program is prohibited from giving any competitor of
 Gaussian, Inc. access to this program.  By using this program,
 the user acknowledges that Gaussian, Inc. is engaged in the
 business of creating and licensing software in the field of
 computational chemistry and represents and warrants to the
 licensee that it is not a competitor of Gaussian, Inc. and that
 it will not use this program in any manner prohibited above.
 ---------------------------------------------------------------
  

 Cite this work as:
 Gaussian 16, Revision B.01,
 M. J. Frisch, G. W. Trucks, H. B. Schlegel, G. E. Scuseria, 
 M. A. Robb, J. R. Cheeseman, G. Scalmani, V. Barone, 
 G. A. Petersson, H. Nakatsuji, X. Li, M. Caricato, A. V. Marenich, 
 J. Bloino, B. G. Janesko, R. Gomperts, B. Mennucci, H. P. Hratchian, 
 J. V. Ortiz, A. F. Izmaylov, J. L. Sonnenberg, D. Williams-Young, 
 F. Ding, F. Lipparini, F. Egidi, J. Goings, B. Peng, A. Petrone, 
 T. Henderson, D. Ranasinghe, V. G. Zakrzewski, J. Gao, N. Rega, 
 G. Zheng, W. Liang, M. Hada, M. Ehara, K. Toyota, R. Fukuda, 
 J. Hasegawa, M. Ishida, T. Nakajima, Y. Honda, O. Kitao, H. Nakai, 
 T. Vreven, K. Throssell, J. A. Montgomery, Jr., J. E. Peralta, 
 F. Ogliaro, M. J. Bearpark, J. J. Heyd, E. N. Brothers, K. N. Kudin, 
 V. N. Staroverov, T. A. Keith, R. Kobayashi, J. Normand, 
 K. Raghavachari, A. P. Rendell, J. C. Burant, S. S. Iyengar, 
 J. Tomasi, M. Cossi, J. M. Millam, M. Klene, C. Adamo, R. Cammi, 
 J. W. Ochterski, R. L. Martin, K. Morokuma, O. Farkas, 
 J. B. Foresman, and D. J. Fox, Gaussian, Inc., Wallingford CT, 2016.
 
 ******************************************
 Gaussian 16:  ES64L-G16RevB.01 20-Dec-2017
                28-Jun-2019 
 ******************************************
 %RWF=/dev/shm/,5GB,/tmp/scratch/920790/,-1
 %NoSave
 %OldChk=pet_mono_637.chk
 %Chk=/dev/shm/pet_mono_637_tzvp.chk
 SetLPE:    new flags="-opt 'Tsnet.Node.lindarsharg: ssh'  -nodelist 'r6i0n0.ib0.cm.hpc.nrel.gov' -env GAUSS_MDEF=9663676416 -env GAUSS_EXEDIR="/nopt/nrel/apps/gaussian/g16B/g16/bsd:/nopt/nrel/apps/gaussian/g16B/g16/local:/nopt/nrel/apps/gaussian/g16B/g16/extras:/nopt/nrel/apps/gaussian/g16B/g16""
 Will use up to    1 processors via Linda.
 Copying data from "pet_mono_637.chk" to current chk file "/dev/shm/pet_mono_637_tzvp.chk"
 IOpt=  2 FromEx=T IUOpen= 4 IOptOp= 5 NList=   0 IFRang= 0 IUIn= 4 IUOut= 2.
 Default route: CacheSize=180224 MaxDisk=256GB
 ----------------------------------------------------------------------
 # geom=allcheck guess=read m062x/Def2TZVP nosymm scf=xqc opt=ReadFC fr
 eq=NoRaman
 ----------------------------------------------------------------------
 1/4=180224,10=3,18=20,19=15,26=3,29=7,38=1/1,3;
 2/4=180224,9=110,12=2,15=1,40=1/2;
 3/4=180224,5=44,7=101,11=2,14=-4,25=1,30=1,71=1,74=-55,116=-2/1,2,3;
 4/4=180224,5=1/1;
 5/4=180224,5=2,8=3,13=1,38=6/2,8;
 6/4=180224,7=2,8=2,9=2,10=2,28=1/1;
 7/4=180224,30=1/1,2,3,16;
 1/4=180224,18=20,19=15,26=3/3(2);
 2/4=180224,9=110,15=1/2;
 99/4=180224/99;
 2/4=180224,9=110,15=1/2;
 3/4=180224,5=44,7=101,11=2,14=-2,25=1,30=1,71=1,74=-55/1,2,3;
 4/4=180224,5=5,16=3,69=1/1;
 5/4=180224,5=2,8=3,13=1,38=5/2,8;
 7/4=180224,30=1/1,2,3,16;
 1/4=180224,18=20,19=15,26=3/3(-5);
 2/4=180224,9=110,15=1/2;
 6/4=180224,7=2,8=2,9=2,10=2,19=2,28=1/1;
 99/4=180224,9=1/99;
 Structure from the checkpoint file:  "/dev/shm/pet_mono_637_tzvp.chk"
 --------------------------
 narrow results from confab
 --------------------------
 Charge =  0 Multiplicity = 1
 Redundant internal coordinates found in file.  (old form).
 O,0,4.8600212843,4.5165925001,2.6971415126
 H,0,4.3368307038,5.0910880333,2.1229274161
 C,0,-0.3955817341,2.812033324,5.3303898631
 H,0,-0.5984188371,1.9262530766,5.9312293666
 C,0,0.6141542193,2.8083060008,4.3735031796
 H,0,1.2223325605,1.9200795149,4.2070511272
 O,0,2.1695179182,4.983697367,1.912779073
 C,0,3.6325500812,2.7891299415,1.4995471074
 H,0,3.3659208081,3.4117051005,0.6330646517
 H,0,3.7034999306,1.7414010705,1.1814176321
 C,0,4.9416824664,3.2473756118,2.119431211
 H,0,5.2283474992,2.54840798,2.9196139041
 H,0,5.7205176968,3.1842119146,1.3343871887
 C,0,0.8562322411,3.9588765317,3.617061726
 C,0,1.9287042347,4.0069569094,2.576877093
 O,0,-2.4151287907,2.8742642638,7.1920377773
 C,0,-1.1607825001,3.9659825066,5.525620874
 C,0,-2.2563758157,4.0193948636,6.5400405985
 O,0,2.5732093239,2.8443382782,2.4524299057
 C,0,0.0919704092,5.1129621616,3.8147879089
 H,0,0.3083612563,5.9936359505,3.2094081829
 C,0,-0.917720494,5.1165271332,4.7687217414
 H,0,-1.531327119,6.0001769432,4.9465929076
 O,0,-2.9267113419,5.0043406184,6.7412665716
 C,0,-4.8235801292,2.9796310036,7.8314694823
 H,0,-5.4371619628,2.3550653816,8.4981938996
 H,0,-4.9218869478,2.5487794639,6.8142921138
 C,0,-3.3666203833,2.8252428746,8.2650843566
 H,0,-3.1949129621,1.8392591686,8.7115917594
 H,0,-3.1261031034,3.6065905798,9.0025794296
 O,0,-5.3183534633,4.2773500488,7.9286085832
 H,0,-4.6941870492,4.8563438834,7.4678518552
 Recover connectivity data from disk.

 GradGradGradGradGradGradGradGradGradGradGradGradGradGradGradGradGradGrad
 Berny optimization.
 Initialization pass.
 Force constant matrix read from checkpoint file:
 "/dev/shm/pet_mono_637_tzvp.chk"
                           ----------------------------
                           !    Initial Parameters    !
                           ! (Angstroms and Degrees)  !
 --------------------------                            --------------------------
 ! Name  Definition              Value          Derivative Info.                !
 --------------------------------------------------------------------------------
 ! R1    R(1,2)                  0.9662         D2E/DX2 =    0.5541             !
 ! R2    R(1,11)                 1.3969         D2E/DX2 =    0.4408             !
 ! R3    R(3,4)                  1.0894         D2E/DX2 =    0.361              !
 ! R4    R(3,5)                  1.3911         D2E/DX2 =    0.4881             !
 ! R5    R(3,17)                 1.3983         D2E/DX2 =    0.4703             !
 ! R6    R(5,6)                  1.0893         D2E/DX2 =    0.3586             !
 ! R7    R(5,14)                 1.3981         D2E/DX2 =    0.4797             !
 ! R8    R(7,15)                 1.2054         D2E/DX2 =    1.0488             !
 ! R9    R(8,9)                  1.0998         D2E/DX2 =    0.3484             !
 ! R10   R(8,10)                 1.0973         D2E/DX2 =    0.3463             !
 ! R11   R(8,11)                 1.5192         D2E/DX2 =    0.3247             !
 ! R12   R(8,19)                 1.4259         D2E/DX2 =    0.4266             !
 ! R13   R(11,12)                1.1005         D2E/DX2 =    0.3494             !
 ! R14   R(11,13)                1.1076         D2E/DX2 =    0.3448             !
 ! R15   R(14,15)                1.4948         D2E/DX2 =    0.347              !
 ! R16   R(14,20)                1.3983         D2E/DX2 =    0.4713             !
 ! R17   R(15,19)                1.3351         D2E/DX2 =    0.5731             !
 ! R18   R(16,18)                1.3273         D2E/DX2 =    0.5912             !
 ! R19   R(16,28)                1.435          D2E/DX2 =    0.4436             !
 ! R20   R(17,18)                1.4941         D2E/DX2 =    0.337              !
 ! R21   R(17,22)                1.3985         D2E/DX2 =    0.4745             !
 ! R22   R(18,24)                1.2083         D2E/DX2 =    1.0205             !
 ! R23   R(20,21)                1.0904         D2E/DX2 =    0.3594             !
 ! R24   R(20,22)                1.3891         D2E/DX2 =    0.4883             !
 ! R25   R(22,23)                1.0904         D2E/DX2 =    0.3586             !
 ! R26   R(25,26)                1.1005         D2E/DX2 =    0.3498             !
 ! R27   R(25,27)                1.109          D2E/DX2 =    0.3448             !
 ! R28   R(25,28)                1.5279         D2E/DX2 =    0.3316             !
 ! R29   R(25,31)                1.3922         D2E/DX2 =    0.4426             !
 ! R30   R(28,29)                1.0959         D2E/DX2 =    0.3517             !
 ! R31   R(28,30)                1.101          D2E/DX2 =    0.3466             !
 ! R32   R(31,32)                0.968          D2E/DX2 =    0.5567             !
 ! A1    A(2,1,11)             109.0337         D2E/DX2 =    0.1623             !
 ! A2    A(4,3,5)              120.8204         D2E/DX2 =    0.1601             !
 ! A3    A(4,3,17)             119.4797         D2E/DX2 =    0.1601             !
 ! A4    A(5,3,17)             119.6999         D2E/DX2 =    0.2501             !
 ! A5    A(3,5,6)              120.8342         D2E/DX2 =    0.1603             !
 ! A6    A(3,5,14)             119.7123         D2E/DX2 =    0.25               !
 ! A7    A(6,5,14)             119.4533         D2E/DX2 =    0.16               !
 ! A8    A(9,8,10)             109.1347         D2E/DX2 =    0.1594             !
 ! A9    A(9,8,11)             111.0778         D2E/DX2 =    0.1562             !
 ! A10   A(9,8,19)             108.9338         D2E/DX2 =    0.1678             !
 ! A11   A(10,8,11)            110.5237         D2E/DX2 =    0.1695             !
 ! A12   A(10,8,19)            106.1861         D2E/DX2 =    0.1621             !
 ! A13   A(11,8,19)            110.8445         D2E/DX2 =    0.2808             !
 ! A14   A(1,11,8)             113.1058         D2E/DX2 =    0.2887             !
 ! A15   A(1,11,12)            106.9545         D2E/DX2 =    0.1634             !
 ! A16   A(1,11,13)            112.708          D2E/DX2 =    0.162              !
 ! A17   A(8,11,12)            109.2429         D2E/DX2 =    0.163              !
 ! A18   A(8,11,13)            107.4286         D2E/DX2 =    0.1588             !
 ! A19   A(12,11,13)           107.2157         D2E/DX2 =    0.16               !
 ! A20   A(5,14,15)            121.8164         D2E/DX2 =    0.2552             !
 ! A21   A(5,14,20)            120.5378         D2E/DX2 =    0.2515             !
 ! A22   A(15,14,20)           117.6458         D2E/DX2 =    0.2504             !
 ! A23   A(7,15,14)            123.5566         D2E/DX2 =    0.2598             !
 ! A24   A(7,15,19)            123.9042         D2E/DX2 =    0.3059             !
 ! A25   A(14,15,19)           112.5315         D2E/DX2 =    0.2765             !
 ! A26   A(18,16,28)           118.4321         D2E/DX2 =    0.5481             !
 ! A27   A(3,17,18)            121.7078         D2E/DX2 =    0.2508             !
 ! A28   A(3,17,22)            120.5484         D2E/DX2 =    0.2504             !
 ! A29   A(18,17,22)           117.7438         D2E/DX2 =    0.2504             !
 ! A30   A(16,18,17)           112.9792         D2E/DX2 =    0.2608             !
 ! A31   A(16,18,24)           123.7199         D2E/DX2 =    0.3062             !
 ! A32   A(17,18,24)           123.3009         D2E/DX2 =    0.2672             !
 ! A33   A(8,19,15)            117.0414         D2E/DX2 =    0.3656             !
 ! A34   A(14,20,21)           118.6633         D2E/DX2 =    0.1602             !
 ! A35   A(14,20,22)           119.7712         D2E/DX2 =    0.2503             !
 ! A36   A(21,20,22)           121.5655         D2E/DX2 =    0.16               !
 ! A37   A(17,22,20)           119.7302         D2E/DX2 =    0.2501             !
 ! A38   A(17,22,23)           118.726          D2E/DX2 =    0.1601             !
 ! A39   A(20,22,23)           121.5437         D2E/DX2 =    0.1601             !
 ! A40   A(26,25,27)           106.6042         D2E/DX2 =    0.1556             !
 ! A41   A(26,25,28)           107.6002         D2E/DX2 =    0.1527             !
 ! A42   A(26,25,31)           106.7736         D2E/DX2 =    0.1692             !
 ! A43   A(27,25,28)           107.7917         D2E/DX2 =    0.1648             !
 ! A44   A(27,25,31)           113.2418         D2E/DX2 =    0.1517             !
 ! A45   A(28,25,31)           114.4096         D2E/DX2 =    0.2778             !
 ! A46   A(16,28,25)           114.6203         D2E/DX2 =    0.3163             !
 ! A47   A(16,28,29)           103.3862         D2E/DX2 =    0.1653             !
 ! A48   A(16,28,30)           109.3776         D2E/DX2 =    0.1497             !
 ! A49   A(25,28,29)           110.8508         D2E/DX2 =    0.1621             !
 ! A50   A(25,28,30)           109.0678         D2E/DX2 =    0.1553             !
 ! A51   A(29,28,30)           109.3501         D2E/DX2 =    0.1552             !
 ! A52   A(25,31,32)           107.1668         D2E/DX2 =    0.1716             !
 ! D1    D(2,1,11,8)           -40.8462         D2E/DX2 =    0.0129             !
 ! D2    D(2,1,11,12)         -161.1557         D2E/DX2 =    0.0144             !
 ! D3    D(2,1,11,13)           81.2638         D2E/DX2 =    0.0146             !
 ! D4    D(4,3,5,6)             -0.0644         D2E/DX2 =    0.023              !
 ! D5    D(4,3,5,14)          -179.8799         D2E/DX2 =    0.0231             !
 ! D6    D(17,3,5,6)           179.9143         D2E/DX2 =    0.0231             !
 ! D7    D(17,3,5,14)            0.0987         D2E/DX2 =    0.0231             !
 ! D8    D(4,3,17,18)           -0.0553         D2E/DX2 =    0.0219             !
 ! D9    D(4,3,17,22)          179.8642         D2E/DX2 =    0.0219             !
 ! D10   D(5,3,17,18)          179.9658         D2E/DX2 =    0.022              !
 ! D11   D(5,3,17,22)           -0.1148         D2E/DX2 =    0.0219             !
 ! D12   D(3,5,14,15)         -179.9992         D2E/DX2 =    0.0221             !
 ! D13   D(3,5,14,20)            0.0134         D2E/DX2 =    0.0221             !
 ! D14   D(6,5,14,15)            0.1827         D2E/DX2 =    0.0221             !
 ! D15   D(6,5,14,20)         -179.8048         D2E/DX2 =    0.0221             !
 ! D16   D(9,8,11,1)            66.3838         D2E/DX2 =    0.0092             !
 ! D17   D(9,8,11,12)         -174.6207         D2E/DX2 =    0.0118             !
 ! D18   D(9,8,11,13)          -58.6344         D2E/DX2 =    0.0068             !
 ! D19   D(10,8,11,1)         -172.3249         D2E/DX2 =    0.0074             !
 ! D20   D(10,8,11,12)         -53.3294         D2E/DX2 =    0.0062             !
 ! D21   D(10,8,11,13)          62.6568         D2E/DX2 =    0.006              !
 ! D22   D(19,8,11,1)          -54.8711         D2E/DX2 =    0.014              !
 ! D23   D(19,8,11,12)          64.1244         D2E/DX2 =    0.0071             !
 ! D24   D(19,8,11,13)        -179.8894         D2E/DX2 =    0.0109             !
 ! D25   D(9,8,19,15)          -35.7118         D2E/DX2 =    0.0155             !
 ! D26   D(10,8,19,15)        -153.1257         D2E/DX2 =    0.0267             !
 ! D27   D(11,8,19,15)          86.7982         D2E/DX2 =    0.0505             !
 ! D28   D(5,14,15,7)         -179.5454         D2E/DX2 =    0.0179             !
 ! D29   D(5,14,15,19)           1.4297         D2E/DX2 =    0.0195             !
 ! D30   D(20,14,15,7)           0.4425         D2E/DX2 =    0.0187             !
 ! D31   D(20,14,15,19)       -178.5825         D2E/DX2 =    0.0188             !
 ! D32   D(5,14,20,21)         179.87           D2E/DX2 =    0.022              !
 ! D33   D(5,14,20,22)          -0.111          D2E/DX2 =    0.0221             !
 ! D34   D(15,14,20,21)         -0.118          D2E/DX2 =    0.022              !
 ! D35   D(15,14,20,22)        179.901          D2E/DX2 =    0.0221             !
 ! D36   D(7,15,19,8)            1.9614         D2E/DX2 =    0.0415             !
 ! D37   D(14,15,19,8)        -179.0176         D2E/DX2 =    0.0304             !
 ! D38   D(28,16,18,17)        175.2746         D2E/DX2 =    0.032              !
 ! D39   D(28,16,18,24)         -4.8166         D2E/DX2 =    0.0395             !
 ! D40   D(18,16,28,25)         67.1151         D2E/DX2 =    0.0467             !
 ! D41   D(18,16,28,29)       -172.1196         D2E/DX2 =    0.023              !
 ! D42   D(18,16,28,30)        -55.7125         D2E/DX2 =    0.0129             !
 ! D43   D(3,17,18,16)          -0.8043         D2E/DX2 =    0.019              !
 ! D44   D(3,17,18,24)         179.2864         D2E/DX2 =    0.0188             !
 ! D45   D(22,17,18,16)        179.274          D2E/DX2 =    0.0182             !
 ! D46   D(22,17,18,24)         -0.6353         D2E/DX2 =    0.0196             !
 ! D47   D(3,17,22,20)           0.0172         D2E/DX2 =    0.0221             !
 ! D48   D(3,17,22,23)        -179.9082         D2E/DX2 =    0.022              !
 ! D49   D(18,17,22,20)        179.9398         D2E/DX2 =    0.0221             !
 ! D50   D(18,17,22,23)          0.0144         D2E/DX2 =    0.0221             !
 ! D51   D(14,20,22,17)          0.095          D2E/DX2 =    0.0232             !
 ! D52   D(14,20,22,23)       -179.9817         D2E/DX2 =    0.0231             !
 ! D53   D(21,20,22,17)       -179.8854         D2E/DX2 =    0.0231             !
 ! D54   D(21,20,22,23)          0.0379         D2E/DX2 =    0.0231             !
 ! D55   D(26,25,28,16)        145.7359         D2E/DX2 =    0.017              !
 ! D56   D(26,25,28,29)         29.181          D2E/DX2 =    0.0083             !
 ! D57   D(26,25,28,30)        -91.2695         D2E/DX2 =    0.0066             !
 ! D58   D(27,25,28,16)         31.1128         D2E/DX2 =    0.0103             !
 ! D59   D(27,25,28,29)        -85.4422         D2E/DX2 =    0.0071             !
 ! D60   D(27,25,28,30)        154.1074         D2E/DX2 =    0.0113             !
 ! D61   D(31,25,28,16)        -95.8106         D2E/DX2 =    0.0298             !
 ! D62   D(31,25,28,29)        147.6344         D2E/DX2 =    0.0113             !
 ! D63   D(31,25,28,30)         27.184          D2E/DX2 =    0.0074             !
 ! D64   D(26,25,31,32)        170.4488         D2E/DX2 =    0.0184             !
 ! D65   D(27,25,31,32)        -72.5336         D2E/DX2 =    0.0167             !
 ! D66   D(28,25,31,32)         51.5281         D2E/DX2 =    0.0175             !
 --------------------------------------------------------------------------------
 Trust Radius=3.00D-01 FncErr=1.00D-07 GrdErr=1.00D-06 EigMax=2.50D+02 EigMin=1.00D-04
 Number of steps in this run=    160 maximum allowed number of steps=    192.
 GradGradGradGradGradGradGradGradGradGradGradGradGradGradGradGradGradGrad

                          Input orientation:                          
 ---------------------------------------------------------------------
 Center     Atomic      Atomic             Coordinates (Angstroms)
 Number     Number       Type             X           Y           Z
 ---------------------------------------------------------------------
      1          8           0        4.860021    4.516593    2.697142
      2          1           0        4.336831    5.091088    2.122927
      3          6           0       -0.395582    2.812033    5.330390
      4          1           0       -0.598419    1.926253    5.931229
      5          6           0        0.614154    2.808306    4.373503
      6          1           0        1.222333    1.920080    4.207051
      7          8           0        2.169518    4.983697    1.912779
      8          6           0        3.632550    2.789130    1.499547
      9          1           0        3.365921    3.411705    0.633065
     10          1           0        3.703500    1.741401    1.181418
     11          6           0        4.941682    3.247376    2.119431
     12          1           0        5.228347    2.548408    2.919614
     13          1           0        5.720518    3.184212    1.334387
     14          6           0        0.856232    3.958877    3.617062
     15          6           0        1.928704    4.006957    2.576877
     16          8           0       -2.415129    2.874264    7.192038
     17          6           0       -1.160783    3.965983    5.525621
     18          6           0       -2.256376    4.019395    6.540041
     19          8           0        2.573209    2.844338    2.452430
     20          6           0        0.091970    5.112962    3.814788
     21          1           0        0.308361    5.993636    3.209408
     22          6           0       -0.917720    5.116527    4.768722
     23          1           0       -1.531327    6.000177    4.946593
     24          8           0       -2.926711    5.004341    6.741267
     25          6           0       -4.823580    2.979631    7.831469
     26          1           0       -5.437162    2.355065    8.498194
     27          1           0       -4.921887    2.548779    6.814292
     28          6           0       -3.366620    2.825243    8.265084
     29          1           0       -3.194913    1.839259    8.711592
     30          1           0       -3.126103    3.606591    9.002579
     31          8           0       -5.318353    4.277350    7.928609
     32          1           0       -4.694187    4.856344    7.467852
 ---------------------------------------------------------------------
                    Distance matrix (angstroms):
                    1          2          3          4          5
     1  O    0.000000
     2  H    0.966176   0.000000
     3  C    6.120530   6.154481   0.000000
     4  H    6.853010   6.991140   1.089384   0.000000
     5  C    4.873994   4.912688   1.391119   2.162143   0.000000
     6  H    4.717466   4.909070   2.162202   2.507581   1.089281
     7  O    2.841165   2.180124   4.793321   5.758245   3.634095
     8  C    2.434141   2.486690   5.558932   6.187525   4.167818
     9  H    2.777323   2.445953   6.047592   6.781822   4.682648
    10  H    3.366994   3.536658   5.929814   6.411036   4.568561
    11  C    1.396900   1.940395   6.243890   6.853313   4.899094
    12  H    2.014673   2.809757   6.124534   6.588483   4.844803
    13  H    2.091122   2.484464   7.315274   7.914694   5.954198
    14  C    4.145796   3.953341   2.412008   3.406309   1.398077
    15  C    2.977719   2.679642   3.796311   4.686935   2.528373
    16  O    8.707993   8.729212   2.747394   2.405992   4.138242
    17  C    6.674844   6.562617   1.398301   2.154360   2.412051
    18  C    8.102974   8.008108   2.526565   2.738743   3.794807
    19  O    2.843559   2.875207   4.134902   4.796264   2.744033
    20  C    4.933467   4.569651   2.798040   3.887297   2.428225
    21  H    4.812659   4.268911   3.888019   4.977365   3.405136
    22  C    6.167144   5.883127   2.428743   3.410458   2.798343
    23  H    6.936165   6.575318   3.406094   4.293796   3.888388
    24  O    8.787835   8.607882   3.633649   3.943568   4.792348
    25  C   11.067778  10.998128   5.088286   4.751053   6.446382
    26  H   12.014840  11.985857   5.971711   5.494235   7.337365
    27  H   10.793931  10.686257   4.770609   4.456424   6.055787
    28  C   10.076720  10.109565   4.176084   3.730684   5.566979
    29  H   10.403062  10.521979   4.496117   3.805229   5.853807
    30  H   10.215911  10.258105   4.644571   4.318091   6.004592
    31  O   11.446606  11.295605   5.756003   5.638702   7.070468
    32  H   10.684475  10.496790   5.217850   5.265165   6.476723
                    6          7          8          9         10
     6  H    0.000000
     7  O    3.942918   0.000000
     8  C    3.727596   2.669710   0.000000
     9  H    4.426432   2.353765   1.099765   0.000000
    10  H    3.916960   3.660666   1.097258   1.790130   0.000000
    11  C    4.466927   3.277562   1.519234   2.172398   2.163544
    12  H    4.254462   4.037424   2.149676   3.072820   2.449030
    13  H    5.484879   4.022721   2.131426   2.467333   2.484646
    14  C    2.153790   2.383182   3.682406   3.937280   4.353905
    15  C    2.740709   1.205421   2.355172   2.489643   3.198429
    16  O    4.801223   7.303374   8.305788   8.759538   8.651506
    17  C    3.406403   5.017895   6.369481   6.688451   6.890726
    18  C    4.685230   6.475335   7.848540   8.177522   8.332119
    19  O    2.399545   2.243000   1.425916   2.064070   2.027190
    20  C    3.409705   2.819672   4.826618   4.872001   5.598679
    21  H    4.292377   2.482967   4.923689   4.759473   5.806997
    22  C    3.887490   4.207742   6.067062   6.193518   6.753955
    23  H    4.977626   4.892189   6.989891   7.020666   7.727686
    24  O    5.757558   7.020418   8.683703   8.913127   9.247616
    25  C    7.128262   9.378198  10.565778  10.911995  10.884278
    26  H    7.934229  10.398989  11.464255  11.852047  11.724483
    27  H    6.704059   8.957772  10.073861  10.374968  10.333365
    28  C    6.192370   8.698249   9.734587  10.194056  10.066760
    29  H    6.309475   9.213494   9.976477  10.525195  10.212796
    30  H    6.689567   8.955741  10.131295  10.594014  10.549549
    31  O    7.885892   9.631062  11.120535  11.375013  11.547704
    32  H    7.366117   8.830940  10.451248  10.666144  10.942727
                   11         12         13         14         15
    11  C    0.000000
    12  H    1.100466   0.000000
    13  H    1.107641   1.777476   0.000000
    14  C    4.409085   4.646638   5.428810   0.000000
    15  C    3.140742   3.623876   4.074131   1.494822   0.000000
    16  O    8.943893   8.762563  10.029800   4.965747   6.438291
    17  C    7.025568   7.044272   8.095054   2.776868   4.271030
    18  C    8.482325   8.443481   9.561757   4.270339   5.763828
    19  O    2.425488   2.712120   3.357243   2.355116   1.335124
    20  C    5.465744   5.810391   6.446162   1.398251   2.475735
    21  H    5.495240   6.013305   6.379656   2.146297   2.640549
    22  C    6.696646   6.912929   7.719761   2.411096   3.759982
    23  H    7.580937   7.855988   8.577117   3.411012   4.643307
    24  O    9.293003   9.334968  10.359623   5.016404   6.473946
    25  C   11.316334  11.196139  12.386764   7.140058   8.617394
    26  H   12.214960  12.037900  13.285384   8.124314   9.594098
    27  H   10.946221  10.871788  11.987239   6.752579   8.186120
    28  C   10.342879  10.125422  11.434138   6.381358   7.860828
    29  H   10.566152  10.247010  11.649762   6.845348   8.281612
    30  H   10.611123  10.388410  11.715045   6.707228   8.185415
    31  O   11.835359  11.803058  12.904859   7.537663   9.012990
    32  H   11.137521  11.156600  12.201700   6.814777   8.276822
                   16         17         18         19         20
    16  O    0.000000
    17  C    2.354183   0.000000
    18  C    1.327263   1.494063   0.000000
    19  O    6.881010   4.964402   6.435387   0.000000
    20  C    4.764780   2.410789   3.760003   3.627564   0.000000
    21  H    5.745365   3.410953   4.644202   3.952294   1.090365
    22  C    3.625250   1.398474   2.476544   4.765988   1.389057
    23  H    3.948982   2.147213   2.643533   5.746946   2.168693
    24  O    2.236546   2.382118   1.208288   7.301291   4.205772
    25  C    2.494116   4.439134   3.056049   9.146850   6.696825
    26  H    3.332911   5.451483   4.089225  10.047721   7.753167
    27  H    2.555869   4.220787   3.056611   8.676962   6.380503
    28  C    1.434980   3.697522   2.373693   8.310770   6.082816
    29  H    1.997084   4.337171   3.217060   8.570795   6.745326
    30  H    2.078424   4.010098   2.644037   8.715942   6.287951
    31  O    3.307552   4.812140   3.371998   9.711788   6.847874
    32  H    3.032956   4.129159   2.739387   9.056361   6.026444
                   21         22         23         24         25
    21  H    0.000000
    22  C    2.168883   0.000000
    23  H    2.530278   1.090407   0.000000
    24  O    4.890647   2.817723   2.481862   0.000000
    25  C    7.535549   5.403933   5.318378   2.980957   0.000000
    26  H    8.615189   6.477653   6.415314   4.050656   1.100494
    27  H    7.226183   5.177937   5.186168   3.164781   1.109030
    28  C    7.007429   4.844754   4.945796   2.695182   1.527936
    29  H    7.733421   5.610019   5.852860   3.737894   2.174309
    30  H    7.145234   5.008235   4.972282   2.665895   2.155459
    31  O    7.541645   5.482214   5.118800   2.767354   1.392233
    32  H    6.667328   4.649161   4.203425   1.916716   1.915988
                   26         27         28         29         30
    26  H    0.000000
    27  H    1.771598   0.000000
    28  C    2.136012   2.144781   0.000000
    29  H    2.310687   2.661880   1.095909   0.000000
    30  H    2.676138   3.021987   1.101023   1.792448   0.000000
    31  O    2.008413   2.094479   2.455828   3.326612   2.531658
    32  H    2.805354   2.409116   2.554092   3.591311   2.525106
                   31         32
    31  O    0.000000
    32  H    0.968047   0.000000
 Symmetry turned off by external request.
 Stoichiometry    C12H14O6
 Framework group  C1[X(C12H14O6)]
 Deg. of freedom    90
 Full point group                 C1      NOp   1
 Rotational constants (GHZ):           1.5652503           0.1343591           0.1288662
 Standard basis: def2TZVP (5D, 7F)
   642 basis functions,  1030 primitive gaussians,   732 cartesian basis functions
    67 alpha electrons       67 beta electrons
       nuclear repulsion energy      1279.6592296767 Hartrees.
 NAtoms=   32 NActive=   32 NUniq=   32 SFac= 1.00D+00 NAtFMM=   60 NAOKFM=F Big=F
 Integral buffers will be    131072 words long.
 Raffenetti 2 integral format.
 Two-electron integral symmetry is turned off.
 One-electron integrals computed using PRISM.
   1 Symmetry operations used in ECPInt.
 ECPInt:  NShTT=   32385 NPrTT=   99228 LenC2=   26206 LenP2D=   57706.
 LDataN:  DoStor=T MaxTD1= 6 Len=  172
 NBasis=   642 RedAO= T EigKep=  7.55D-06  NBF=   642
 NBsUse=   642 1.00D-06 EigRej= -1.00D+00 NBFU=   642
 Initial guess from the checkpoint file:  "/dev/shm/pet_mono_637_tzvp.chk"
 B after Tr=     0.000000    0.000000    0.000000
         Rot=    1.000000    0.000000    0.000000    0.000000 Ang=   0.00 deg.
 Requested convergence on RMS density matrix=1.00D-08 within  32 cycles.
 Requested convergence on MAX density matrix=1.00D-06.
 Requested convergence on             energy=1.00D-06.
 No special actions if energy rises.
 SCF Done:  E(RM062X) =  -917.070126966     A.U. after   12 cycles
            NFock= 12  Conv=0.44D-08     -V/T= 2.0047
 QCSCF skips out because SCF is already converged.

 **********************************************************************

            Population analysis using the SCF Density.

 **********************************************************************

 Alpha  occ. eigenvalues --  -19.69134 -19.68977 -19.63771 -19.63197 -19.62673
 Alpha  occ. eigenvalues --  -19.61058 -10.69660 -10.69298 -10.61058 -10.60894
 ...
 Alpha virt. eigenvalues --   22.96470  23.35128  23.51396  23.63852  43.94734
 Alpha virt. eigenvalues --   43.96317  44.07525  44.10843  44.35854  44.43374
          Condensed to atoms (all electrons):
               1          2          3          4          5          6
     1  O    8.019006   0.302764   0.000075   0.000000  -0.000452  -0.000098
     2  H    0.302764   0.393241  -0.000022  -0.000000  -0.000138   0.000012
     3  C    0.000075  -0.000022   5.031003   0.403102   0.457860  -0.036230
     4  H    0.000000  -0.000000   0.403102   0.471788  -0.034556  -0.003261
     5  C   -0.000452  -0.000138   0.457860  -0.034556   5.045143   0.403279
     6  H   -0.000098   0.000012  -0.036230  -0.003261   0.403279   0.472905
     7  O   -0.020146   0.013437   0.000180   0.000004   0.004919   0.000349
     8  C   -0.055152   0.011605  -0.000476  -0.000004  -0.000756   0.000152
     9  H   -0.003669   0.002903  -0.000007  -0.000001   0.000758   0.000225
    10  H    0.005997   0.000451  -0.000033   0.000000  -0.000709  -0.000195
    11  C    0.267043  -0.043564   0.000022   0.000000   0.000432  -0.000107
    12  H   -0.038693   0.009945  -0.000009  -0.000001   0.000175   0.000217
    13  H   -0.045070  -0.007616   0.000002   0.000000  -0.000019  -0.000003
    14  C   -0.001494   0.000397  -0.031973   0.004927   0.427618  -0.020579
    15  C    0.034950  -0.016492   0.006596  -0.000048  -0.051290  -0.012245
    16  O    0.000000  -0.000000   0.031118   0.014415   0.000987  -0.000067
    17  C   -0.000010   0.000009   0.448896  -0.019762  -0.037464   0.005035
    18  C   -0.000000   0.000000  -0.059115  -0.011879   0.006589  -0.000127
    19  O    0.001866  -0.000772   0.000012  -0.000074   0.030180   0.016010
    20  C    0.000036   0.000227  -0.038486  -0.000981  -0.055148   0.006121
    21  H   -0.000065   0.000098  -0.000879   0.000052   0.007282  -0.000169
    22  C    0.000007  -0.000034  -0.057452   0.005444  -0.043020  -0.001066
    23  H    0.000000  -0.000000   0.006636  -0.000185  -0.000818   0.000051
    24  O    0.000000  -0.000000   0.004079   0.000296   0.000313   0.000005
    25  C   -0.000000   0.000000   0.000341   0.000025   0.000047   0.000000
    26  H   -0.000000   0.000000  -0.000048  -0.000000  -0.000001   0.000000
    27  H    0.000000  -0.000000   0.000575   0.000090  -0.000004  -0.000000
    28  C   -0.000000  -0.000000  -0.000151   0.000028  -0.000233  -0.000004
    29  H   -0.000000  -0.000000  -0.000898  -0.000268  -0.000100   0.000000
    30  H    0.000000   0.000000   0.000740   0.000130   0.000016  -0.000000
    31  O    0.000000  -0.000000  -0.000089  -0.000001  -0.000002   0.000000
    32  H   -0.000000   0.000000  -0.000145  -0.000007  -0.000000  -0.000000
               7          8          9         10         11         12
     1  O   -0.020146  -0.055152  -0.003669   0.005997   0.267043  -0.038693
     2  H    0.013437   0.011605   0.002903   0.000451  -0.043564   0.009945
     3  C    0.000180  -0.000476  -0.000007  -0.000033   0.000022  -0.000009
     4  H    0.000004  -0.000004  -0.000001   0.000000   0.000000  -0.000001
     5  C    0.004919  -0.000756   0.000758  -0.000709   0.000432   0.000175
     6  H    0.000349   0.000152   0.000225  -0.000195  -0.000107   0.000217
     7  O    7.955465   0.019356   0.003873   0.001654  -0.010071   0.000072
     8  C    0.019356   5.125816   0.443833   0.388297   0.312161  -0.032411
     9  H    0.003873   0.443833   0.501883  -0.018693  -0.058368   0.007740
    10  H    0.001654   0.388297  -0.018693   0.535247  -0.036155  -0.002783
    11  C   -0.010071   0.312161  -0.058368  -0.036155   4.791241   0.398779
    12  H    0.000072  -0.032411   0.007740  -0.002783   0.398779   0.579268
    13  H   -0.000406  -0.073729  -0.004772   0.003298   0.434606  -0.043220
    14  C   -0.137957   0.011644  -0.001810   0.002807  -0.002515  -0.000749
    15  C    0.597665  -0.073336  -0.023680   0.002756  -0.000887  -0.008281
    16  O    0.000000   0.000000   0.000000  -0.000000  -0.000000   0.000000
    17  C   -0.000140   0.000085   0.000008   0.000002  -0.000008   0.000003
    18  C   -0.000020   0.000000  -0.000000   0.000000  -0.000000  -0.000000
    19  O   -0.083217   0.156188  -0.033793  -0.029053  -0.025282   0.002399
    20  C    0.027045  -0.001217  -0.000140   0.000085   0.000005   0.000042
    21  H    0.013765  -0.000036   0.000024   0.000001  -0.000006   0.000004
    22  C    0.001789  -0.000187  -0.000028  -0.000005   0.000024  -0.000008
    23  H   -0.000049  -0.000000  -0.000000   0.000000   0.000000  -0.000000
    24  O    0.000000  -0.000000  -0.000000  -0.000000   0.000000   0.000000
    25  C   -0.000000   0.000000  -0.000000   0.000000  -0.000000   0.000000
    26  H   -0.000000   0.000000   0.000000   0.000000  -0.000000  -0.000000
    27  H    0.000000  -0.000000   0.000000  -0.000000   0.000000   0.000000
    28  C   -0.000000  -0.000000   0.000000  -0.000000   0.000000  -0.000000
    29  H   -0.000000  -0.000000   0.000000   0.000000   0.000000  -0.000000
    30  H    0.000000  -0.000000   0.000000  -0.000000   0.000000   0.000000
    31  O   -0.000000   0.000000  -0.000000   0.000000  -0.000000  -0.000000
    32  H   -0.000000  -0.000000  -0.000000   0.000000   0.000000  -0.000000
              13         14         15         16         17         18
     1  O   -0.045070  -0.001494   0.034950   0.000000  -0.000010  -0.000000
     2  H   -0.007616   0.000397  -0.016492  -0.000000   0.000009   0.000000
     3  C    0.000002  -0.031973   0.006596   0.031118   0.448896  -0.059115
     4  H    0.000000   0.004927  -0.000048   0.014415  -0.019762  -0.011879
     5  C   -0.000019   0.427618  -0.051290   0.000987  -0.037464   0.006589
     6  H   -0.000003  -0.020579  -0.012245  -0.000067   0.005035  -0.000127
     7  O   -0.000406  -0.137957   0.597665   0.000000  -0.000140  -0.000020
     8  C   -0.073729   0.011644  -0.073336   0.000000   0.000085   0.000000
     9  H   -0.004772  -0.001810  -0.023680   0.000000   0.000008  -0.000000
    10  H    0.003298   0.002807   0.002756  -0.000000   0.000002   0.000000
    11  C    0.434606  -0.002515  -0.000887  -0.000000  -0.000008  -0.000000
    12  H   -0.043220  -0.000749  -0.008281   0.000000   0.000003  -0.000000
    13  H    0.608824   0.000001   0.004765   0.000000  -0.000000  -0.000000
    14  C    0.000001   5.241927   0.293354   0.000208  -0.051793  -0.002554
    15  C    0.004765   0.293354   4.522335  -0.000008  -0.001051  -0.000974
    16  O    0.000000   0.000208  -0.000008   7.968371  -0.150682   0.388497
    17  C   -0.000000  -0.051793  -0.001051  -0.150682   5.198494   0.307963
    18  C   -0.000000  -0.002554  -0.000974   0.388497   0.307963   4.506291
    19  O    0.005453  -0.154207   0.385953   0.000000   0.000336  -0.000007
    20  C    0.000002   0.432252  -0.048493  -0.000129  -0.036912   0.000219
    21  H   -0.000002  -0.018388  -0.011878   0.000003   0.003969  -0.000147
    22  C    0.000000  -0.030901  -0.001843   0.004276   0.452121  -0.048577
    23  H   -0.000000   0.004143  -0.000203   0.000533  -0.017314  -0.012000
    24  O    0.000000  -0.000033  -0.000014  -0.086641  -0.133379   0.560644
    25  C   -0.000000  -0.000002   0.000000  -0.042487  -0.002852   0.006534
    26  H   -0.000000   0.000000   0.000000   0.003851   0.000425   0.001771
    27  H    0.000000   0.000002  -0.000000   0.005288  -0.003599  -0.004137
    28  C   -0.000000   0.000007  -0.000001   0.190495   0.007122  -0.055489
    29  H   -0.000000   0.000002   0.000000  -0.035613   0.001507   0.002731
    30  H    0.000000   0.000001  -0.000000  -0.032885  -0.001479  -0.009047
    31  O    0.000000   0.000000   0.000000   0.003675   0.000936  -0.001297
    32  H   -0.000000   0.000001   0.000000   0.000965   0.000863  -0.001685
              19         20         21         22         23         24
     1  O    0.001866   0.000036  -0.000065   0.000007   0.000000   0.000000
     2  H   -0.000772   0.000227   0.000098  -0.000034  -0.000000  -0.000000
     3  C    0.000012  -0.038486  -0.000879  -0.057452   0.006636   0.004079
     4  H   -0.000074  -0.000981   0.000052   0.005444  -0.000185   0.000296
     5  C    0.030180  -0.055148   0.007282  -0.043020  -0.000818   0.000313
     6  H    0.016010   0.006121  -0.000169  -0.001066   0.000051   0.000005
     7  O   -0.083217   0.027045   0.013765   0.001789  -0.000049   0.000000
     8  C    0.156188  -0.001217  -0.000036  -0.000187  -0.000000  -0.000000
     9  H   -0.033793  -0.000140   0.000024  -0.000028  -0.000000  -0.000000
    10  H   -0.029053   0.000085   0.000001  -0.000005   0.000000  -0.000000
    11  C   -0.025282   0.000005  -0.000006   0.000024   0.000000   0.000000
    12  H    0.002399   0.000042   0.000004  -0.000008  -0.000000   0.000000
    13  H    0.005453   0.000002  -0.000002   0.000000  -0.000000   0.000000
    14  C   -0.154207   0.432252  -0.018388  -0.030901   0.004143  -0.000033
    15  C    0.385953  -0.048493  -0.011878  -0.001843  -0.000203  -0.000014
    16  O    0.000000  -0.000129   0.000003   0.004276   0.000533  -0.086641
    17  C    0.000336  -0.036912   0.003969   0.452121  -0.017314  -0.133379
    18  C   -0.000007   0.000219  -0.000147  -0.048577  -0.012000   0.560644
    19  O    7.983175   0.006339   0.000656  -0.000266   0.000003   0.000000
    20  C    0.006339   5.025622   0.400802   0.473372  -0.033410   0.001133
    21  H    0.000656   0.400802   0.456717  -0.033306  -0.002157  -0.000049
    22  C   -0.000266   0.473372  -0.033306   5.008650   0.401936   0.024567
    23  H    0.000003  -0.033410  -0.002157   0.401936   0.456144   0.012757
    24  O    0.000000   0.001133  -0.000049   0.024567   0.012757   8.014087
    25  C    0.000000   0.000002   0.000000   0.000098   0.000020   0.014396
    26  H   -0.000000   0.000000  -0.000000   0.000005  -0.000000   0.000332
    27  H    0.000000  -0.000011  -0.000000  -0.000015   0.000002  -0.003662
    28  C    0.000000   0.000010   0.000000  -0.002110  -0.000135   0.025168
    29  H   -0.000000  -0.000005   0.000000   0.000129   0.000001   0.000864
    30  H    0.000000  -0.000006  -0.000000  -0.000198  -0.000005  -0.000005
    31  O    0.000000  -0.000000  -0.000000   0.000136   0.000013  -0.027835
    32  H   -0.000000   0.000011  -0.000000   0.000221   0.000046   0.014801
              25         26         27         28         29         30
     1  O   -0.000000  -0.000000   0.000000  -0.000000  -0.000000   0.000000
     2  H    0.000000   0.000000  -0.000000  -0.000000  -0.000000   0.000000
     3  C    0.000341  -0.000048   0.000575  -0.000151  -0.000898   0.000740
     4  H    0.000025  -0.000000   0.000090   0.000028  -0.000268   0.000130
     5  C    0.000047  -0.000001  -0.000004  -0.000233  -0.000100   0.000016
     6  H    0.000000   0.000000  -0.000000  -0.000004   0.000000  -0.000000
     7  O   -0.000000  -0.000000   0.000000  -0.000000  -0.000000   0.000000
     8  C    0.000000   0.000000  -0.000000  -0.000000  -0.000000  -0.000000
     9  H   -0.000000   0.000000   0.000000   0.000000   0.000000   0.000000
    10  H    0.000000   0.000000  -0.000000  -0.000000   0.000000  -0.000000
    11  C   -0.000000  -0.000000   0.000000   0.000000   0.000000   0.000000
    12  H    0.000000  -0.000000   0.000000  -0.000000  -0.000000   0.000000
    13  H   -0.000000  -0.000000   0.000000  -0.000000  -0.000000   0.000000
    14  C   -0.000002   0.000000   0.000002   0.000007   0.000002   0.000001
    15  C    0.000000   0.000000  -0.000000  -0.000001   0.000000  -0.000000
    16  O   -0.042487   0.003851   0.005288   0.190495  -0.035613  -0.032885
    17  C   -0.002852   0.000425  -0.003599   0.007122   0.001507  -0.001479
    18  C    0.006534   0.001771  -0.004137  -0.055489   0.002731  -0.009047
    19  O    0.000000  -0.000000   0.000000   0.000000  -0.000000   0.000000
    20  C    0.000002   0.000000  -0.000011   0.000010  -0.000005  -0.000006
    21  H    0.000000  -0.000000  -0.000000   0.000000   0.000000  -0.000000
    22  C    0.000098   0.000005  -0.000015  -0.002110   0.000129  -0.000198
    23  H    0.000020  -0.000000   0.000002  -0.000135   0.000001  -0.000005
    24  O    0.014396   0.000332  -0.003662   0.025168   0.000864  -0.000005
    25  C    4.939331   0.399659   0.409648   0.253578  -0.038853  -0.064294
    26  H    0.399659   0.576905  -0.039488  -0.037624  -0.006688  -0.000445
    27  H    0.409648  -0.039488   0.605771  -0.061932   0.008001   0.009613
    28  C    0.253578  -0.037624  -0.061932   5.077131   0.379832   0.439866
    29  H   -0.038853  -0.006688   0.008001   0.379832   0.558076  -0.019545
    30  H   -0.064294  -0.000445   0.009613   0.439866  -0.019545   0.505541
    31  O    0.248853  -0.037855  -0.047157  -0.034065   0.007774   0.000082
    32  H   -0.044109   0.008669  -0.004733  -0.002080  -0.000249  -0.000271
              31         32
     1  O    0.000000  -0.000000
     2  H   -0.000000   0.000000
     3  C   -0.000089  -0.000145
     4  H   -0.000001  -0.000007
     5  C   -0.000002  -0.000000
     6  H    0.000000  -0.000000
     7  O   -0.000000  -0.000000
     8  C    0.000000  -0.000000
     9  H   -0.000000  -0.000000
    10  H    0.000000   0.000000
    11  C   -0.000000   0.000000
    12  H   -0.000000  -0.000000
    13  H    0.000000  -0.000000
    14  C    0.000000   0.000001
    15  C    0.000000   0.000000
    16  O    0.003675   0.000965
    17  C    0.000936   0.000863
    18  C   -0.001297  -0.001685
    19  O    0.000000  -0.000000
    20  C   -0.000000   0.000011
    21  H   -0.000000  -0.000000
    22  C    0.000136   0.000221
    23  H    0.000013   0.000046
    24  O   -0.027835   0.014801
    25  C    0.248853  -0.044109
    26  H   -0.037855   0.008669
    27  H   -0.047157  -0.004733
    28  C   -0.034065  -0.002080
    29  H    0.007774  -0.000249
    30  H    0.000082  -0.000271
    31  O    8.041580   0.317733
    32  H    0.317733   0.360514
 Mulliken charges:
               1
     1  O   -0.466897
     2  H    0.333548
     3  C   -0.165225
     4  H    0.170726
     5  C   -0.160888
     6  H    0.169790
     7  O   -0.387568
     8  C   -0.231833
     9  H    0.183715
    10  H    0.147029
    11  C   -0.027351
    12  H    0.127512
    13  H    0.117886
    14  C    0.035662
    15  C    0.402350
    16  O   -0.264170
    17  C    0.028670
    18  C    0.425816
    19  O   -0.261897
    20  C   -0.158387
    21  H    0.183710
    22  C   -0.153760
    23  H    0.183990
    24  O   -0.421823
    25  C   -0.079936
    26  H    0.130532
    27  H    0.125747
    28  C   -0.179413
    29  H    0.143301
    30  H    0.172191
    31  O   -0.472483
    32  H    0.349456
 Sum of Mulliken charges =  -0.00000
 Mulliken charges with hydrogens summed into heavy atoms:
               1
     1  O   -0.133349
     3  C    0.005502
     5  C    0.008902
     7  O   -0.387568
     8  C    0.098911
    11  C    0.218047
    14  C    0.035662
    15  C    0.402350
    16  O   -0.264170
    17  C    0.028670
    18  C    0.425816
    19  O   -0.261897
    20  C    0.025322
    22  C    0.030230
    24  O   -0.421823
    25  C    0.176343
    28  C    0.136079
    31  O   -0.123027
 Electronic spatial extent (au):  <R**2>=          25620.6468
 Charge=             -0.0000 electrons
 Dipole moment (field-independent basis, Debye):
    X=              1.8868    Y=             -4.0901    Z=             -1.3541  Tot=              4.7035
 Quadrupole moment (field-independent basis, Debye-Ang):
   XX=           -123.2200   YY=           -131.3991   ZZ=           -110.8649
   XY=              7.0972   XZ=              7.2335   YZ=            -27.5624
 Traceless Quadrupole moment (field-independent basis, Debye-Ang):
   XX=             -1.3920   YY=             -9.5711   ZZ=             10.9631
   XY=              7.0972   XZ=              7.2335   YZ=            -27.5624
 Octapole moment (field-independent basis, Debye-Ang**2):
  XXX=            134.1820  YYY=          -1309.7214  ZZZ=          -1498.7937  XYY=             36.3573
  XXY=           -548.6594  XXZ=           -673.9734  XZZ=             89.8715  YZZ=           -582.4774
  YYZ=           -664.0274  XYZ=             82.1296
 Hexadecapole moment (field-independent basis, Debye-Ang**3):
 XXXX=          -7028.2205 YYYY=         -10059.5615 ZZZZ=         -17240.3639 XXXY=            565.4426
 XXXZ=           2952.6961 YYYX=            218.6186 YYYZ=          -6336.9488 ZZZX=           2939.3655
 ZZZY=          -6877.7372 XXYY=          -3468.9628 XXZZ=          -5180.9962 YYZZ=          -5712.4731
 XXYZ=          -3005.2554 YYXZ=           1218.0855 ZZXY=            939.5558
 N-N= 1.279659229677D+03 E-N=-4.704716156758D+03  KE= 9.127803080007D+02
   1 Symmetry operations used in ECPInt.
 ECPInt:  NShTT=   32385 NPrTT=   99228 LenC2=   26206 LenP2D=   57706.
 LDataN:  DoStor=T MaxTD1= 7 Len=  274
 Calling FoFJK, ICntrl=      2127 FMM=F ISym2X=0 I1Cent= 0 IOpClX= 0 NMat=1 NMatS=1 NMatT=0.
 -------------------------------------------------------------------
 Center     Atomic                   Forces (Hartrees/Bohr)
 Number     Number              X              Y              Z
 -------------------------------------------------------------------
      1        8           0.000767471    0.004322164   -0.000352015
      2        1           0.000552591   -0.000470346    0.001753857
      3        6          -0.000330388    0.000753869   -0.000073288
      4        1           0.001497349    0.004764300   -0.003614558
      5        6           0.000065375    0.000768843   -0.000314597
      6        1          -0.003689903    0.004757606    0.001310831
      7        8          -0.001351452   -0.000862257    0.000788697
      8        6           0.001482118    0.000153219   -0.007453229
      9        1           0.001479465   -0.003177902    0.004336929
     10        1          -0.000322873    0.005126238    0.002042577
     11        6           0.004309967   -0.011008596   -0.002261334
     12        1          -0.001491584    0.004263624   -0.003382917
     13        1          -0.004026081    0.001531903    0.004049719
     14        6          -0.003277708    0.000066725    0.002863579
     15        6          -0.001410236    0.001499012   -0.000130737
     16        8           0.002339117   -0.001302047   -0.001703454
     17        6           0.003059814    0.000079775   -0.002917028
     18        6           0.000168557    0.001118329   -0.000968960
     19        8          -0.001612598   -0.001490360    0.002288096
     20        6           0.000130251   -0.000642617    0.000268388
     21        1          -0.001469774   -0.004798905    0.003569797
     22        6           0.000212739   -0.000687143    0.000047495
     23        1           0.003627286   -0.004817466   -0.001241503
     24        8           0.001644438   -0.000517936   -0.000708802
     25        6           0.000310928   -0.013363570   -0.001652284
     26        1           0.002816111    0.003943286   -0.003024038
     27        1          -0.000193243    0.004010144    0.004858063
     28        6          -0.001501397    0.001126823    0.008387665
     29        1          -0.000938147    0.004758668   -0.002559323
     30        1          -0.000374666   -0.003995289   -0.004072322
     31        8          -0.001212880    0.004335045   -0.001315297
     32        1          -0.001260646   -0.000245139    0.001179994
 -------------------------------------------------------------------
 Cartesian Forces:  Max     0.013363570 RMS     0.003217518

 GradGradGradGradGradGradGradGradGradGradGradGradGradGradGradGradGradGrad
 Berny optimization.
 FormGI is forming the generalized inverse of G from B-inverse, IUseBI=4.
 Internal  Forces:  Max     0.006901438 RMS     0.002342045
 Search for a local minimum.
 Step number   1 out of a maximum of  160
 All quantities printed in internal units (Hartrees-Bohrs-Radians)
 Mixed Optimization -- RFO/linear search
 Second derivative matrix not updated -- first step.
 ITU=  0
     Eigenvalues ---    0.00225   0.00239   0.00623   0.00744   0.00882
     Eigenvalues ---    0.00988   0.01481   0.01559   0.01763   0.01849
     Eigenvalues ---    0.02198   0.02224   0.02238   0.02248   0.02258
     Eigenvalues ---    0.02272   0.02285   0.03523   0.03839   0.04915
     Eigenvalues ---    0.05319   0.05685   0.05860   0.05912   0.06044
     Eigenvalues ---    0.06219   0.06496   0.07734   0.07969   0.11482
     Eigenvalues ---    0.11629   0.11791   0.12029   0.13844   0.14213
     Eigenvalues ---    0.14558   0.14742   0.15979   0.15996   0.16001
     Eigenvalues ---    0.16016   0.16143   0.17264   0.21933   0.21997
     Eigenvalues ---    0.22062   0.22988   0.23442   0.24030   0.24627
     Eigenvalues ---    0.24872   0.25044   0.25582   0.27515   0.27658
     Eigenvalues ---    0.29037   0.31027   0.31146   0.33674   0.34233
     Eigenvalues ---    0.34365   0.34514   0.34606   0.34736   0.34848
     Eigenvalues ---    0.34873   0.35212   0.35732   0.35786   0.35870
     Eigenvalues ---    0.36324   0.37775   0.39197   0.40203   0.43248
     Eigenvalues ---    0.43442   0.44098   0.44167   0.46945   0.47624
     Eigenvalues ---    0.47805   0.49121   0.51451   0.55304   0.55482
     Eigenvalues ---    0.58446   0.63823   0.91350   1.02345   1.05157
 RFO step:  Lambda=-2.19015226D-03 EMin= 2.25118597D-03
 Linear search not attempted -- first point.
 Iteration  1 RMS(Cart)=  0.02545414 RMS(Int)=  0.00039212
 Iteration  2 RMS(Cart)=  0.00048307 RMS(Int)=  0.00000953
 Iteration  3 RMS(Cart)=  0.00000052 RMS(Int)=  0.00000952
 Variable       Old X    -DE/DX   Delta X   Delta X   Delta X     New X
                                 (Linear)    (Quad)   (Total)
    R1        1.82581  -0.00162   0.00000  -0.00250  -0.00250   1.82331
    R2        2.63976   0.00400   0.00000   0.00949   0.00949   2.64925
    R3        2.05864  -0.00615   0.00000  -0.01608  -0.01608   2.04255
    R4        2.62883  -0.00671   0.00000  -0.01259  -0.01259   2.61625
    R5        2.64241  -0.00672   0.00000  -0.01383  -0.01383   2.62857
    R6        2.05844  -0.00614   0.00000  -0.01660  -0.01660   2.04184
    R7        2.64198  -0.00671   0.00000  -0.01225  -0.01225   2.62973
    R8        2.27792  -0.00140   0.00000  -0.00100  -0.00100   2.27692
    R9        2.07825  -0.00557   0.00000  -0.01566  -0.01566   2.06259
   R10        2.07352  -0.00551   0.00000  -0.01502  -0.01502   2.05850
   R11        2.87094  -0.00039   0.00000  -0.00617  -0.00617   2.86477
   R12        2.69459   0.00286   0.00000   0.00620   0.00620   2.70079
   R13        2.07958  -0.00556   0.00000  -0.01512  -0.01512   2.06446
   R14        2.09314  -0.00579   0.00000  -0.01576  -0.01576   2.07738
   R15        2.82480  -0.00234   0.00000  -0.00471  -0.00471   2.82009
   R16        2.64231  -0.00665   0.00000  -0.01375  -0.01375   2.62857
   R17        2.52302   0.00110   0.00000   0.00099   0.00099   2.52401
   R18        2.50816   0.00069   0.00000   0.00116   0.00116   2.50933
   R19        2.71172   0.00289   0.00000   0.00486   0.00486   2.71658
   R20        2.82337  -0.00240   0.00000  -0.00690  -0.00690   2.81647
   R21        2.64273  -0.00663   0.00000  -0.01280  -0.01280   2.62993
   R22        2.28333  -0.00145   0.00000  -0.00083  -0.00083   2.28250
   R23        2.06049  -0.00615   0.00000  -0.01617  -0.01617   2.04433
   R24        2.62494  -0.00690   0.00000  -0.01322  -0.01322   2.61172
   R25        2.06057  -0.00615   0.00000  -0.01635  -0.01635   2.04422
   R26        2.07963  -0.00564   0.00000  -0.01538  -0.01538   2.06425
   R27        2.09576  -0.00600   0.00000  -0.01680  -0.01680   2.07897
   R28        2.88738  -0.00059   0.00000  -0.00420  -0.00420   2.88318
   R29        2.63094   0.00468   0.00000   0.01116   0.01116   2.64210
   R30        2.07097  -0.00547   0.00000  -0.01397  -0.01397   2.05699
   R31        2.08063  -0.00565   0.00000  -0.01670  -0.01670   2.06393
   R32        1.82934  -0.00152   0.00000  -0.00201  -0.00201   1.82734
    A1        1.90300   0.00153   0.00000   0.00793   0.00793   1.91093
    A2        2.10871  -0.00054   0.00000  -0.00302  -0.00302   2.10569
    A3        2.08531   0.00045   0.00000   0.00286   0.00286   2.08818
    A4        2.08916   0.00009   0.00000   0.00016   0.00015   2.08931
    A5        2.10895  -0.00056   0.00000  -0.00446  -0.00446   2.10450
    A6        2.08937   0.00006   0.00000   0.00090   0.00090   2.09027
    A7        2.08485   0.00051   0.00000   0.00356   0.00356   2.08841
    A8        1.90476   0.00043   0.00000   0.00207   0.00207   1.90683
    A9        1.93867   0.00021   0.00000   0.00051   0.00050   1.93917
   A10        1.90125  -0.00082   0.00000  -0.00060  -0.00062   1.90064
   A11        1.92900  -0.00167   0.00000  -0.00462  -0.00461   1.92439
   A12        1.85330  -0.00102   0.00000  -0.00468  -0.00467   1.84862
   A13        1.93460   0.00280   0.00000   0.00713   0.00713   1.94173
   A14        1.97407   0.00277   0.00000   0.00280   0.00280   1.97687
   A15        1.86671  -0.00143   0.00000  -0.00457  -0.00458   1.86213
   A16        1.96713  -0.00157   0.00000  -0.01023  -0.01023   1.95689
   A17        1.90665   0.00014   0.00000   0.00545   0.00544   1.91209
   A18        1.87498  -0.00050   0.00000   0.00041   0.00041   1.87539
   A19        1.87127   0.00054   0.00000   0.00688   0.00685   1.87812
   A20        2.12610   0.00013   0.00000   0.00267   0.00267   2.12877
   A21        2.10378  -0.00016   0.00000  -0.00146  -0.00146   2.10232
   A22        2.05331   0.00003   0.00000  -0.00121  -0.00121   2.05210
   A23        2.15647  -0.00078   0.00000  -0.00316  -0.00317   2.15330
   A24        2.16254   0.00131   0.00000   0.00047   0.00046   2.16300
   A25        1.96405  -0.00054   0.00000   0.00278   0.00277   1.96682
   A26        2.06703   0.00150   0.00000  -0.00583  -0.00583   2.06120
   A27        2.12420   0.00015   0.00000  -0.00007  -0.00007   2.12413
   A28        2.10397  -0.00018   0.00000  -0.00102  -0.00102   2.10295
   A29        2.05502   0.00004   0.00000   0.00109   0.00109   2.05610
   A30        1.97186  -0.00062   0.00000   0.00026   0.00025   1.97211
   A31        2.15932   0.00155   0.00000   0.00187   0.00187   2.16119
   A32        2.15201  -0.00093   0.00000  -0.00213  -0.00214   2.14987
   A33        2.04276   0.00100   0.00000  -0.00028  -0.00028   2.04248
   A34        2.07107   0.00030   0.00000   0.00166   0.00166   2.07273
   A35        2.09040   0.00009   0.00000   0.00058   0.00058   2.09098
   A36        2.12172  -0.00040   0.00000  -0.00224  -0.00224   2.11948
   A37        2.08969   0.00011   0.00000   0.00086   0.00086   2.09055
   A38        2.07216   0.00029   0.00000   0.00182   0.00182   2.07398
   A39        2.12134  -0.00040   0.00000  -0.00268  -0.00268   2.11866
   A40        1.86059   0.00044   0.00000   0.00777   0.00770   1.86829
   A41        1.87798   0.00001   0.00000   0.00488   0.00486   1.88284
   A42        1.86355  -0.00111   0.00000  -0.00512  -0.00512   1.85843
   A43        1.88132   0.00076   0.00000   0.00718   0.00716   1.88848
   A44        1.97644  -0.00160   0.00000  -0.01394  -0.01394   1.96250
   A45        1.99682   0.00149   0.00000   0.00053   0.00054   1.99736
   A46        2.00050   0.00112   0.00000  -0.00458  -0.00458   1.99592
   A47        1.80443  -0.00071   0.00000  -0.00111  -0.00112   1.80331
   A48        1.90900  -0.00073   0.00000  -0.00518  -0.00516   1.90384
   A49        1.93471  -0.00092   0.00000   0.00003   0.00002   1.93473
   A50        1.90359   0.00101   0.00000   0.00783   0.00782   1.91141
   A51        1.90852   0.00010   0.00000   0.00268   0.00266   1.91118
   A52        1.87041   0.00144   0.00000   0.00464   0.00464   1.87506
    D1       -0.71290   0.00051   0.00000   0.05166   0.05165  -0.66125
    D2       -2.81270  -0.00037   0.00000   0.04627   0.04629  -2.76641
    D3        1.41832   0.00076   0.00000   0.04651   0.04650   1.46482
    D4       -0.00112  -0.00000   0.00000  -0.00114  -0.00115  -0.00227
    D5       -3.13950   0.00000   0.00000  -0.00151  -0.00151  -3.14101
    D6        3.14010  -0.00001   0.00000  -0.00270  -0.00270   3.13740
    D7        0.00172  -0.00001   0.00000  -0.00306  -0.00306  -0.00134
    D8       -0.00096  -0.00000   0.00000   0.00123   0.00123   0.00027
    D9        3.13922   0.00000   0.00000   0.00006   0.00006   3.13928
   D10        3.14100   0.00001   0.00000   0.00277   0.00277  -3.13942
   D11       -0.00200   0.00001   0.00000   0.00160   0.00160  -0.00040
   D12       -3.14158  -0.00002   0.00000   0.00333   0.00333  -3.13825
   D13        0.00023   0.00001   0.00000   0.00170   0.00170   0.00193
   D14        0.00319  -0.00002   0.00000   0.00299   0.00299   0.00618
   D15       -3.13819   0.00002   0.00000   0.00136   0.00136  -3.13683
   D16        1.15862   0.00034   0.00000  -0.01009  -0.01009   1.14852
   D17       -3.04771   0.00039   0.00000  -0.01035  -0.01035  -3.05806
   D18       -1.02336   0.00083   0.00000   0.00082   0.00083  -1.02254
   D19       -3.00764  -0.00011   0.00000  -0.01027  -0.01027  -3.01791
   D20       -0.93077  -0.00006   0.00000  -0.01053  -0.01053  -0.94131
   D21        1.09357   0.00039   0.00000   0.00064   0.00065   1.09421
   D22       -0.95768  -0.00067   0.00000  -0.01453  -0.01454  -0.97222
   D23        1.11918  -0.00062   0.00000  -0.01479  -0.01480   1.10438
   D24       -3.13966  -0.00018   0.00000  -0.00362  -0.00362   3.13990
   D25       -0.62329   0.00067   0.00000   0.02621   0.02621  -0.59708
   D26       -2.67255   0.00112   0.00000   0.02661   0.02661  -2.64594
   D27        1.51491   0.00220   0.00000   0.03107   0.03107   1.54599
   D28       -3.13366  -0.00018   0.00000  -0.01024  -0.01025   3.13928
   D29        0.02495   0.00022   0.00000  -0.01589  -0.01589   0.00906
   D30        0.00772  -0.00021   0.00000  -0.00866  -0.00866  -0.00094
   D31       -3.11685   0.00019   0.00000  -0.01431  -0.01431  -3.13116
   D32        3.13932  -0.00001   0.00000   0.00039   0.00038   3.13971
   D33       -0.00194  -0.00001   0.00000   0.00117   0.00117  -0.00077
   D34       -0.00206   0.00002   0.00000  -0.00118  -0.00118  -0.00324
   D35        3.13987   0.00002   0.00000  -0.00039  -0.00039   3.13947
   D36        0.03423   0.00079   0.00000  -0.02688  -0.02688   0.00735
   D37       -3.12445   0.00037   0.00000  -0.02124  -0.02124   3.13750
   D38        3.05912   0.00034   0.00000   0.01595   0.01595   3.07507
   D39       -0.08407   0.00057   0.00000   0.01166   0.01166  -0.07241
   D40        1.17138   0.00129   0.00000   0.01431   0.01431   1.18569
   D41       -3.00405   0.00029   0.00000   0.01108   0.01108  -2.99297
   D42       -0.97237  -0.00027   0.00000   0.01131   0.01130  -0.96107
   D43       -0.01404   0.00010   0.00000   0.00258   0.00258  -0.01145
   D44        3.12914  -0.00012   0.00000   0.00684   0.00684   3.13598
   D45        3.12892   0.00010   0.00000   0.00372   0.00372   3.13265
   D46       -0.01109  -0.00013   0.00000   0.00798   0.00798  -0.00311
   D47        0.00030  -0.00002   0.00000   0.00127   0.00127   0.00157
   D48       -3.13999  -0.00000   0.00000   0.00090   0.00090  -3.13909
   D49        3.14054  -0.00001   0.00000   0.00015   0.00014   3.14069
   D50        0.00025   0.00000   0.00000  -0.00022  -0.00022   0.00003
   D51        0.00166   0.00002   0.00000  -0.00264  -0.00264  -0.00098
   D52       -3.14127   0.00000   0.00000  -0.00226  -0.00226   3.13966
   D53       -3.13959   0.00001   0.00000  -0.00183  -0.00183  -3.14142
   D54        0.00066  -0.00000   0.00000  -0.00145  -0.00145  -0.00079
   D55        2.54357  -0.00030   0.00000  -0.01161  -0.01159   2.53198
   D56        0.50930   0.00052   0.00000  -0.00721  -0.00718   0.50212
   D57       -1.59295   0.00032   0.00000  -0.01560  -0.01559  -1.60855
   D58        0.54302  -0.00119   0.00000  -0.02663  -0.02665   0.51637
   D59       -1.49125  -0.00038   0.00000  -0.02223  -0.02225  -1.51349
   D60        2.68968  -0.00058   0.00000  -0.03062  -0.03065   2.65903
   D61       -1.67221  -0.00079   0.00000  -0.01435  -0.01435  -1.68656
   D62        2.57671   0.00003   0.00000  -0.00995  -0.00994   2.56676
   D63        0.47445  -0.00017   0.00000  -0.01834  -0.01835   0.45610
   D64        2.97489   0.00020   0.00000  -0.01922  -0.01924   2.95565
   D65       -1.26595  -0.00086   0.00000  -0.02074  -0.02074  -1.28669
   D66        0.89934   0.00007   0.00000  -0.02212  -0.02211   0.87722
         Item               Value     Threshold  Converged?
 Maximum Force            0.006901     0.000450     NO 
 RMS     Force            0.002342     0.000300     NO 
 Maximum Displacement     0.083261     0.001800     NO 
 RMS     Displacement     0.025523     0.001200     NO 
 Predicted change in Energy=-1.120529D-03
 GradGradGradGradGradGradGradGradGradGradGradGradGradGradGradGradGradGrad

                          Input orientation:                          
 ---------------------------------------------------------------------
 Center     Atomic      Atomic             Coordinates (Angstroms)
 Number     Number       Type             X           Y           Z
 ---------------------------------------------------------------------
      1          8           0        4.902079    4.517022    2.657920
      2          1           0        4.339042    5.087587    2.120902
      3          6           0       -0.394729    2.819709    5.343020
      4          1           0       -0.595175    1.939417    5.937322
      5          6           0        0.611084    2.814953    4.391683
      6          1           0        1.211716    1.931234    4.231197
      7          8           0        2.152413    4.982221    1.927442
      8          6           0        3.622933    2.792231    1.504050
      9          1           0        3.342531    3.411451    0.650081
     10          1           0        3.679478    1.750865    1.189472
     11          6           0        4.949137    3.236752    2.088639
     12          1           0        5.246374    2.550114    2.884666
     13          1           0        5.701581    3.166075    1.290328
     14          6           0        0.853817    3.958837    3.637264
     15          6           0        1.922104    4.006880    2.596350
     16          8           0       -2.403117    2.879981    7.206546
     17          6           0       -1.153671    3.968965    5.538081
     18          6           0       -2.245091    4.024204    6.551530
     19          8           0        2.580787    2.850755    2.480325
     20          6           0        0.094399    5.107473    3.834080
     21          1           0        0.307734    5.981698    3.233636
     22          6           0       -0.908873    5.113161    4.784612
     23          1           0       -1.513754    5.992646    4.960150
     24          8           0       -2.916454    5.009085    6.746911
     25          6           0       -4.819348    2.961386    7.805491
     26          1           0       -5.434966    2.336801    8.456758
     27          1           0       -4.893595    2.541214    6.791461
     28          6           0       -3.371022    2.835842    8.268511
     29          1           0       -3.194159    1.865471    8.728905
     30          1           0       -3.148085    3.626813    8.987912
     31          8           0       -5.342525    4.255402    7.886698
     32          1           0       -4.713647    4.849755    7.455055
 ---------------------------------------------------------------------
                    Distance matrix (angstroms):
                    1          2          3          4          5
     1  O    0.000000
     2  H    0.964854   0.000000
     3  C    6.176310   6.159051   0.000000
     4  H    6.900603   6.987313   1.080873   0.000000
     5  C    4.931086   4.921278   1.384459   2.147237   0.000000
     6  H    4.772869   4.918951   2.146207   2.485113   1.080497
     7  O    2.882824   2.197698   4.778134   5.734721   3.625634
     8  C    2.437732   2.482333   5.556983   6.178481   4.172550
     9  H    2.772345   2.442495   6.028346   6.754801   4.670781
    10  H    3.361952   3.526514   5.915535   6.391423   4.560864
    11  C    1.401923   1.949064   6.270712   6.872761   4.929567
    12  H    2.009647   2.800956   6.159402   6.619317   4.881306
    13  H    2.081963   2.497713   7.328661   7.921388   5.971168
    14  C    4.202274   3.964874   2.401267   3.386429   1.391595
    15  C    3.023952   2.689901   3.784348   4.666175   2.522436
    16  O    8.759897   8.728918   2.740435   2.400884   4.124693
    17  C    6.728135   6.564932   1.390982   2.142516   2.400070
    18  C    8.153840   8.007000   2.516971   2.728701   3.779545
    19  O    2.862932   2.867763   4.129127   4.782061   2.744868
    20  C    4.984553   4.577376   2.783884   3.864676   2.415271
    21  H    4.856411   4.276571   3.865375   4.946230   3.385464
    22  C    6.216539   5.885288   2.415798   3.391135   2.783239
    23  H    6.974284   6.567776   3.386197   4.269346   3.864690
    24  O    8.836935   8.605135   3.622619   3.932763   4.775442
    25  C   11.109619  10.986873   5.065677   4.730551   6.416005
    26  H   12.051323  11.968339   5.944119   5.470745   7.301246
    27  H   10.814121  10.655502   4.734484   4.423588   6.011270
    28  C   10.136533  10.114768   4.173377   3.734079   5.557644
    29  H   10.461197  10.526008   4.495731   3.814855   5.847469
    30  H   10.279416  10.263857   4.638709   4.320966   5.992978
    31  O   11.504803  11.299101   5.745624   5.630381   7.052340
    32  H   10.751065  10.510040   5.218700   5.266440   6.471278
                    6          7          8          9         10
     6  H    0.000000
     7  O    3.937095   0.000000
     8  C    3.740670   2.671656   0.000000
     9  H    4.422195   2.348479   1.091477   0.000000
    10  H    3.921029   3.649410   1.089312   1.778208   0.000000
    11  C    4.501472   3.300654   1.515968   2.163597   2.151370
    12  H    4.298212   4.050187   2.144826   3.059393   2.442876
    13  H    5.507488   4.037436   2.122784   2.456672   2.470200
    14  C    2.142900   2.378478   3.685047   3.926397   4.341796
    15  C    2.735997   1.204894   2.358243   2.481958   3.187048
    16  O    4.777012   7.282939   8.296954   8.733967   8.630067
    17  C    3.384575   4.999359   6.361922   6.664774   6.869476
    18  C    4.659826   6.452753   7.837634   8.150098   8.307843
    19  O    2.405292   2.243286   1.429197   2.060201   2.020688
    20  C    3.390368   2.808269   4.820782   4.854349   5.577953
    21  H    4.268322   2.471424   4.914744   4.742460   5.783357
    22  C    3.863654   4.189515   6.056902   6.169652   6.729267
    23  H    4.945162   4.864058   6.969422   6.987330   7.692879
    24  O    5.730949   6.994384   8.669810   8.882492   9.219948
    25  C    7.085938   9.340272  10.536075  10.863642  10.838224
    26  H    7.886586  10.353673  11.427734  11.795912  11.671755
    27  H    6.648448   8.903001  10.027511  10.310560  10.271539
    28  C    6.174116   8.678965   9.730120  10.170723  10.049852
    29  H    6.296462   9.195643   9.976480  10.506464  10.203091
    30  H    6.671521   8.932112  10.126766  10.568534  10.533302
    31  O    7.856369   9.602869  11.102185  11.336274  11.511824
    32  H    7.349895   8.815601  10.447317  10.643233  10.922692
                   11         12         13         14         15
    11  C    0.000000
    12  H    1.092464   0.000000
    13  H    1.099303   1.768767   0.000000
    14  C    4.437487   4.673913   5.444024   0.000000
    15  C    3.164459   3.640888   4.086207   1.492329   0.000000
    16  O    8.965261   8.792166  10.038407   4.950891   6.421164
    17  C    7.048337   7.072081   8.104475   2.764637   4.256244
    18  C    8.502611   8.469998   9.569024   4.254462   5.745369
    19  O    2.431356   2.712790   3.354828   2.355585   1.335646
    20  C    5.487681   5.829607   6.456019   1.390977   2.466533
    21  H    5.512565   6.023928   6.387312   2.133797   2.629112
    22  C    6.716060   6.932969   7.726529   2.399155   3.745234
    23  H    7.590092   7.864985   8.574273   3.389956   4.619084
    24  O    9.311723   9.359232  10.365399   4.998787   6.453155
    25  C   11.321728  11.211709  12.376558   7.110121   8.583436
    26  H   12.214436  12.049263  13.269065   8.087479   9.553012
    27  H   10.930677  10.866559  11.954525   6.707560   8.136393
    28  C   10.371914  10.164986  11.450599   6.368582   7.846141
    29  H   10.596547  10.289143  11.668684   6.833235   8.268616
    30  H   10.645051  10.434358  11.738043   6.689909   8.167210
    31  O   11.856368  11.834404  12.910113   7.519329   8.990238
    32  H   11.170031  11.197269  12.219477   6.809252   8.267445
                   16         17         18         19         20
    16  O    0.000000
    17  C    2.351760   0.000000
    18  C    1.327879   1.490411   0.000000
    19  O    6.868575   4.954437   6.421900   0.000000
    20  C    4.751088   2.399479   3.745827   3.620436   0.000000
    21  H    5.723056   3.390762   4.621376   3.941707   1.081810
    22  C    3.617405   1.391699   2.468462   4.754571   1.382063
    23  H    3.940297   2.135169   2.634788   5.725931   2.153537
    24  O    2.237825   2.377083   1.207846   7.285726   4.190406
    25  C    2.490689   4.426460   3.054308   9.117655   6.672533
    26  H    3.324182   5.432506   4.080751  10.011704   7.721377
    27  H    2.547457   4.194814   3.044897   8.634125   6.341283
    28  C    1.437553   3.695383   2.372330   8.302250   6.069071
    29  H    1.993127   4.332394   3.209645   8.565369   6.729376
    30  H    2.070265   3.999510   2.628550   8.704650   6.266421
    31  O    3.315797   4.810878   3.380862   9.694369   6.834463
    32  H    3.046361   4.138117   2.755297   9.052774   6.024549
                   21         22         23         24         25
    21  H    0.000000
    22  C    2.154069   0.000000
    23  H    2.509739   1.081753   0.000000
    24  O    4.866669   2.809240   2.475373   0.000000
    25  C    7.504073   5.389588   5.311445   2.989091   0.000000
    26  H    8.575831   6.455877   6.400576   4.050628   1.092356
    27  H    7.179754   5.149793   5.166179   3.162508   1.100142
    28  C    6.984241   4.835898   4.935595   2.691632   1.525712
    29  H    7.707435   5.597095   5.836167   3.726624   2.166786
    30  H    7.113357   4.989091   4.948844   2.643182   2.152681
    31  O    7.520407   5.478683   5.122713   2.784417   1.398137
    32  H    6.657022   4.655852   4.215455   1.938236   1.923517
                   26         27         28         29         30
    26  H    0.000000
    27  H    1.762975   0.000000
    28  C    2.131747   2.141661   0.000000
    29  H    2.305956   2.664283   1.088514   0.000000
    30  H    2.678821   3.008276   1.092187   1.780880   0.000000
    31  O    2.003633   2.083152   2.459219   3.322132   2.534436
    32  H    2.799759   2.408755   2.553468   3.582945   2.509228
                   31         32
    31  O    0.000000
    32  H    0.966985   0.000000
 Symmetry turned off by external request.
 Stoichiometry    C12H14O6
 Framework group  C1[X(C12H14O6)]
 Deg. of freedom    90
 Full point group                 C1      NOp   1
 Rotational constants (GHZ):           1.5733597           0.1343000           0.1288512
 Standard basis: def2TZVP (5D, 7F)
   642 basis functions,  1030 primitive gaussians,   732 cartesian basis functions
    67 alpha electrons       67 beta electrons
       nuclear repulsion energy      1280.6793868493 Hartrees.
 NAtoms=   32 NActive=   32 NUniq=   32 SFac= 1.00D+00 NAtFMM=   60 NAOKFM=F Big=F
 Integral buffers will be    131072 words long.
 Raffenetti 2 integral format.
 Two-electron integral symmetry is turned off.
 One-electron integrals computed using PRISM.
   1 Symmetry operations used in ECPInt.
 ECPInt:  NShTT=   32385 NPrTT=   99228 LenC2=   26228 LenP2D=   57738.
 LDataN:  DoStor=T MaxTD1= 6 Len=  172
 NBasis=   642 RedAO= T EigKep=  7.08D-06  NBF=   642
 NBsUse=   642 1.00D-06 EigRej= -1.00D+00 NBFU=   642
 Initial guess from the checkpoint file:  "/dev/shm/pet_mono_637_tzvp.chk"
 B after Tr=     0.015290   -0.008608    0.010363
         Rot=    1.000000    0.000449    0.000217   -0.000508 Ang=   0.08 deg.
 ExpMin= 9.52D-02 ExpMax= 2.70D+04 ExpMxC= 9.22D+02 IAcc=3 IRadAn=         5 AccDes= 0.00D+00
 Harris functional with IExCor= 1009 and IRadAn=       5 diagonalized for initial guess.
 HarFok:  IExCor= 1009 AccDes= 0.00D+00 IRadAn=         5 IDoV= 1 UseB2=F ITyADJ=14
 ICtDFT=  3500011 ScaDFX=  1.000000  1.000000  1.000000  1.000000
 FoFCou: FMM=F IPFlag=           0 FMFlag=      100000 FMFlg1=           0
         NFxFlg=           0 DoJE=T BraDBF=F KetDBF=T FulRan=T
         wScrn=  0.000000 ICntrl=       500 IOpCl=  0 I1Cent=   200000004 NGrid=           0
         NMat0=    1 NMatS0=      1 NMatT0=    0 NMatD0=    1 NMtDS0=    0 NMtDT0=    0
 Symmetry not used in FoFCou.
 Requested convergence on RMS density matrix=1.00D-08 within  32 cycles.
 Requested convergence on MAX density matrix=1.00D-06.
 Requested convergence on             energy=1.00D-06.
 No special actions if energy rises.
 Integral accuracy reduced to 1.0D-05 until final iterations.
 Initial convergence to 1.0D-05 achieved.  Increase integral accuracy.
 SCF Done:  E(RM062X) =  -917.071339906     A.U. after   14 cycles
            NFock= 14  Conv=0.65D-08     -V/T= 2.0044
 QCSCF skips out because SCF is already converged.
   1 Symmetry operations used in ECPInt.
 ECPInt:  NShTT=   32385 NPrTT=   99228 LenC2=   26228 LenP2D=   57738.
 LDataN:  DoStor=T MaxTD1= 7 Len=  274
 Calling FoFJK, ICntrl=      2127 FMM=F ISym2X=0 I1Cent= 0 IOpClX= 0 NMat=1 NMatS=1 NMatT=0.
 -------------------------------------------------------------------
 Center     Atomic                   Forces (Hartrees/Bohr)
 Number     Number              X              Y              Z
 -------------------------------------------------------------------
      1        8           0.000543786    0.002016231    0.000327043
      2        1          -0.000048008   -0.000388210    0.000215296
      3        6          -0.000007943   -0.000135550    0.000297003
      4        1           0.000229924    0.000106616   -0.000239275
      5        6           0.000571700    0.000095348   -0.000648033
      6        1          -0.000074478   -0.000072271    0.000003327
      7        8          -0.000175168   -0.000255377   -0.000142408
      8        6           0.000405978    0.000929820   -0.001822606
      9        1           0.000214821   -0.000213912    0.000386058
     10        1           0.000000357    0.000181145    0.000276617
     11        6           0.000348548   -0.003331349   -0.000639566
     12        1          -0.000228170    0.000692546   -0.000168105
     13        1          -0.000671908    0.000596181    0.000644543
     14        6           0.000236933   -0.000809144   -0.000260258
     15        6           0.000301930    0.000721228    0.000078817
     16        8           0.001191458   -0.000708810   -0.000978118
     17        6           0.000236314    0.000160178    0.000233282
     18        6          -0.001028412    0.000636330   -0.000598601
[...]
 00000102,-0.00000187,-0.00000487,0.00004287,0.00001658,-0.00004393,-0.
 00002626,0.00000454,0.00002287,0.00000268,0.00000158,-0.00000161,0.000
 00281,-0.00000212,-0.00000196,-0.00000528,0.00000276,-0.00000315,-0.00
 000086,-0.00000072,0.00000119,0.00000436,0.00000069,-0.00000117,0.0000
 3948,-0.00000364,-0.00004100,-0.00009954,0.00001880,0.00008381,0.00418
 383,0.00057880,0.00014094,-0.00003311,-0.00014018,-0.00010018,-0.00076
 831,-0.00045436,0.00050192,0.00005783,-0.00003449,-0.00003714,0.000005
 46,-0.00000988,0.00000188,0.00000065,0.00000051,-0.00000096,0.00000441
 ,-0.00001637,0.00001759,-0.00001588,-0.00001286,0.00000855,0.00056174,
 -0.00014314,-0.00007393,-0.05098279,-0.00815839,-0.01579815,0.00291527
 ,0.00545500,0.01859038,0.05625118,0.00001600,0.00000202,-0.00000171,-0
 .00001400,-0.00000408,0.00000242,-0.00000838,0.00002455,0.00000745,-0.
 00000974,0.00001322,-0.00000157,-0.00001091,0.00000672,0.00000674,-0.0
 0000029,-0.00000114,-0.00000193,0.00003931,0.00001579,-0.00003597,-0.0
 0002407,0.00000417,0.00002068,0.00000187,0.00000106,-0.00000142,0.0000
 0216,-0.00000169,-0.00000176,-0.00000545,0.00000064,-0.00000219,-0.000
 00087,-0.00000031,0.00000123,0.00000396,0.00000071,-0.00000133,0.00002
 573,0.00000340,-0.00003249,-0.00008660,0.00001517,0.00006937,0.0011309
 5,0.00053915,-0.00007025,-0.00002060,0.00014822,0.00000362,-0.00046370
 ,-0.00086620,0.00012084,0.00005102,-0.00002898,-0.00003215,0.00000112,
 0.00000401,-0.00000219,0.00000075,-0.00000248,-0.00000399,0.00003012,-
 0.00003317,0.00000693,-0.00001013,-0.00001549,-0.00000764,-0.00042696,
 0.00033048,0.00034160,-0.00789981,-0.07273753,-0.06809004,0.00221428,0
 .00740728,0.01646973,0.00106404,0.08911079,0.00000636,0.00000941,0.000
 00396,-0.00000509,-0.00000391,-0.00000062,-0.00000453,-0.00001285,0.00
 005301,-0.00004069,-0.00000857,-0.00002399,0.00000027,0.00001727,0.000
 00541,-0.00000926,-0.00000194,-0.00000007,0.00001146,0.00001338,-0.000
 00736,-0.00000833,-0.00000123,0.00000405,0.00000046,-0.00000052,-0.000
 00046,-0.00000067,0.00000066,-0.00000002,-0.00000381,-0.00000655,-0.00
 000300,-0.00000036,-0.00000011,0.00000012,0.00000074,0.00000068,0.0000
 0018,-0.00000530,-0.00000222,0.00000687,-0.00001402,-0.00001397,0.0000
 0691,0.00147233,0.00025998,0.00313452,-0.00011553,-0.00009238,-0.00007
 097,-0.00063347,-0.00057797,0.00011088,0.00001017,0.00000737,-0.000003
 26,0.00000287,0.00000793,0.00000674,-0.00000328,-0.00000177,-0.0000018
 1,-0.00001306,0.00000281,0.00002346,-0.00000006,-0.00000110,-0.0000146
 1,-0.00029387,0.00044254,0.00032341,-0.01838444,-0.07168482,-0.2733364
 3,-0.00236852,-0.00478693,-0.01730882,0.01754712,0.08692826,0.29258022
 ,0.00020550,-0.00001287,-0.00004986,-0.00018019,-0.00004215,0.00004425
 ,0.00008624,0.00006960,-0.00037340,-0.00040763,0.00023001,0.00011441,-
 0.00000447,0.00012201,0.00007719,0.00005207,-0.00001374,-0.00001774,0.
 00054352,0.00021815,-0.00056776,-0.00032206,0.00005893,0.00029881,0.00
 003086,0.00002342,-0.00002120,0.00003619,-0.00002922,-0.00002159,-0.00
 005990,0.00004071,-0.00001698,-0.00001531,-0.00000442,0.00001451,0.000
 05577,0.00000728,-0.00002143,0.00042502,0.00015065,-0.00047495,-0.0012
 2902,0.00023044,0.00102206,-0.12092684,0.00779013,0.06367836,0.0042428
 7,0.00330305,-0.00064539,-0.00353475,-0.02595810,0.01705809,0.00070087
 ,-0.00041728,-0.00048350,0.00009877,-0.00002538,-0.00049912,0.00004878
 ,-0.00000662,-0.00008726,0.00063902,-0.00047590,0.00003241,-0.00004065
 ,-0.00005685,0.00023106,-0.00665594,0.01124449,-0.00461873,-0.17275193
 ,0.00523280,-0.04643426,-0.01578023,0.00018875,-0.00679994,-0.00719397
 ,-0.00332033,0.00094376,0.45101645,0.00006388,-0.00002225,-0.00001833,
 -0.00005582,-0.00000736,0.00001435,0.00058569,-0.00018210,-0.00053952,
 -0.00029463,0.00056151,-0.00015716,-0.00012416,0.00027564,0.00008836,0
 .00001777,0.00000117,-0.00000036,0.00017735,0.00007246,-0.00018169,-0.
 00009846,0.00002399,0.00009246,0.00000944,0.00000669,-0.00000584,0.000
 01128,-0.00000995,-0.00000940,-0.00001842,0.00002811,-0.00000626,-0.00
 000319,-0.00000243,0.00000626,0.00001792,0.00000113,-0.00000667,0.0002
 4666,0.00010417,-0.00030372,-0.00044171,0.00011610,0.00033252,0.019146
 29,-0.08441675,-0.01334336,0.00200520,-0.00371905,0.00225911,-0.029002
 32,-0.00549876,0.03368530,0.00022679,-0.00015677,-0.00014728,0.0000970
 3,-0.00049542,-0.00000463,-0.00007428,0.00001174,0.00004842,-0.0008965
 1,0.00030956,0.00083772,0.00002473,-0.00003192,0.00006405,-0.00168678,
 0.00205969,-0.00132749,-0.00595544,-0.07980390,-0.00083061,-0.01437212
 ,0.00024052,-0.00557517,-0.01129550,0.00337734,-0.00279768,-0.00665082
 ,0.65565269,-0.00025532,0.00000447,0.00004491,0.00022471,0.00005341,-0
 .00004825,-0.00065191,-0.00003111,0.00043033,0.00039914,-0.00068238,-0
 .00028074,0.00016759,-0.00022140,-0.00000052,-0.00003377,0.00002997,0.
 00005049,-0.00066162,-0.00027067,0.00071524,0.00040068,-0.00007207,-0.
 00035714,-0.00003898,-0.00002454,0.00002573,-0.00004337,0.00003361,0.0
 0002919,0.00007929,-0.00004014,0.00003181,0.00001671,0.00000687,-0.000
 01903,-0.00006764,-0.00000979,0.00002331,-0.00058605,-0.00018661,0.000
 66624,0.00149672,-0.00031628,-0.00129943,0.05850716,0.00142293,-0.1372
 2301,0.00037396,0.00058517,0.00542878,0.01703004,0.03315038,-0.0340851
 3,-0.00086829,0.00051938,0.00058928,-0.00052048,-0.00000899,0.00010113
 ,-0.00007577,-0.00002144,0.00002170,0.00005264,0.00053260,0.00016819,0
 .00018904,0.00014700,-0.00010600,0.00323263,-0.01599971,-0.00130254,-0
 .03764392,0.00029168,-0.09801786,0.01906702,0.00049538,0.00573091,-0.0
 3199883,-0.00137140,-0.01244714,0.04533799,0.00250051,0.51663563,-0.00
 001919,0.00000157,0.00000088,0.00001758,0.00000343,-0.00000308,0.00000
 229,-0.00012137,0.00001646,-0.00000302,0.00003444,0.00004780,-0.000002
 51,0.00005547,-0.00002171,-0.00001223,0.00000178,0.00001414,-0.0000537
 6,-0.00001575,0.00005295,0.00002933,-0.00000511,-0.00002609,-0.0000030
 4,-0.00000142,0.00000150,-0.00000360,0.00000242,0.00000304,0.00000616,
 -0.00000413,0.00000545,0.00000048,0.00000117,-0.00000149,-0.00000507,-
 0.00000061,0.00000077,-0.00004636,-0.00001799,0.00005576,0.00013011,-0
 .00002718,-0.00010650,-0.00379654,-0.02594243,0.02121531,0.00004739,-0
 .00103337,0.00033991,-0.00267531,0.00258356,0.00296722,-0.00007301,0.0
 0004879,0.00004461,-0.00000995,-0.00008364,0.00005001,-0.00002481,0.00
 000497,0.00002371,-0.00027635,0.00016557,0.00015951,0.00001301,0.00000
 785,-0.00001939,0.00108812,-0.00071684,-0.00037598,-0.00263308,0.02582
 954,-0.00913126,0.00038720,0.00115544,0.00057478,-0.00045783,-0.001202
 31,-0.00104378,-0.05567530,0.04955214,-0.02932579,0.06898637,-0.000020
 87,0.00000306,0.00000120,0.00001853,0.00000262,-0.00000320,-0.00005057
 ,-0.00001481,0.00002930,0.00001275,-0.00004094,0.00005245,-0.00001478,
 -0.00000731,0.00000438,-0.00000587,0.00000243,0.00000854,-0.00005289,-
 0.00001400,0.00004856,0.00003169,-0.00000585,-0.00002728,-0.00000320,-
 0.00000158,0.00000173,-0.00000333,0.00000258,0.00000310,0.00000715,-0.
 00000538,0.00000499,0.00000068,0.00000132,-0.00000187,-0.00000533,-0.0
 0000069,0.00000129,-0.00005981,0.00000901,0.00005423,0.00012780,-0.000
 03124,-0.00009743,-0.00183145,0.00141517,0.00092012,0.00007597,0.00001
 264,0.00010659,0.00127976,0.00049985,-0.00098051,-0.00007468,0.0000497
 3,0.00004480,-0.00000729,0.00000120,-0.00001411,-0.00000177,0.00000129
 ,0.00000433,-0.00005888,0.00003088,0.00002434,0.00001480,0.00002775,-0
 .00001771,-0.00082878,0.00058979,0.00085867,-0.00135075,-0.00025917,-0
 .00090341,0.00052881,0.00106639,-0.00016232,0.00039586,-0.00030842,-0.
 00017544,0.04117274,-0.27318456,0.10403742,-0.04514411,0.28661052,0.00
 001934,-0.00000668,-0.00000483,-0.00001804,-0.00000240,0.00000409,-0.0
 0001789,0.00010325,-0.00008034,0.00007938,0.00001606,-0.00002423,-0.00
 002387,-0.00007476,0.00001958,0.00001852,-0.00000004,-0.00001307,0.000
 05613,0.00001085,-0.00005794,-0.00003040,0.00000753,0.00002909,0.00000
 301,0.00000209,-0.00000171,0.00000465,-0.00000335,-0.00000345,-0.00000
 495,0.00000813,-0.00000285,-0.00000063,-0.00000082,0.00000187,0.000005
 64,0.00000044,-0.00000159,0.00005668,0.00003283,-0.00006219,-0.0001390
 0,0.00004332,0.00012329,0.00642585,0.03016893,-0.02369990,0.00007536,0
 .00132632,-0.00028051,0.00376686,-0.00486445,-0.00240592,0.00007822,-0
 .00006118,-0.00005154,-0.00000463,0.00008598,-0.00008336,0.00002868,-0
 .00000600,-0.00002616,0.00031622,-0.00020775,-0.00017322,-0.00001075,0
 .00000023,0.00002430,-0.00129370,0.00073095,0.00149402,-0.00027417,0.0
 1070766,-0.00262277,0.00095959,-0.00077095,0.00139302,-0.00008391,-0.0
 0046529,-0.00026416,-0.02529017,0.09477627,-0.09476581,0.01354512,-0.1
 1413061,0.10960613,-0.00003125,0.00000043,0.00000259,0.00002862,0.0000
 0634,-0.00000489,-0.00008419,-0.00000021,0.00008840,0.00012581,-0.0000
 7188,0.00001554,0.00000639,-0.00004926,-0.00004185,-0.00000991,0.00000
 397,0.00000672,-0.00009287,-0.00003914,0.00009273,0.00005009,-0.000009
 53,-0.00004538,-0.00000528,-0.00000323,0.00000316,-0.00000606,0.000004
 24,0.00000388,0.00000925,-0.00000455,0.00000679,0.00000175,0.00000144,
 -0.00000214,-0.00000844,-0.00000147,0.00000197,-0.00009511,-0.00003950
 ,0.00011908,0.00021736,-0.00004126,-0.00016800,-0.00289385,0.01559192,
 0.02700102,-0.00065325,-0.00028621,-0.00021719,0.00104385,0.00492270,-
 0.00161084,-0.00011483,0.00007107,0.00007462,-0.00002941,0.00002303,0.
 00007473,-0.00000555,0.00000190,0.00001283,-0.00004796,0.00009588,-0.0
 0005218,0.00001172,-0.00000177,-0.00002153,0.00062593,-0.00150439,0.00
 013824,-0.00687462,-0.02273059,-0.02290377,-0.00035360,0.00000139,0.00
 025722,-0.00506739,0.00079828,-0.00106308,-0.06115280,-0.04736979,-0.0
 4039018,0.00199768,0.00482095,0.00363395,0.06997200,0.00000483,0.00000
 255,0.00000312,-0.00000380,-0.00000065,-0.00000033,-0.00000282,-0.0000
 1108,0.00005346,-0.00003374,-0.00000396,0.00000378,0.00005889,0.000012
 86,-0.00002312,-0.00000567,-0.00000348,-0.00000660,0.00000566,-0.00000
 435,0.00000048,-0.00000752,-0.00000037,0.00000291,0.00000081,-0.000000
 19,-0.00000040,-0.00000012,0.00000007,-0.00000046,-0.00000294,-0.00000
 149,-0.00000270,-0.00000003,-0.00000065,0.00000035,0.00000069,0.000000
 33,0.00000015,-0.00002237,-0.00002456,0.00002790,0.00000317,0.00000557
 ,-0.00000399,0.00375367,0.00569125,0.00265614,-0.00041399,-0.00019031,
 -0.00055622,-0.00032464,0.00130124,0.00179335,0.00001178,-0.00000160,-
 0.00000485,0.00000405,0.00002565,0.00000485,-0.00000001,0.00000040,0.0
 0000116,0.00000977,0.00001426,-0.00000407,-0.00001364,-0.00000646,0.00
 001796,0.00009194,-0.00036583,0.00027588,0.00250153,0.00100223,0.00214
 729,-0.00024675,0.00001436,-0.00031200,0.00045978,0.00000660,0.0008780
 9,-0.04434490,-0.20028873,-0.12902378,-0.00703314,-0.01751478,-0.01731
 969,0.04530822,0.20862610,0.00002227,0.00000124,-0.00000236,-0.0000203
 2,-0.00000556,0.00000351,0.00006486,-0.00003070,-0.00005491,-0.0001268
 4,0.00010083,-0.00001473,-0.00007378,0.00004721,0.00008143,0.00000356,
 -0.00000229,0.00000019,0.00006782,0.00003124,-0.00006792,-0.00003486,0
 .00000654,0.00003158,0.00000335,0.00000217,-0.00000215,0.00000391,-0.0
 0000283,-0.00000253,-0.00000665,0.00000220,-0.00000402,-0.00000131,-0.
 00000066,0.00000152,0.00000589,0.00000104,-0.00000155,0.00004915,0.000
 09975,-0.00009356,-0.00015236,0.00003173,0.00011479,0.00650879,-0.0140
 7258,-0.02877416,0.00060312,0.00055049,0.00012863,0.00097143,-0.008568
 77,0.00159893,0.00007695,-0.00004522,-0.00005013,0.00006799,-0.0000246
 6,-0.00012369,0.00000541,-0.00000440,-0.00001347,0.00000368,-0.0001398
 0,0.00011572,0.00000893,0.00002789,-0.00000693,-0.00216790,0.00260917,
 0.00101873,-0.00591442,-0.01007014,-0.00624988,-0.00107137,0.00012851,
 -0.00069861,-0.00140886,-0.00023165,0.00000682,-0.03622499,-0.11963210
 ,-0.15459165,0.00313405,0.01018490,0.01200131,0.03332849,0.13829357,0.
 17491263,-0.00013051,0.00000174,0.00004060,0.00011403,0.00003138,-0.00
 003233,-0.00010721,-0.00022852,0.00029095,0.00009756,-0.00009201,-0.00
 009166,-0.00006324,-0.00000772,0.00007479,-0.00004018,0.00000571,0.000
 01785,-0.00033894,-0.00018071,0.00040107,0.00020499,-0.00003431,-0.000
 19611,-0.00001963,-0.00001590,0.00001436,-0.00002305,0.00001909,0.0000
 1201,0.00003656,-0.00002087,0.00000386,0.00001129,0.00000080,-0.000007
 91,-0.00003654,-0.00000443,0.00001533,-0.00037093,0.00007063,0.0003272
 0,0.00079362,-0.00008602,-0.00073097,-0.00246263,-0.00009110,0.0015941
 3,-0.00054378,0.00058686,0.00038994,0.00254679,-0.00308605,-0.00143215
 ,-0.00044467,0.00025182,0.00032359,0.00003773,-0.00001748,-0.00000622,
 -0.00003768,-0.00000118,0.00002005,-0.00022762,0.00027346,0.00011648,0
 .00003435,0.00009795,-0.00015103,-0.01087532,-0.00059228,0.00544247,-0
 .11075328,0.03798131,0.02177951,0.01051036,-0.01669416,-0.00325479,0.0
 0128475,0.00694119,0.00295016,-0.01528116,0.04267385,-0.00107476,-0.00
 629183,0.00144418,-0.00170826,0.00405320,0.00038508,0.00284309,0.36019
 017,0.00000845,0.00004906,0.00000406,-0.00000622,-0.00002156,0.0000003
 3,-0.00002214,-0.00029148,0.00023711,-0.00016097,0.00010181,0.00004401
 ,-0.00017774,0.00012298,0.00004324,-0.00004206,-0.00000761,0.00002882,
 0.00002564,0.00009828,-0.00006020,-0.00001070,-0.00001095,0.00000898,-
 0.00000010,-0.00000022,-0.00000199,-0.00000291,0.00000308,0.00000501,-
 0.00000429,-0.00003703,0.00000061,-0.00000364,0.00000360,-0.00000314,0
 .00000019,0.00000229,-0.00000021,-0.00003948,0.00010698,-0.00000466,0.
 00000323,-0.00011440,0.00003811,0.00572402,0.00757385,-0.00591422,-0.0
 0016840,0.00143840,0.00031019,0.00285131,-0.01502022,0.00329680,-0.000
 02005,0.00008420,-0.00000193,0.00005735,0.00012214,-0.00012687,0.00002
 561,-0.00001154,-0.00002020,0.00011601,-0.00018650,-0.00005269,0.00008
 950,0.00004549,-0.00009022,-0.00942953,0.00770854,0.00168999,0.0769257
 0,-0.24180143,-0.01913178,0.01252294,-0.03747696,-0.00038372,0.0131053
 4,-0.02807878,-0.00846136,0.00978070,-0.01724698,0.00446558,0.00264263
 ,0.00064758,0.00019216,-0.00001089,0.00164288,0.00027176,0.08815507,0.
 53475427,0.00005173,0.00000751,0.00000298,-0.00004492,-0.00001083,0.00
 000440,-0.00001563,0.00016557,-0.00007204,-0.00001626,-0.00003997,-0.0
 0005722,0.00009074,-0.00000585,-0.00000645,0.00000524,-0.00000239,-0.0
 0001650,0.00011699,0.00003398,-0.00008701,-0.00007580,0.00001238,0.000
 05842,0.00000608,0.00000173,-0.00000404,0.00000570,-0.00000405,-0.0000
 0659,-0.00002046,0.00000092,-0.00001261,-0.00000170,-0.00000240,0.0000
 0460,0.00001164,0.00000250,-0.00000293,0.00010016,-0.00006662,-0.00007
 611,-0.00026350,0.00004905,0.00019002,-0.00240359,-0.00127529,0.003435
 87,0.00007441,-0.00059456,-0.00018052,-0.00185389,0.00600146,-0.001334
 10,0.00016271,-0.00009443,-0.00009126,-0.00003608,-0.00003309,0.000072
 10,-0.00001501,-0.00000404,-0.00000687,0.00002984,0.00001586,0.0000428
 4,-0.00006628,-0.00006676,0.00000567,0.00761228,-0.00167306,0.00038334
 ,0.01875386,-0.00346844,-0.07326044,-0.00871946,0.02005014,0.00594782,
 0.01285429,-0.03170473,0.00702743,-0.00580646,0.01078804,0.00102859,-0
 .00250793,0.00064778,0.00004592,0.00261543,0.00063469,0.00159248,-0.17
 492296,-0.11732664,0.16671535,0.00014665,-0.00001111,-0.00003988,-0.00
 012944,-0.00003086,0.00003410,0.00011931,0.00049041,-0.00042127,-0.000
 03620,0.00002984,0.00003877,0.00020660,-0.00002760,-0.00013514,0.00006
 434,-0.00000535,-0.00004433,0.00038324,0.00018437,-0.00043844,-0.00023
 000,0.00004147,0.00021804,0.00002288,0.00001665,-0.00001560,0.00002713
 ,-0.00002161,-0.00001658,-0.00004155,0.00003038,-0.00001127,-0.0000107
 6,-0.00000273,0.00001013,0.00004105,0.00000480,-0.00001540,0.00048387,
 -0.00018556,-0.00037915,-0.00093137,0.00011813,0.00083721,-0.00151661,
 -0.00580757,0.00414827,0.00080507,-0.00164352,-0.00075619,-0.00660121,
 0.01433301,-0.00015885,0.00052106,-0.00031630,-0.00036697,-0.00011293,
 -0.00004062,0.00011736,0.00003280,0.00000503,-0.00001988,0.00025003,-0
 .00021860,-0.00013529,-0.00007802,-0.00016181,0.00022510,0.00335442,-0
 .00799206,0.00000228,0.01225571,0.01328883,-0.00874218,-0.00064531,0.0
 0505831,-0.00056390,-0.00069685,0.00118338,0.00106543,0.00303024,0.003
 48393,-0.00233865,-0.00064293,-0.00041731,-0.00017284,-0.00061729,-0.0
 0014379,-0.00056909,-0.23186721,-0.20193456,0.15427884,0.22241328,-0.0
 0000539,-0.00002055,-0.00000301,0.00000505,0.00001012,0.00000043,0.000
 01442,0.00005022,-0.00006735,0.00005632,-0.00003851,-0.00000574,0.0000
 2475,-0.00006256,-0.00000900,0.00000855,0.00000220,-0.00000506,-0.0000
 2225,-0.00004938,0.00003718,0.00000882,0.00000256,-0.00000704,-0.00000
 072,0.00000035,0.00000125,0.00000003,-0.00000100,-0.00000084,0.0000020
 6,0.00001529,0.00000211,0.00000122,-0.00000137,0.00000086,-0.00000071,
 -0.00000123,-0.00000042,-0.00002300,-0.00000703,0.00002292,0.00003491,
 0.00004570,-0.00004992,-0.00107112,-0.00243853,0.00165006,0.00018008,-
 0.00036533,0.00014630,0.00186853,0.00359842,-0.00219561,-0.00000644,-0
 .00002255,0.00001033,0.00001482,-0.00005194,0.00002489,-0.00001413,0.0
 0000742,0.00001611,-0.00012148,0.00013187,0.00004282,-0.00005800,0.000
 02551,0.00002643,-0.00343703,-0.00529337,0.00180989,-0.02379380,-0.036
 82210,0.01968385,0.00301879,-0.00459762,-0.00185391,-0.00087466,0.0010
 6697,0.00006295,0.00149474,0.00222443,0.00000394,-0.00074136,0.0004149
 2,-0.00029902,0.00051190,0.00007211,0.00044113,-0.15776735,-0.21419978
 ,0.11796152,0.18069242,0.25630478,-0.00006221,-0.00000150,0.00000355,0
 .00005522,0.00001205,-0.00000829,0.00004554,-0.00021234,0.00008733,0.0
 0000116,0.00002939,0.00003354,-0.00011629,-0.00001845,0.00003373,-0.00
 001514,0.00000292,0.00001623,-0.00015259,-0.00004818,0.00013472,0.0000
 9455,-0.00001738,-0.00007942,-0.00000851,-0.00000411,0.00000546,-0.000
 00967,0.00000687,0.00000821,0.00002162,-0.00000706,0.00001211,0.000002
 65,0.00000251,-0.00000524,-0.00001547,-0.00000272,0.00000443,-0.000167
 50,0.00008856,0.00012564,0.00036356,-0.00006810,-0.00028360,0.00148828
 ,0.00321776,-0.00358513,0.00013729,0.00067264,0.00056990,0.00304121,-0
 .00740483,0.00120648,-0.00021252,0.00013417,0.00013039,0.00003012,0.00
 004283,-0.00010536,0.00001211,0.00000273,0.00000854,-0.00006617,-0.000
 01868,-0.00003243,0.00010568,0.00008704,-0.00001196,-0.00205053,0.0038
 9422,-0.00411023,-0.00254324,-0.00095765,0.00122737,-0.00010625,-0.000
 34071,0.00094017,-0.00014547,-0.00191917,0.00018873,-0.00039815,-0.000
 60609,0.00282279,0.00031002,-0.00052481,-0.00011708,-0.00095635,0.0004
 6309,-0.00085601,0.14695167,0.14094307,-0.11134313,-0.14563462,-0.1374
 4805,0.11297857\\-0.00000046,0.00001124,0.00000660,-0.00000273,0.00000
 262,-0.00000256,-0.00000202,0.00000148,-0.00000116,-0.00000157,-0.0000
 0592,0.00000373,-0.00000253,0.00000170,0.00000285,0.00000291,-0.000005
 24,-0.00000176,0.00000273,-0.00000250,0.00000241,0.00000677,-0.0000030
 1,0.00000342,-0.00000394,0.00000720,-0.00000470,-0.00000493,-0.0000031
 8,-0.00000277,-0.00000413,-0.00001155,-0.00001331,-0.00000061,-0.00000
 432,0.00000550,0.00000538,0.00000322,-0.00000057,0.00000324,-0.0000009
 7,-0.00000037,-0.00000361,0.00000524,-0.00000701,0.00000897,0.00000043
 ,-0.00001450,-0.00000096,-0.00000369,-0.00000043,0.00000020,0.00000520
 ,0.00001407,0.00000477,0.00000232,0.00000209,-0.00000034,-0.00000082,0
 .00000057,0.00000195,0.00000546,-0.00000297,0.00000151,-0.00000012,0.0
 0000063,-0.00000358,0.00000546,0.00000179,-0.00000212,-0.00000525,-0.0
 0000389,0.00002423,-0.00000718,0.00000217,-0.00000392,-0.00000394,0.00
 000514,-0.00000069,-0.00000097,-0.00000550,-0.00002817,-0.00000247,0.0
 0000518,0.00000465,-0.00000782,0.00000177,0.00000287,0.00000483,0.0000
 0070,-0.00001022,0.00000959,0.00000533,0.00000635,0.00000297,-0.000002
 45\\\@


 MOM AND DAD WENT TO ALPHA CENTAURI AND ALL
 I GOT WAS THIS DUMB T-SHIRT.
 Job cpu time:       0 days  9 hours 19 minutes 54.6 seconds.
 Elapsed time:       0 days  0 hours 15 minutes 34.2 seconds.
 File lengths (MBytes):  RWF=   1017 Int=      0 D2E=      0 Chk=     35 Scr=      1
 Normal termination of Gaussian 16 at Fri Jun 28 18:41:12 2019.
