 Entering Gaussian System, Link 0=g16
 Initial command:
 /nopt/nrel/apps/gaussian/g16B/g16/l1.exe "/dev/shm/Gau-43987.inp" -scrdir="/dev/shm/"
 Default linda workers: r6i0n0
 Default is to use  36 SMP processors on each worker.
 Entering Link 1 = /nopt/nrel/apps/gaussian/g16B/g16/l1.exe PID=     43988.
  
 Copyright (c) 1988-2017, Gaussian, Inc.  All Rights Reserved.
  
 This is part of the Gaussian(R) 16 program.  It is based on
 the Gaussian(R) 09 system (copyright 2009, Gaussian, Inc.),
 the Gaussian(R) 03 system (copyright 2003, Gaussian, Inc.),
 the Gaussian(R) 98 system (copyright 1998, Gaussian, Inc.),
 the Gaussian(R) 94 system (copyright 1995, Gaussian, Inc.),
 the Gaussian 92(TM) system (copyright 1992, Gaussian, Inc.),
 the Gaussian 90(TM) system (copyright 1990, Gaussian, Inc.),
 the Gaussian 88(TM) system (copyright 1988, Gaussian, Inc.),
 the Gaussian 86(TM) system (copyright 1986, Carnegie Mellon
 University), and the Gaussian 82(TM) system (copyright 1983,
 Carnegie Mellon University). Gaussian is a federally registered
 trademark of Gaussian, Inc.
  
 This software contains proprietary and confidential information,
 including trade secrets, belonging to Gaussian, Inc.
  
 This software is provided under written license and may be
 used, copied, transmitted, or stored only in accord with that
 written license.
  
 The following legend is applicable only to US Government
 contracts under FAR:
  
                    RESTRICTED RIGHTS LEGEND
  
 Use, reproduction and disclosure by the US Government is
 subject to restrictions as set forth in subparagraphs (a)
 and (c) of the Commercial Computer Software - Restricted
 Rights clause in FAR 52.227-19.
  
 Gaussian, Inc.
 340 Quinnipiac St., Bldg. 40, Wallingford CT 06492
  
  
 ---------------------------------------------------------------
 Warning -- This program may not be used in any manner that
 competes with the business of Gaussian, Inc. or will provide
 assistance to any competitor of Gaussian, Inc.  The licensee
 of this program is prohibited from giving any competitor of
 Gaussian, Inc. access to this program.  By using this program,
 the user acknowledges that Gaussian, Inc. is engaged in the
 business of creating and licensing software in the field of
 computational chemistry and represents and warrants to the
 licensee that it is not a competitor of Gaussian, Inc. and that
 it will not use this program in any manner prohibited above.
 ---------------------------------------------------------------
  

 Cite this work as:
 Gaussian 16, Revision B.01,
 M. J. Frisch, G. W. Trucks, H. B. Schlegel, G. E. Scuseria, 
 M. A. Robb, J. R. Cheeseman, G. Scalmani, V. Barone, 
 G. A. Petersson, H. Nakatsuji, X. Li, M. Caricato, A. V. Marenich, 
 J. Bloino, B. G. Janesko, R. Gomperts, B. Mennucci, H. P. Hratchian, 
 J. V. Ortiz, A. F. Izmaylov, J. L. Sonnenberg, D. Williams-Young, 
 F. Ding, F. Lipparini, F. Egidi, J. Goings, B. Peng, A. Petrone, 
 T. Henderson, D. Ranasinghe, V. G. Zakrzewski, J. Gao, N. Rega, 
 G. Zheng, W. Liang, M. Hada, M. Ehara, K. Toyota, R. Fukuda, 
 J. Hasegawa, M. Ishida, T. Nakajima, Y. Honda, O. Kitao, H. Nakai, 
 T. Vreven, K. Throssell, J. A. Montgomery, Jr., J. E. Peralta, 
 F. Ogliaro, M. J. Bearpark, J. J. Heyd, E. N. Brothers, K. N. Kudin, 
 V. N. Staroverov, T. A. Keith, R. Kobayashi, J. Normand, 
 K. Raghavachari, A. P. Rendell, J. C. Burant, S. S. Iyengar, 
 J. Tomasi, M. Cossi, J. M. Millam, M. Klene, C. Adamo, R. Cammi, 
 J. W. Ochterski, R. L. Martin, K. Morokuma, O. Farkas, 
 J. B. Foresman, and D. J. Fox, Gaussian, Inc., Wallingford CT, 2016.
 
 ******************************************
 Gaussian 16:  ES64L-G16RevB.01 20-Dec-2017
                 1-Jul-2019 
 ******************************************
 %RWF=/dev/shm/,5GB,/tmp/scratch/925440/,-1
 %NoSave
 %OldChk=pet_mono_671.chk
 %Chk=/dev/shm/pet_mono_671_tzvp.chk
 SetLPE:    new flags="-opt 'Tsnet.Node.lindarsharg: ssh'  -nodelist 'r6i0n0.ib0.cm.hpc.nrel.gov' -env GAUSS_MDEF=9663676416 -env GAUSS_EXEDIR="/nopt/nrel/apps/gaussian/g16B/g16/bsd:/nopt/nrel/apps/gaussian/g16B/g16/local:/nopt/nrel/apps/gaussian/g16B/g16/extras:/nopt/nrel/apps/gaussian/g16B/g16""
 Will use up to    1 processors via Linda.
 Copying data from "pet_mono_671.chk" to current chk file "/dev/shm/pet_mono_671_tzvp.chk"
 IOpt=  2 FromEx=T IUOpen= 4 IOptOp= 5 NList=   0 IFRang= 0 IUIn= 4 IUOut= 2.
 Default route: CacheSize=180224 MaxDisk=256GB
 ----------------------------------------------------------------------
 # geom=allcheck guess=read m062x/Def2TZVP nosymm scf=xqc opt=ReadFC fr
 eq=NoRaman
 ----------------------------------------------------------------------
 1/4=180224,10=3,18=20,19=15,26=3,29=7,38=1/1,3;
 2/4=180224,9=110,12=2,15=1,40=1/2;
 3/4=180224,5=44,7=101,11=2,14=-4,25=1,30=1,71=1,74=-55,116=-2/1,2,3;
 4/4=180224,5=1/1;
 5/4=180224,5=2,8=3,13=1,38=6/2,8;
 6/4=180224,7=2,8=2,9=2,10=2,28=1/1;
 7/4=180224,30=1/1,2,3,16;
 1/4=180224,18=20,19=15,26=3/3(2);
 2/4=180224,9=110,15=1/2;
 99/4=180224/99;
 2/4=180224,9=110,15=1/2;
 3/4=180224,5=44,7=101,11=2,14=-2,25=1,30=1,71=1,74=-55/1,2,3;
 4/4=180224,5=5,16=3,69=1/1;
 5/4=180224,5=2,8=3,13=1,38=5/2,8;
 7/4=180224,30=1/1,2,3,16;
 1/4=180224,18=20,19=15,26=3/3(-5);
 2/4=180224,9=110,15=1/2;
 6/4=180224,7=2,8=2,9=2,10=2,19=2,28=1/1;
 99/4=180224,9=1/99;
 Structure from the checkpoint file:  "/dev/shm/pet_mono_671_tzvp.chk"
 --------------------------
 narrow results from confab
 --------------------------
 Charge =  0 Multiplicity = 1
 Redundant internal coordinates found in file.  (old form).
 O,0,0.3387214312,4.3077392607,-0.8423078064
 H,0,0.9466630505,3.6021979632,-0.5850542523
 C,0,-0.5201923268,2.5386287059,5.0089785788
 H,0,-0.658471421,1.5504295616,5.4485849936
 C,0,0.1913337313,2.716858405,3.8294373557
 H,0,0.6380069226,1.8751429027,3.2994365048
 O,0,1.6141952408,3.2079569374,1.4437988447
 C,0,1.9342313248,5.6496222216,0.4150502834
 H,0,2.7696183745,4.9379363278,0.3427373434
 H,0,2.3352067141,6.6681315332,0.4920602687
 C,0,1.0105007162,5.5311155017,-0.7852455769
 H,0,0.2423707219,6.3173326677,-0.7302896949
 H,0,1.6170492754,5.7280824777,-1.6909498066
 C,0,0.3441214794,4.0012743146,3.2981765597
 C,0,1.1207284345,4.1393396411,2.0291229355
 O,0,-2.2982657734,4.526904183,7.4681594541
 C,0,-1.0786369994,3.6449445804,5.6567177438
 C,0,-1.8317003347,3.4000602039,6.9237982134
 O,0,1.2250189625,5.4090480346,1.6280986416
 C,0,-0.215935051,5.1077355808,3.9437039853
 H,0,-0.0898701538,6.0999163941,3.512156004
 C,0,-0.9285900381,4.9292377457,5.1250309338
 H,0,-1.3745733013,5.7782015651,5.6416659463
 O,0,-1.9833250279,2.3070470143,7.4095756098
 C,0,-4.5144547438,4.1471647956,8.3798635932
 H,0,-4.9367168352,5.0194089966,7.8582831758
 H,0,-5.037905468,4.0617177695,9.3523689071
 C,0,-3.0464617567,4.4029823658,8.6753152753
 H,0,-2.6176240619,3.5899831113,9.2792743339
 H,0,-2.9222530488,5.3526361906,9.2108772851
 O,0,-4.723657536,3.0385427119,7.5562767559
 H,0,-4.1161325022,2.3336803348,7.8162976104
 Recover connectivity data from disk.

 GradGradGradGradGradGradGradGradGradGradGradGradGradGradGradGradGradGrad
 Berny optimization.
 Initialization pass.
 Force constant matrix read from checkpoint file:
 "/dev/shm/pet_mono_671_tzvp.chk"
                           ----------------------------
                           !    Initial Parameters    !
                           ! (Angstroms and Degrees)  !
 --------------------------                            --------------------------
 ! Name  Definition              Value          Derivative Info.                !
 --------------------------------------------------------------------------------
 ! R1    R(1,2)                  0.9662         D2E/DX2 =    0.5517             !
 ! R2    R(1,11)                 1.3969         D2E/DX2 =    0.4407             !
 ! R3    R(3,4)                  1.0904         D2E/DX2 =    0.3603             !
 ! R4    R(3,5)                  1.389          D2E/DX2 =    0.4851             !
 ! R5    R(3,17)                 1.3983         D2E/DX2 =    0.4688             !
 ! R6    R(5,6)                  1.0904         D2E/DX2 =    0.3584             !
 ! R7    R(5,14)                 1.3983         D2E/DX2 =    0.4735             !
 ! R8    R(7,15)                 1.2056         D2E/DX2 =    1.0531             !
 ! R9    R(8,9)                  1.0998         D2E/DX2 =    0.3478             !
 ! R10   R(8,10)                 1.0973         D2E/DX2 =    0.3456             !
 ! R11   R(8,11)                 1.5192         D2E/DX2 =    0.3195             !
 ! R12   R(8,19)                 1.4256         D2E/DX2 =    0.4403             !
 ! R13   R(11,12)                1.1005         D2E/DX2 =    0.3484             !
 ! R14   R(11,13)                1.1077         D2E/DX2 =    0.3439             !
 ! R15   R(14,15)                1.4942         D2E/DX2 =    0.336              !
 ! R16   R(14,20)                1.3981         D2E/DX2 =    0.4711             !
 ! R17   R(15,19)                1.3356         D2E/DX2 =    0.5656             !
 ! R18   R(16,18)                1.3356         D2E/DX2 =    0.5946             !
 ! R19   R(16,28)                1.4256         D2E/DX2 =    0.4345             !
 ! R20   R(17,18)                1.4942         D2E/DX2 =    0.3389             !
 ! R21   R(17,22)                1.3981         D2E/DX2 =    0.4754             !
 ! R22   R(18,24)                1.2057         D2E/DX2 =    1.0453             !
 ! R23   R(20,21)                1.0893         D2E/DX2 =    0.3584             !
 ! R24   R(20,22)                1.3911         D2E/DX2 =    0.4884             !
 ! R25   R(22,23)                1.0893         D2E/DX2 =    0.3577             !
 ! R26   R(25,26)                1.1005         D2E/DX2 =    0.3489             !
 ! R27   R(25,27)                1.1077         D2E/DX2 =    0.3432             !
 ! R28   R(25,28)                1.5191         D2E/DX2 =    0.3457             !
 ! R29   R(25,31)                1.3968         D2E/DX2 =    0.4371             !
 ! R30   R(28,29)                1.0998         D2E/DX2 =    0.3487             !
 ! R31   R(28,30)                1.0973         D2E/DX2 =    0.3461             !
 ! R32   R(31,32)                0.9662         D2E/DX2 =    0.553              !
 ! A1    A(2,1,11)             109.0295         D2E/DX2 =    0.1604             !
 ! A2    A(4,3,5)              121.5757         D2E/DX2 =    0.16               !
 ! A3    A(4,3,17)             118.6608         D2E/DX2 =    0.1599             !
 ! A4    A(5,3,17)             119.7635         D2E/DX2 =    0.2501             !
 ! A5    A(3,5,6)              121.5718         D2E/DX2 =    0.1602             !
 ! A6    A(3,5,14)             119.7664         D2E/DX2 =    0.2499             !
 ! A7    A(6,5,14)             118.6618         D2E/DX2 =    0.1601             !
 ! A8    A(9,8,10)             109.1282         D2E/DX2 =    0.1582             !
 ! A9    A(9,8,11)             111.0644         D2E/DX2 =    0.1551             !
 ! A10   A(9,8,19)             108.9426         D2E/DX2 =    0.165              !
 ! A11   A(10,8,11)            110.4896         D2E/DX2 =    0.169              !
 ! A12   A(10,8,19)            106.1831         D2E/DX2 =    0.1606             !
 ! A13   A(11,8,19)            110.8932         D2E/DX2 =    0.2608             !
 ! A14   A(1,11,8)             113.1418         D2E/DX2 =    0.2764             !
 ! A15   A(1,11,12)            106.9806         D2E/DX2 =    0.1649             !
 ! A16   A(1,11,13)            112.6856         D2E/DX2 =    0.16               !
 ! A17   A(8,11,12)            109.2203         D2E/DX2 =    0.155              !
 ! A18   A(8,11,13)            107.4088         D2E/DX2 =    0.1529             !
 ! A19   A(12,11,13)           107.2165         D2E/DX2 =    0.1592             !
 ! A20   A(5,14,15)            117.6675         D2E/DX2 =    0.2493             !
 ! A21   A(5,14,20)            120.5144         D2E/DX2 =    0.2503             !
 ! A22   A(15,14,20)           121.8181         D2E/DX2 =    0.2491             !
 ! A23   A(7,15,14)            123.6196         D2E/DX2 =    0.2535             !
 ! A24   A(7,15,19)            123.8258         D2E/DX2 =    0.2677             !
 ! A25   A(14,15,19)           112.5466         D2E/DX2 =    0.2588             !
 ! A26   A(18,16,28)           117.0729         D2E/DX2 =    0.4053             !
 ! A27   A(3,17,18)            117.6732         D2E/DX2 =    0.2486             !
 ! A28   A(3,17,22)            120.5141         D2E/DX2 =    0.2505             !
 ! A29   A(18,17,22)           121.8127         D2E/DX2 =    0.2501             !
 ! A30   A(16,18,17)           112.5458         D2E/DX2 =    0.266              !
 ! A31   A(16,18,24)           123.8292         D2E/DX2 =    0.3096             !
 ! A32   A(17,18,24)           123.6166         D2E/DX2 =    0.2648             !
 ! A33   A(8,19,15)            117.0495         D2E/DX2 =    0.3414             !
 ! A34   A(14,20,21)           119.4444         D2E/DX2 =    0.1598             !
 ! A35   A(14,20,22)           119.7195         D2E/DX2 =    0.2504             !
 ! A36   A(21,20,22)           120.8359         D2E/DX2 =    0.16               !
 ! A37   A(17,22,20)           119.7219         D2E/DX2 =    0.25               !
 ! A38   A(17,22,23)           119.448          D2E/DX2 =    0.1601             !
 ! A39   A(20,22,23)           120.83           D2E/DX2 =    0.1601             !
 ! A40   A(26,25,27)           107.2119         D2E/DX2 =    0.1596             !
 ! A41   A(26,25,28)           109.2375         D2E/DX2 =    0.1616             !
 ! A42   A(26,25,31)           106.9859         D2E/DX2 =    0.1615             !
 ! A43   A(27,25,28)           107.3904         D2E/DX2 =    0.1584             !
 ! A44   A(27,25,31)           112.6837         D2E/DX2 =    0.1575             !
 ! A45   A(28,25,31)           113.1448         D2E/DX2 =    0.271              !
 ! A46   A(16,28,25)           110.9229         D2E/DX2 =    0.2676             !
 ! A47   A(16,28,29)           108.9418         D2E/DX2 =    0.1641             !
 ! A48   A(16,28,30)           106.1791         D2E/DX2 =    0.1538             !
 ! A49   A(25,28,29)           111.0454         D2E/DX2 =    0.1567             !
 ! A50   A(25,28,30)           110.49           D2E/DX2 =    0.1537             !
 ! A51   A(29,28,30)           109.122          D2E/DX2 =    0.1592             !
 ! A52   A(25,31,32)           109.0357         D2E/DX2 =    0.1633             !
 ! D1    D(2,1,11,8)           -40.1839         D2E/DX2 =    0.0152             !
 ! D2    D(2,1,11,12)         -160.5045         D2E/DX2 =    0.0145             !
 ! D3    D(2,1,11,13)           81.9101         D2E/DX2 =    0.0163             !
 ! D4    D(4,3,5,6)             -0.0031         D2E/DX2 =    0.023              !
 ! D5    D(4,3,5,14)           179.9242         D2E/DX2 =    0.023              !
 ! D6    D(17,3,5,6)          -179.9263         D2E/DX2 =    0.023              !
 ! D7    D(17,3,5,14)            0.001          D2E/DX2 =    0.023              !
 ! D8    D(4,3,17,18)            0.2142         D2E/DX2 =    0.0219             !
 ! D9    D(4,3,17,22)         -179.8053         D2E/DX2 =    0.0219             !
 ! D10   D(5,3,17,18)         -179.8604         D2E/DX2 =    0.022              !
 ! D11   D(5,3,17,22)            0.1201         D2E/DX2 =    0.0219             !
 ! D12   D(3,5,14,15)          179.8684         D2E/DX2 =    0.0221             !
 ! D13   D(3,5,14,20)           -0.1202         D2E/DX2 =    0.0221             !
 ! D14   D(6,5,14,15)           -0.2022         D2E/DX2 =    0.0221             !
 ! D15   D(6,5,14,20)          179.8093         D2E/DX2 =    0.022              !
 ! D16   D(9,8,11,1)            66.2658         D2E/DX2 =    0.0085             !
 ! D17   D(9,8,11,12)         -174.6983         D2E/DX2 =    0.0095             !
 ! D18   D(9,8,11,13)          -58.7336         D2E/DX2 =    0.0074             !
 ! D19   D(10,8,11,1)         -172.4834         D2E/DX2 =    0.0085             !
 ! D20   D(10,8,11,12)         -53.4475         D2E/DX2 =    0.0066             !
 ! D21   D(10,8,11,13)          62.5172         D2E/DX2 =    0.0066             !
 ! D22   D(19,8,11,1)          -55.0244         D2E/DX2 =    0.0088             !
 ! D23   D(19,8,11,12)          64.0115         D2E/DX2 =    0.0065             !
 ! D24   D(19,8,11,13)         179.9762         D2E/DX2 =    0.0088             !
 ! D25   D(9,8,19,15)          -35.7405         D2E/DX2 =    0.0152             !
 ! D26   D(10,8,19,15)        -153.1495         D2E/DX2 =    0.0239             !
 ! D27   D(11,8,19,15)          86.7901         D2E/DX2 =    0.0415             !
 ! D28   D(5,14,15,7)            0.2169         D2E/DX2 =    0.018              !
 ! D29   D(5,14,15,19)        -178.7837         D2E/DX2 =    0.0169             !
 ! D30   D(20,14,15,7)        -179.7947         D2E/DX2 =    0.0175             !
 ! D31   D(20,14,15,19)          1.2047         D2E/DX2 =    0.0173             !
 ! D32   D(5,14,20,21)        -179.7343         D2E/DX2 =    0.022              !
 ! D33   D(5,14,20,22)           0.118          D2E/DX2 =    0.0221             !
 ! D34   D(15,14,20,21)          0.2776         D2E/DX2 =    0.022              !
 ! D35   D(15,14,20,22)       -179.87           D2E/DX2 =    0.022              !
 ! D36   D(7,15,19,8)            1.7874         D2E/DX2 =    0.0336             !
 ! D37   D(14,15,19,8)        -179.2144         D2E/DX2 =    0.0284             !
 ! D38   D(28,16,18,17)        179.31           D2E/DX2 =    0.0319             !
 ! D39   D(28,16,18,24)         -1.7121         D2E/DX2 =    0.0397             !
 ! D40   D(18,16,28,25)        -86.8086         D2E/DX2 =    0.0475             !
 ! D41   D(18,16,28,29)         35.7172         D2E/DX2 =    0.0166             !
 ! D42   D(18,16,28,30)        153.1164         D2E/DX2 =    0.0259             !
 ! D43   D(3,17,18,16)         178.8046         D2E/DX2 =    0.0177             !
 ! D44   D(3,17,18,24)          -0.1758         D2E/DX2 =    0.019              !
 ! D45   D(22,17,18,16)         -1.1757         D2E/DX2 =    0.0186             !
 ! D46   D(22,17,18,24)        179.8439         D2E/DX2 =    0.0182             !
 ! D47   D(3,17,22,20)          -0.1221         D2E/DX2 =    0.0221             !
 ! D48   D(3,17,22,23)         179.7315         D2E/DX2 =    0.022              !
 ! D49   D(18,17,22,20)        179.8576         D2E/DX2 =    0.0221             !
 ! D50   D(18,17,22,23)         -0.2888         D2E/DX2 =    0.0221             !
 ! D51   D(14,20,22,17)          0.003          D2E/DX2 =    0.0232             !
 ! D52   D(14,20,22,23)       -179.8486         D2E/DX2 =    0.0231             !
 ! D53   D(21,20,22,17)        179.8533         D2E/DX2 =    0.0231             !
 ! D54   D(21,20,22,23)          0.0017         D2E/DX2 =    0.0231             !
 ! D55   D(26,25,28,16)        -64.0075         D2E/DX2 =    0.007              !
 ! D56   D(26,25,28,29)        174.6959         D2E/DX2 =    0.0109             !
 ! D57   D(26,25,28,30)         53.4653         D2E/DX2 =    0.0069             !
 ! D58   D(27,25,28,16)       -179.9657         D2E/DX2 =    0.0116             !
 ! D59   D(27,25,28,29)         58.7377         D2E/DX2 =    0.0069             !
 ! D60   D(27,25,28,30)        -62.4929         D2E/DX2 =    0.0067             !
 ! D61   D(31,25,28,16)         55.0488         D2E/DX2 =    0.0156             !
 ! D62   D(31,25,28,29)        -66.2478         D2E/DX2 =    0.01               !
 ! D63   D(31,25,28,30)        172.5216         D2E/DX2 =    0.0076             !
 ! D64   D(26,25,31,32)        160.4051         D2E/DX2 =    0.0198             !
 ! D65   D(27,25,31,32)        -82.0128         D2E/DX2 =    0.0189             !
 ! D66   D(28,25,31,32)         40.0577         D2E/DX2 =    0.016              !
 --------------------------------------------------------------------------------
 Trust Radius=3.00D-01 FncErr=1.00D-07 GrdErr=1.00D-06 EigMax=2.50D+02 EigMin=1.00D-04
 Number of steps in this run=    160 maximum allowed number of steps=    192.
 GradGradGradGradGradGradGradGradGradGradGradGradGradGradGradGradGradGrad

                          Input orientation:                          
 ---------------------------------------------------------------------
 Center     Atomic      Atomic             Coordinates (Angstroms)
 Number     Number       Type             X           Y           Z
 ---------------------------------------------------------------------
      1          8           0        0.338721    4.307739   -0.842308
      2          1           0        0.946663    3.602198   -0.585054
      3          6           0       -0.520192    2.538629    5.008979
      4          1           0       -0.658471    1.550430    5.448585
      5          6           0        0.191334    2.716858    3.829437
      6          1           0        0.638007    1.875143    3.299437
      7          8           0        1.614195    3.207957    1.443799
      8          6           0        1.934231    5.649622    0.415050
      9          1           0        2.769618    4.937936    0.342737
     10          1           0        2.335207    6.668132    0.492060
     11          6           0        1.010501    5.531116   -0.785246
     12          1           0        0.242371    6.317333   -0.730290
     13          1           0        1.617049    5.728082   -1.690950
     14          6           0        0.344121    4.001274    3.298177
     15          6           0        1.120728    4.139340    2.029123
     16          8           0       -2.298266    4.526904    7.468159
     17          6           0       -1.078637    3.644945    5.656718
     18          6           0       -1.831700    3.400060    6.923798
     19          8           0        1.225019    5.409048    1.628099
     20          6           0       -0.215935    5.107736    3.943704
     21          1           0       -0.089870    6.099916    3.512156
     22          6           0       -0.928590    4.929238    5.125031
     23          1           0       -1.374573    5.778202    5.641666
     24          8           0       -1.983325    2.307047    7.409576
     25          6           0       -4.514455    4.147165    8.379864
     26          1           0       -4.936717    5.019409    7.858283
     27          1           0       -5.037905    4.061718    9.352369
     28          6           0       -3.046462    4.402982    8.675315
     29          1           0       -2.617624    3.589983    9.279274
     30          1           0       -2.922253    5.352636    9.210877
     31          8           0       -4.723658    3.038543    7.556277
     32          1           0       -4.116133    2.333680    7.816298
 ---------------------------------------------------------------------
                    Distance matrix (angstroms):
                    1          2          3          4          5
     1  O    0.000000
     2  H    0.966210   0.000000
     3  C    6.172928   5.880140   0.000000
     4  H    6.940640   6.571987   1.090373   0.000000
     5  C    4.937391   4.565313   1.389011   2.168955   0.000000
     6  H    4.812602   4.262306   2.168911   2.530837   1.090368
     7  O    2.839479   2.171928   4.208814   4.893948   2.820813
     8  C    2.434595   2.483434   6.066849   6.990133   4.826679
     9  H    2.776822   2.442982   6.193007   7.021160   4.872147
    10  H    3.367186   3.533862   6.753418   7.727879   5.598825
    11  C    1.396851   1.940328   6.698584   7.582346   5.466843
    12  H    2.015018   2.808750   6.913704   7.855786   5.810089
    13  H    2.090859   2.488334   7.722011   8.579262   6.447853
    14  C    4.151814   3.949911   2.411061   3.411171   1.398323
    15  C    2.980773   2.674461   3.759579   4.643353   2.475552
    16  O    8.721560   8.731489   3.627996   3.953101   4.765991
    17  C    6.684724   6.562270   1.398342   2.146358   2.411042
    18  C    8.114617   8.008934   2.475611   2.640805   3.759588
    19  O    2.846280   2.870581   4.766070   5.747398   3.627986
    20  C    4.884009   4.912019   2.797801   3.887793   2.428007
    21  H    4.728313   4.909188   3.886956   4.977037   3.409520
    22  C    6.132004   6.154891   2.428017   3.404996   2.797752
    23  H    6.865825   6.992508   3.409559   4.292335   3.886909
    24  O    8.802741   8.612569   2.820860   2.484591   4.208857
    25  C   10.422454  10.511448   5.468490   5.495820   6.700493
    26  H   10.199853  10.388099   5.811927   6.011975   6.915941
    27  H   11.528230  11.609418   6.449385   6.381657   7.723753
    28  C   10.102162  10.116360   4.826995   4.924565   6.067031
    29  H   10.568897  10.488530   4.872370   4.761537   6.193005
    30  H   10.620372  10.676742   5.598615   5.808298   6.752899
    31  O    9.888112   9.937380   4.940421   4.814830   6.176565
    32  H    9.935496   9.890589   4.566599   4.263211   5.881849
                    6          7          8          9         10
     6  H    0.000000
     7  O    2.484498   0.000000
     8  C    4.924081   2.668797   0.000000
     9  H    4.760939   2.353756   1.099817   0.000000
    10  H    5.808148   3.660392   1.097303   1.790136   0.000000
    11  C    5.494499   3.275691   1.519221   2.172257   2.163137
    12  H    6.010680   4.034449   2.149426   3.072638   2.448910
    13  H    6.380253   4.022150   2.131196   2.467515   2.482937
    14  C    2.146347   2.383518   3.682108   3.936368   4.353256
    15  C    2.640701   1.205648   2.355413   2.490079   3.198798
    16  O    5.747329   7.303417   8.301860   8.753516   8.644066
    17  C    3.411135   5.019063   6.369551   6.687248   6.889679
    18  C    4.643363   6.476225   7.848985   8.176036   8.331306
    19  O    3.953029   2.242817   1.425603   2.063949   2.026917
    20  C    3.404989   3.634290   4.167524   4.680739   4.566947
    21  H    4.292291   3.942762   3.727173   4.424035   3.914696
    22  C    3.887739   4.793750   5.558653   6.045424   5.927946
    23  H    4.976986   5.758557   6.187264   6.779308   6.408813
    24  O    4.893993   7.024549   8.685818   8.913599   9.247745
    25  C    7.584239   9.303304  10.357663  10.875589  10.746654
    26  H    7.857928   9.345663  10.149326  10.764649  10.481431
    27  H    8.581089  10.369418  11.445864  11.954022  11.817836
    28  C    6.990376   8.685887   9.725913  10.175697  10.052807
    29  H    7.021273   8.913412  10.175263  10.521457  10.546121
    30  H    7.727454   9.246974  10.051876  10.545771  10.265923
    31  O    6.944180   8.806785  10.106549  10.573175  10.625659
    32  H    6.573746   8.614508  10.118342  10.490463  10.679499
                   11         12         13         14         15
    11  C    0.000000
    12  H    1.100537   0.000000
    13  H    1.107699   1.777590   0.000000
    14  C    4.411214   4.647905   5.430800   0.000000
    15  C    3.141633   3.623468   4.075461   1.494215   0.000000
    16  O    8.948468   8.767841  10.033036   4.964600   6.436058
    17  C    7.030009   7.048445   8.099037   2.777396   4.270958
    18  C    8.488160   8.449693   9.566998   4.270924   5.763785
    19  O    2.425933   2.711563   3.357313   2.355200   1.335611
    20  C    4.903709   4.849679   5.957683   1.398079   2.527861
    21  H    4.472361   4.260986   5.488547   2.153703   2.740218
    22  C    6.249296   6.130476   7.319565   2.412117   3.795826
    23  H    6.859652   6.595983   7.919569   3.406365   4.686456
    24  O    9.301221   9.343100  10.367533   5.019065   6.476242
    25  C   10.790722  10.503900  11.896047   7.032111   8.490422
    26  H   10.504372  10.112919  11.603530   7.051129   8.452590
    27  H   11.895948  11.602979  13.000772   8.100809   9.568946
    28  C   10.355377  10.146258  11.443936   6.369540   7.849003
    29  H   10.873171  10.761477  11.951977   6.686900   8.175681
    30  H   10.743411  10.477227  11.815078   6.888789   8.330389
    31  O   10.424706  10.201916  11.530368   6.688845   8.118992
    32  H   10.511542  10.387983  11.609440   6.564157   8.011024
                   16         17         18         19         20
    16  O    0.000000
    17  C    2.355137   0.000000
    18  C    1.335586   1.494177   0.000000
    19  O    6.877356   4.964742   6.436148   0.000000
    20  C    4.134641   2.412142   3.795763   2.743933   0.000000
    21  H    4.795971   3.406419   4.686416   2.399147   1.089288
    22  C    2.743745   1.398075   2.527757   4.134826   1.391141
    23  H    2.398965   2.153739   2.740143   4.796131   2.162185
    24  O    2.242852   2.383472   1.205673   7.303517   4.793724
    25  C    2.426293   4.412776   3.142525   8.950991   6.251358
    26  H    2.712228   4.649820   3.624456   8.771203   6.133312
    27  H    3.357420   5.432066   4.076211  10.035132   7.321148
    28  C    1.425615   3.682239   2.355697   8.301866   5.558480
    29  H    2.063964   3.936295   2.490384   8.753022   6.044832
    30  H    2.026884   4.352836   3.198842   8.643008   5.926824
    31  O    2.847018   4.154783   2.982305   8.726359   6.136107
    32  H    2.869855   3.950896   2.674388   8.733819   6.156615
                   21         22         23         24         25
    21  H    0.000000
    22  C    2.162245   0.000000
    23  H    2.507743   1.089290   0.000000
    24  O    5.758551   3.634212   3.942714   0.000000
    25  C    6.861834   4.905507   4.474021   3.276295   0.000000
    26  H    6.599109   4.852204   4.263569   4.034944   1.100528
    27  H    7.921199   5.958981   5.489593   4.022907   1.107731
    28  C    6.187021   4.167355   3.726858   2.669326   1.519124
    29  H    6.778566   4.680190   4.423310   2.354577   2.171948
    30  H    6.407515   4.565972   3.913526   3.660859   2.163065
    31  O    6.870146   4.887558   4.731578   2.840076   1.396819
    32  H    6.994352   4.913274   4.910183   2.171405   1.940359
                   26         27         28         29         30
    26  H    0.000000
    27  H    1.777556   0.000000
    28  C    2.149555   2.130894   0.000000
    29  H    3.072567   2.466909   1.099835   0.000000
    30  H    2.449207   2.482433   1.097313   1.790090   0.000000
    31  O    2.015052   2.090834   2.434528   2.776362   3.367163
    32  H    2.808605   2.489035   2.482764   2.442156   3.533312
                   31         32
    31  O    0.000000
    32  H    0.966193   0.000000
 Symmetry turned off by external request.
 Stoichiometry    C12H14O6
 Framework group  C1[X(C12H14O6)]
 Deg. of freedom    90
 Full point group                 C1      NOp   1
 Rotational constants (GHZ):           1.2393058           0.1423162           0.1388805
 Standard basis: def2TZVP (5D, 7F)
   642 basis functions,  1030 primitive gaussians,   732 cartesian basis functions
    67 alpha electrons       67 beta electrons
       nuclear repulsion energy      1287.8356662747 Hartrees.
 NAtoms=   32 NActive=   32 NUniq=   32 SFac= 1.00D+00 NAtFMM=   60 NAOKFM=F Big=F
 Integral buffers will be    131072 words long.
 Raffenetti 2 integral format.
 Two-electron integral symmetry is turned off.
