 Entering Gaussian System, Link 0=g16
 Initial command:
 /nopt/nrel/apps/gaussian/g16C_1/g16/l1.exe "/dev/shm/Gau-237955.inp" -scrdir="/dev/shm/"
 Default is to use a total of  36 processors:
                               36 via shared-memory
                                1 via Linda
 Entering Link 1 = /nopt/nrel/apps/gaussian/g16C_1/g16/l1.exe PID=    237956.
  
 Copyright (c) 1988-2019, Gaussian, Inc.  All Rights Reserved.
 ...
 ******************************************
 Gaussian 16:  ES64L-G16RevC.01  3-Jul-2019
                21-Nov-2020 
 ******************************************
 %RWF=/dev/shm/,5GB,/scratch/hmayes/pet_dimer_scan_neg_tzvp_long_5230408/,-1
 %NoSave
 %OldChk=pet_dimer.chk
 %Chk=/dev/shm/pet_dimer_scan_neg_tzvp_long.chk
 %CPU=0-35
 SetSPE:  set environment variable "MP_BIND" = "yes"
 SetSPE:  set environment variable "MP_BLIST" = "0,1,2,3,4,5,6,7,8,9,10,11,12,13,14,15,16,17,18,19,20,21,22,23,24,25,26,27,28,29,30,31,32,33,34,35"
 Will use up to   36 processors via shared memory.
 %Mem=72948012KB
 Copying data from "pet_dimer.chk" to current chk file "/dev/shm/pet_dimer_scan_neg_tzvp_long.chk"
 IOpt=  2 FromEx=T IUOpen= 4 IOptOp= 5 NList=   0 IFRang= 0 IUIn= 4 IUOut= 2.
 Default route: CacheSize=180224 MaxDisk=256GB
 ----------------------------------------------------------------------
 # m062x/Def2TZVP nosymm scf=xqc opt=(modredundant,ReadFC) CPHF=Grid=Fi
 ne guess=read geom=allcheck
 ----------------------------------------------------------------------
 1/4=180224,10=3,18=120,19=15,26=3,29=7,38=1/1,3;
 2/4=180224,9=110,12=2,15=1,40=1/2;
 3/4=180224,5=44,7=101,11=2,14=-4,25=1,30=1,71=1,74=-55,116=-2/1,2,3;
 4/4=180224,5=1/1;
 5/4=180224,5=2,8=3,13=1,38=6/2,8;
 6/4=180224,7=2,8=2,9=2,10=2,28=1/1;
 7/4=180224,30=1/1,2,3,16;
 1/4=180224,18=20,19=15,26=3/3(2);
 2/4=180224,9=110,15=1/2;
 99/4=180224/99;
 2/4=180224,9=110,15=1/2;
 3/4=180224,5=44,7=101,11=2,14=-2,25=1,30=1,71=1,74=-55/1,2,3;
 4/4=180224,5=5,16=3,69=1/1;
 5/4=180224,5=2,8=3,13=1,38=5/2,8;
 7/4=180224,30=1/1,2,3,16;
 1/4=180224,18=20,19=15,26=3/3(-5);
 2/4=180224,9=110,15=1/2;
 6/4=180224,7=2,8=2,9=2,10=2,19=2,28=1/1;
 99/4=180224,9=1/99;
 Structure from the checkpoint file:  "/dev/shm/pet_dimer_scan_neg_tzvp_long.chk"
 ---------------------------
 dimer from optimized trimer
 ---------------------------
 Charge =  0 Multiplicity = 1
 Redundant internal coordinates found in file.  (old form).
 O,0,3.3111536644,6.3811090688,-1.4362876083
 H,0,4.2280868437,6.1374735089,-1.2810172417
 C,0,-0.3820438297,2.4614181987,4.9816025274
 H,0,-0.606457396,1.5344001797,5.4894669116
 C,0,0.3688421663,2.4621690161,3.8191948782
 H,0,0.7463946621,1.5419460497,3.394287323
 O,0,1.8875347731,2.5860419033,1.4451775345
 C,0,2.4429792198,4.8261564372,0.1839783129
 H,0,1.9319451408,4.25085838,-0.5887457842
 H,0,3.4141897108,4.3596106288,0.3664316518
 C,0,2.5924343238,6.2769430315,-0.2277450191
 H,0,1.6093530768,6.7101843254,-0.4107232036
 H,0,3.065176465,6.8454475399,0.579562216
 C,0,0.6504051377,3.6620117649,3.1747019167
 C,0,1.4641163918,3.6018246285,1.9248680062
 O,0,-1.8774632867,2.5159417877,7.2846834871
 C,0,-0.8511278007,3.6656725989,5.4985740824
 C,0,-1.6639998824,3.7268332649,6.7470811787
 O,0,1.6767240149,4.8107216038,1.3891511592
 C,0,0.180843934,4.8660488958,3.6915398318
 H,0,0.4048973524,5.7924049553,3.1823578967
 C,0,-0.5697731535,4.8657109484,4.8540415289
 H,0,-0.9476741719,5.7860344938,5.2784467265
 O,0,-2.0875914332,4.7400035679,7.2310440236
 C,0,-5.5895787063,-1.2974990256,13.688702515
 H,0,-5.8135491577,-2.2238525446,14.1979249555
 C,0,-4.8390524645,-1.2971588271,12.5261417901
 H,0,-4.4611628587,-2.217479118,12.1017192377
 O,0,-3.3214422933,-1.1714523505,10.1490050681
 C,0,-2.7588784189,1.0604285434,8.8975123208
 H,0,-1.7766542347,0.625648206,9.0862423658
 H,0,-3.2551274924,0.4632922899,8.1316483053
 C,0,-4.5577913938,-0.0971247522,11.8815604469
 C,0,-3.7450442965,-0.1582886052,10.6329712779
 C,0,-2.6500081547,2.5081383548,8.4826493594
 H,0,-2.1537640283,3.1052822428,9.2485108164
 H,0,-3.6322341346,2.9429103855,8.2939136619
 O,0,-7.0852398568,-1.2421644572,15.9912459091
 C,0,-6.0591570175,-0.0934688736,14.2055429083
 C,0,-6.872810078,-0.0332884465,15.4554123941
 O,0,-3.5314194856,1.0526235707,10.095479103
 C,0,-5.0268796385,1.1071235253,12.3985413165
 H,0,-4.8025311849,2.0341388899,11.8906441634
 C,0,-5.7776913757,1.1063689631,13.560997704
 H,0,-6.1552689811,2.0265843434,13.9858987588
 O,0,-7.296441003,0.9824661806,15.9349796023
 C,0,-8.0003367287,-2.7083477127,17.6085398043
 H,0,-8.4728739589,-3.2772365318,16.8013757382
 H,0,-7.0170685586,-3.1411525676,17.7915387958
 C,0,-7.8514770374,-1.2575938894,17.1964368479
 H,0,-8.8228922536,-0.7915260148,17.0138518695
 H,0,-7.3406886864,-0.681870232,17.9690013831
 O,0,-8.7189434983,-2.8125169331,18.8171265104
 H,0,-9.6359189458,-2.5690013912,18.661882734
 Recover connectivity data from disk.
 The following ModRedundant input section has been read:
 D      41      30      35      16 S  18 -10.00                                
 

 GradGradGradGradGradGradGradGradGradGradGradGradGradGradGradGradGradGrad
 Berny optimization.
 Initialization pass.
 Force constant matrix read from checkpoint file:
 "/dev/shm/pet_dimer_scan_neg_tzvp_long.chk"
                           ----------------------------
                           !    Initial Parameters    !
                           ! (Angstroms and Degrees)  !
 --------------------------                            --------------------------
 ! Name  Definition              Value          Derivative Info.                !
 --------------------------------------------------------------------------------
 ! R1    R(1,2)                  0.9614         D2E/DX2 =    0.5394             !
 ! R2    R(1,11)                 1.41           D2E/DX2 =    0.3813             !
 ! R3    R(3,4)                  1.0806         D2E/DX2 =    0.3706             !
 ! R4    R(3,5)                  1.3838         D2E/DX2 =    0.415              !
 ! R5    R(3,17)                 1.392          D2E/DX2 =    0.3995             !
 ! R6    R(5,6)                  1.0816         D2E/DX2 =    0.3682             !
 ! R7    R(5,14)                 1.3908         D2E/DX2 =    0.4019             !
 ! R8    R(7,15)                 1.2005         D2E/DX2 =    0.8831             !
 ! R9    R(8,9)                  1.0905         D2E/DX2 =    0.3437             !
 ! R10   R(8,10)                 1.0928         D2E/DX2 =    0.338              !
 ! R11   R(8,11)                 1.5155         D2E/DX2 =    0.2991             !
 ! R12   R(8,19)                 1.4282         D2E/DX2 =    0.3428             !
 ! R13   R(11,12)                1.0898         D2E/DX2 =    0.3449             !
 ! R14   R(11,13)                1.0947         D2E/DX2 =    0.3318             !
 ! R15   R(14,15)                1.4926         D2E/DX2 =    0.321              !
 ! R16   R(14,20)                1.3919         D2E/DX2 =    0.3994             !
 ! R17   R(15,19)                1.3393         D2E/DX2 =    0.4304             !
 ! R18   R(16,18)                1.342          D2E/DX2 =    0.4244             !
 ! R19   R(16,35)                1.4255         D2E/DX2 =    0.351              !
 ! R20   R(17,18)                1.4911         D2E/DX2 =    0.3225             !
 ! R21   R(17,22)                1.3909         D2E/DX2 =    0.4018             !
 ! R22   R(18,24)                1.2001         D2E/DX2 =    0.885              !
 ! R23   R(20,21)                1.0806         D2E/DX2 =    0.3706             !
 ! R24   R(20,22)                1.3838         D2E/DX2 =    0.4151             !
 ! R25   R(22,23)                1.0816         D2E/DX2 =    0.3682             !
 ! R26   R(25,26)                1.0806         D2E/DX2 =    0.3706             !
 ! R27   R(25,27)                1.3838         D2E/DX2 =    0.4151             !
 ! R28   R(25,39)                1.3919         D2E/DX2 =    0.3994             !
 ! R29   R(27,28)                1.0816         D2E/DX2 =    0.3682             !
 ! R30   R(27,33)                1.3909         D2E/DX2 =    0.4018             !
 ! R31   R(29,34)                1.2001         D2E/DX2 =    0.885              !
 ! R32   R(30,31)                1.0906         D2E/DX2 =    0.3436             !
 ! R33   R(30,32)                1.0906         D2E/DX2 =    0.3433             !
 ! R34   R(30,35)                1.5099         D2E/DX2 =    0.3149             !
 ! R35   R(30,41)                1.4255         D2E/DX2 =    0.351              !
 ! R36   R(33,34)                1.4911         D2E/DX2 =    0.3225             !
 ! R37   R(33,42)                1.392          D2E/DX2 =    0.3995             !
 ! R38   R(34,41)                1.342          D2E/DX2 =    0.4244             !
 ! R39   R(35,36)                1.0906         D2E/DX2 =    0.3433             !
 ! R40   R(35,37)                1.0906         D2E/DX2 =    0.3436             !
 ! R41   R(38,40)                1.3393         D2E/DX2 =    0.4304             !
 ! R42   R(38,50)                1.4282         D2E/DX2 =    0.3427             !
 ! R43   R(39,40)                1.4926         D2E/DX2 =    0.321              !
 ! R44   R(39,44)                1.3908         D2E/DX2 =    0.4019             !
 ! R45   R(40,46)                1.2005         D2E/DX2 =    0.883              !
 ! R46   R(42,43)                1.0806         D2E/DX2 =    0.3706             !
 ! R47   R(42,44)                1.3838         D2E/DX2 =    0.415              !
 ! R48   R(44,45)                1.0816         D2E/DX2 =    0.3682             !
 ! R49   R(47,48)                1.0947         D2E/DX2 =    0.3317             !
 ! R50   R(47,49)                1.0898         D2E/DX2 =    0.3449             !
 ! R51   R(47,50)                1.5155         D2E/DX2 =    0.2991             !
 ! R52   R(47,53)                1.4099         D2E/DX2 =    0.3813             !
 ! R53   R(50,51)                1.0928         D2E/DX2 =    0.338              !
 ! R54   R(50,52)                1.0905         D2E/DX2 =    0.3437             !
 ! R55   R(53,54)                0.9614         D2E/DX2 =    0.5394             !
 ! A1    A(2,1,11)             109.2095         D2E/DX2 =    0.1779             !
 ! A2    A(4,3,5)              120.5268         D2E/DX2 =    0.0816             !
 ! A3    A(4,3,17)             119.8457         D2E/DX2 =    0.0816             !
 ! A4    A(5,3,17)             119.6275         D2E/DX2 =    0.0829             !
 ! A5    A(3,5,6)              121.2602         D2E/DX2 =    0.0801             !
 ! A6    A(3,5,14)             119.9716         D2E/DX2 =    0.0832             !
 ! A7    A(6,5,14)             118.7682         D2E/DX2 =    0.0814             !
 ! A8    A(9,8,10)             108.0326         D2E/DX2 =    0.0291             !
 ! A9    A(9,8,11)             111.0226         D2E/DX2 =    0.0663             !
 ! A10   A(9,8,19)             109.9259         D2E/DX2 =    0.0598             !
 ! A11   A(10,8,11)            111.495          D2E/DX2 =    0.0674             !
 ! A12   A(10,8,19)            109.3487         D2E/DX2 =    0.0606             !
 ! A13   A(11,8,19)            107.0082         D2E/DX2 =    0.1539             !
 ! A14   A(1,11,8)             110.7241         D2E/DX2 =    0.1527             !
 ! A15   A(1,11,12)            106.6513         D2E/DX2 =    0.0596             !
 ! A16   A(1,11,13)            111.9385         D2E/DX2 =    0.0643             !
 ! A17   A(8,11,12)            109.7084         D2E/DX2 =    0.0717             !
 ! A18   A(8,11,13)            109.8394         D2E/DX2 =    0.0721             !
 ! A19   A(12,11,13)           107.8739         D2E/DX2 =    0.0283             !
 ! A20   A(5,14,15)            117.6206         D2E/DX2 =    0.1418             !
 ! A21   A(5,14,20)            120.3921         D2E/DX2 =    0.0881             !
 ! A22   A(15,14,20)           121.9873         D2E/DX2 =    0.1432             !
 ! A23   A(7,15,14)            124.1242         D2E/DX2 =    0.1818             !
 ! A24   A(7,15,19)            123.2261         D2E/DX2 =    0.2278             !
 ! A25   A(14,15,19)           112.6497         D2E/DX2 =    0.2036             !
 ! A26   A(18,16,35)           115.3292         D2E/DX2 =    0.3149             !
 ! A27   A(3,17,18)            122.0182         D2E/DX2 =    0.1439             !
 ! A28   A(3,17,22)            120.4081         D2E/DX2 =    0.0882             !
 ! A29   A(18,17,22)           117.5737         D2E/DX2 =    0.1424             !
 ! A30   A(16,18,17)           112.653          D2E/DX2 =    0.2046             !
 ! A31   A(16,18,24)           122.9632         D2E/DX2 =    0.2285             !
 ! A32   A(17,18,24)           124.3838         D2E/DX2 =    0.1816             !
 ! A33   A(8,19,15)            115.624          D2E/DX2 =    0.3109             !
 ! A34   A(14,20,21)           119.7801         D2E/DX2 =    0.0815             !
 ! A35   A(14,20,22)           119.6522         D2E/DX2 =    0.0829             !
 ! A36   A(21,20,22)           120.5676         D2E/DX2 =    0.0814             !
 ! A37   A(17,22,20)           119.9485         D2E/DX2 =    0.0832             !
 ! A38   A(17,22,23)           118.7902         D2E/DX2 =    0.0815             !
 ! A39   A(20,22,23)           121.2614         D2E/DX2 =    0.0801             !
 ! A40   A(26,25,27)           120.5675         D2E/DX2 =    0.0814             !
 ! A41   A(26,25,39)           119.7803         D2E/DX2 =    0.0815             !
 ! A42   A(27,25,39)           119.6522         D2E/DX2 =    0.0829             !
 ! A43   A(25,27,28)           121.2614         D2E/DX2 =    0.0801             !
 ! A44   A(25,27,33)           119.9485         D2E/DX2 =    0.0832             !
 ! A45   A(28,27,33)           118.7901         D2E/DX2 =    0.0815             !
 ! A46   A(31,30,32)           108.2434         D2E/DX2 =    0.0296             !
 ! A47   A(31,30,35)           111.3981         D2E/DX2 =    0.0676             !
 ! A48   A(31,30,41)           109.9061         D2E/DX2 =    0.06               !
 ! A49   A(32,30,35)           111.3977         D2E/DX2 =    0.0676             !
 ! A50   A(32,30,41)           109.9112         D2E/DX2 =    0.0598             !
 ! A51   A(35,30,41)           105.9759         D2E/DX2 =    0.1591             !
 ! A52   A(27,33,34)           117.5737         D2E/DX2 =    0.1424             !
 ! A53   A(27,33,42)           120.408          D2E/DX2 =    0.0882             !
 ! A54   A(34,33,42)           122.0183         D2E/DX2 =    0.1439             !
 ! A55   A(29,34,33)           124.3839         D2E/DX2 =    0.1816             !
 ! A56   A(29,34,41)           122.9629         D2E/DX2 =    0.2285             !
 ! A57   A(33,34,41)           112.6532         D2E/DX2 =    0.2046             !
 ! A58   A(16,35,30)           105.9758         D2E/DX2 =    0.1591             !
 ! A59   A(16,35,36)           109.9112         D2E/DX2 =    0.0598             !
 ! A60   A(16,35,37)           109.9061         D2E/DX2 =    0.06               !
 ! A61   A(30,35,36)           111.3982         D2E/DX2 =    0.0676             !
 ! A62   A(30,35,37)           111.3978         D2E/DX2 =    0.0676             !
 ! A63   A(36,35,37)           108.2435         D2E/DX2 =    0.0296             !
 ! A64   A(40,38,50)           115.624          D2E/DX2 =    0.3109             !
 ! A65   A(25,39,40)           121.9873         D2E/DX2 =    0.1432             !
 ! A66   A(25,39,44)           120.392          D2E/DX2 =    0.0881             !
 ! A67   A(40,39,44)           117.6207         D2E/DX2 =    0.1418             !
 ! A68   A(38,40,39)           112.6503         D2E/DX2 =    0.2036             !
 ! A69   A(38,40,46)           123.2254         D2E/DX2 =    0.2278             !
 ! A70   A(39,40,46)           124.1243         D2E/DX2 =    0.1817             !
 ! A71   A(30,41,34)           115.329          D2E/DX2 =    0.315              !
 ! A72   A(33,42,43)           119.8457         D2E/DX2 =    0.0816             !
 ! A73   A(33,42,44)           119.6275         D2E/DX2 =    0.0829             !
 ! A74   A(43,42,44)           120.5268         D2E/DX2 =    0.0816             !
 ! A75   A(39,44,42)           119.9717         D2E/DX2 =    0.0832             !
 ! A76   A(39,44,45)           118.7681         D2E/DX2 =    0.0814             !
 ! A77   A(42,44,45)           121.2602         D2E/DX2 =    0.0801             !
 ! A78   A(48,47,49)           107.8718         D2E/DX2 =    0.0283             !
 ! A79   A(48,47,50)           109.8383         D2E/DX2 =    0.0721             !
 ! A80   A(48,47,53)           111.9396         D2E/DX2 =    0.0643             !
 ! A81   A(49,47,50)           109.7078         D2E/DX2 =    0.0717             !
 ! A82   A(49,47,53)           106.6529         D2E/DX2 =    0.0596             !
 ! A83   A(50,47,53)           110.7251         D2E/DX2 =    0.1527             !
 ! A84   A(38,50,47)           107.0079         D2E/DX2 =    0.1539             !
 ! A85   A(38,50,51)           109.3482         D2E/DX2 =    0.0606             !
 ! A86   A(38,50,52)           109.9265         D2E/DX2 =    0.0598             !
 ! A87   A(47,50,51)           111.4934         D2E/DX2 =    0.0674             !
 ! A88   A(47,50,52)           111.0236         D2E/DX2 =    0.0663             !
 ! A89   A(51,50,52)           108.0335         D2E/DX2 =    0.0291             !
 ! A90   A(47,53,54)           109.208          D2E/DX2 =    0.1779             !
 ! D1    D(2,1,11,8)           -69.5314         D2E/DX2 =    0.017              !
 ! D2    D(2,1,11,12)          171.1606         D2E/DX2 =    0.0236             !
 ! D3    D(2,1,11,13)           53.3964         D2E/DX2 =    0.0228             !
 ! D4    D(4,3,5,6)             -0.0058         D2E/DX2 =    0.0096             !
 ! D5    D(4,3,5,14)           179.976          D2E/DX2 =    0.0086             !
 ! D6    D(17,3,5,6)          -179.9901         D2E/DX2 =    0.0087             !
 ! D7    D(17,3,5,14)           -0.0083         D2E/DX2 =    0.0088             !
 ! D8    D(4,3,17,18)            0.0377         D2E/DX2 =    0.0077             !
 ! D9    D(4,3,17,22)         -179.9676         D2E/DX2 =    0.0075             !
 ! D10   D(5,3,17,18)         -179.9779         D2E/DX2 =    0.0071             !
 ! D11   D(5,3,17,22)            0.0168         D2E/DX2 =    0.0077             !
 ! D12   D(3,5,14,15)         -179.9818         D2E/DX2 =    0.0069             !
 ! D13   D(3,5,14,20)           -0.0151         D2E/DX2 =    0.0077             !
 ! D14   D(6,5,14,15)            0.0005         D2E/DX2 =    0.008              !
 ! D15   D(6,5,14,20)          179.9672         D2E/DX2 =    0.0074             !
 ! D16   D(9,8,11,1)           -58.4773         D2E/DX2 =    0.0182             !
 ! D17   D(9,8,11,12)           58.9721         D2E/DX2 =    0.0181             !
 ! D18   D(9,8,11,13)          177.3859         D2E/DX2 =    0.0159             !
 ! D19   D(10,8,11,1)           62.0381         D2E/DX2 =    0.0182             !
 ! D20   D(10,8,11,12)         179.4875         D2E/DX2 =    0.0161             !
 ! D21   D(10,8,11,13)         -62.0987         D2E/DX2 =    0.018              !
 ! D22   D(19,8,11,1)         -178.4351         D2E/DX2 =    0.0194             !
 ! D23   D(19,8,11,12)         -60.9857         D2E/DX2 =    0.018              !
 ! D24   D(19,8,11,13)          57.4281         D2E/DX2 =    0.0181             !
 ! D25   D(9,8,19,15)           60.7236         D2E/DX2 =    0.0233             !
 ! D26   D(10,8,19,15)         -57.7188         D2E/DX2 =    0.0231             !
 ! D27   D(11,8,19,15)        -178.618          D2E/DX2 =    0.0177             !
 ! D28   D(5,14,15,7)            0.0102         D2E/DX2 =    0.0149             !
 ! D29   D(5,14,15,19)        -179.9111         D2E/DX2 =    0.0137             !
 ! D30   D(20,14,15,7)        -179.9559         D2E/DX2 =    0.0135             !
 ! D31   D(20,14,15,19)          0.1227         D2E/DX2 =    0.0141             !
 ! D32   D(5,14,20,21)        -179.9579         D2E/DX2 =    0.0075             !
 ! D33   D(5,14,20,22)           0.03           D2E/DX2 =    0.0077             !
 ! D34   D(15,14,20,21)          0.0073         D2E/DX2 =    0.0077             !
 ! D35   D(15,14,20,22)        179.9952         D2E/DX2 =    0.0071             !
 ! D36   D(7,15,19,8)            0.4603         D2E/DX2 =    0.0221             !
 ! D37   D(14,15,19,8)        -179.6175         D2E/DX2 =    0.0207             !
 ! D38   D(35,16,18,17)        179.9969         D2E/DX2 =    0.0208             !
 ! D39   D(35,16,18,24)          0.0309         D2E/DX2 =    0.0223             !
 ! D40   D(18,16,35,30)        179.9743         D2E/DX2 =    0.0183             !
 ! D41   D(18,16,35,36)        -59.5395         D2E/DX2 =    0.024              !
 ! D42   D(18,16,35,37)         59.4913         D2E/DX2 =    0.0239             !
 ! D43   D(3,17,18,16)          -0.0964         D2E/DX2 =    0.014              !
 ! D44   D(3,17,18,24)         179.869          D2E/DX2 =    0.0136             !
 ! D45   D(22,17,18,16)        179.9087         D2E/DX2 =    0.0137             !
 ! D46   D(22,17,18,24)         -0.1259         D2E/DX2 =    0.0149             !
 ! D47   D(3,17,22,20)          -0.0018         D2E/DX2 =    0.0077             !
 ! D48   D(3,17,22,23)         179.9756         D2E/DX2 =    0.0074             !
 ! D49   D(18,17,22,20)        179.9931         D2E/DX2 =    0.0069             !
 ! D50   D(18,17,22,23)         -0.0294         D2E/DX2 =    0.008              !
 ! D51   D(14,20,22,17)         -0.0215         D2E/DX2 =    0.0088             !
 ! D52   D(14,20,22,23)       -179.9984         D2E/DX2 =    0.0087             !
 ! D53   D(21,20,22,17)        179.9664         D2E/DX2 =    0.0086             !
 ! D54   D(21,20,22,23)         -0.0105         D2E/DX2 =    0.0096             !
 ! D55   D(26,25,27,28)          0.012          D2E/DX2 =    0.0096             !
 ! D56   D(26,25,27,33)       -179.9658         D2E/DX2 =    0.0086             !
 ! D57   D(39,25,27,28)       -180.0            D2E/DX2 =    0.0087             !
 ! D58   D(39,25,27,33)          0.0222         D2E/DX2 =    0.0088             !
 ! D59   D(26,25,39,40)         -0.0092         D2E/DX2 =    0.0077             !
 ! D60   D(26,25,39,44)        179.9576         D2E/DX2 =    0.0075             !
 ! D61   D(27,25,39,40)       -179.9973         D2E/DX2 =    0.0071             !
 ! D62   D(27,25,39,44)         -0.0305         D2E/DX2 =    0.0077             !
 ! D63   D(25,27,33,34)       -179.9915         D2E/DX2 =    0.0069             !
 ! D64   D(25,27,33,42)          0.0018         D2E/DX2 =    0.0077             !
 ! D65   D(28,27,33,34)          0.0301         D2E/DX2 =    0.008              !
 ! D66   D(28,27,33,42)       -179.9766         D2E/DX2 =    0.0074             !
 ! D67   D(31,30,35,16)         60.4906         D2E/DX2 =    0.0183             !
 ! D68   D(31,30,35,36)        -59.0247         D2E/DX2 =    0.0184             !
 ! D69   D(31,30,35,37)        179.9996         D2E/DX2 =    0.0164             !
 ! D70   D(32,30,35,16)        -60.485          D2E/DX2 =    0.0182             !
 ! D71   D(32,30,35,36)        179.9997         D2E/DX2 =    0.0164             !
 ! D72   D(32,30,35,37)         59.024          D2E/DX2 =    0.0184             !
 ! D73   D(41,30,35,16)        179.9999         Scan                            !
 ! D74   D(41,30,35,36)         60.4845         D2E/DX2 =    0.0182             !
 ! D75   D(41,30,35,37)        -60.4912         D2E/DX2 =    0.0183             !
 ! D76   D(31,30,41,34)        -59.5002         D2E/DX2 =    0.0239             !
 ! D77   D(32,30,41,34)         59.5306         D2E/DX2 =    0.024              !
 ! D78   D(35,30,41,34)       -179.9836         D2E/DX2 =    0.0183             !
 ! D79   D(27,33,34,29)          0.1234         D2E/DX2 =    0.0149             !
 ! D80   D(27,33,34,41)       -179.8954         D2E/DX2 =    0.0137             !
 ! D81   D(42,33,34,29)       -179.8698         D2E/DX2 =    0.0136             !
 ! D82   D(42,33,34,41)          0.1115         D2E/DX2 =    0.014              !
 ! D83   D(27,33,42,43)        179.9671         D2E/DX2 =    0.0075             !
 ! D84   D(27,33,42,44)         -0.0177         D2E/DX2 =    0.0077             !
 ! D85   D(34,33,42,43)         -0.04           D2E/DX2 =    0.0077             !
 ! D86   D(34,33,42,44)        179.9753         D2E/DX2 =    0.0071             !
 ! D87   D(29,34,41,30)         -0.0209         D2E/DX2 =    0.0223             !
 ! D88   D(33,34,41,30)        179.9975         D2E/DX2 =    0.0208             !
 ! D89   D(50,38,40,39)        179.6198         D2E/DX2 =    0.0207             !
 ! D90   D(50,38,40,46)         -0.4651         D2E/DX2 =    0.0221             !
 ! D91   D(40,38,50,47)        178.636          D2E/DX2 =    0.0177             !
 ! D92   D(40,38,50,51)         57.7392         D2E/DX2 =    0.0231             !
 ! D93   D(40,38,50,52)        -60.7043         D2E/DX2 =    0.0233             !
 ! D94   D(25,39,40,38)         -0.1162         D2E/DX2 =    0.0141             !
 ! D95   D(25,39,40,46)        179.9696         D2E/DX2 =    0.0135             !
 ! D96   D(44,39,40,38)        179.9162         D2E/DX2 =    0.0137             !
 ! D97   D(44,39,40,46)          0.002          D2E/DX2 =    0.0149             !
 ! D98   D(25,39,44,42)          0.0147         D2E/DX2 =    0.0077             !
 ! D99   D(25,39,44,45)       -179.9682         D2E/DX2 =    0.0074             !
 ! D100  D(40,39,44,42)        179.9828         D2E/DX2 =    0.0069             !
 ! D101  D(40,39,44,45)         -0.0001         D2E/DX2 =    0.008              !
 ! D102  D(33,42,44,39)          0.0094         D2E/DX2 =    0.0088             !
 ! D103  D(33,42,44,45)        179.9919         D2E/DX2 =    0.0087             !
 ! D104  D(43,42,44,39)       -179.9752         D2E/DX2 =    0.0086             !
 ! D105  D(43,42,44,45)          0.0073         D2E/DX2 =    0.0096             !
 ! D106  D(48,47,50,38)        -57.4289         D2E/DX2 =    0.0181             !
 ! D107  D(48,47,50,51)         62.0961         D2E/DX2 =    0.018              !
 ! D108  D(48,47,50,52)       -177.3879         D2E/DX2 =    0.0159             !
 ! D109  D(49,47,50,38)         60.9813         D2E/DX2 =    0.018              !
 ! D110  D(49,47,50,51)       -179.4937         D2E/DX2 =    0.0161             !
 ! D111  D(49,47,50,52)        -58.9777         D2E/DX2 =    0.0181             !
 ! D112  D(53,47,50,38)        178.4329         D2E/DX2 =    0.0194             !
 ! D113  D(53,47,50,51)        -62.0421         D2E/DX2 =    0.0182             !
 ! D114  D(53,47,50,52)         58.474          D2E/DX2 =    0.0182             !
 ! D115  D(48,47,53,54)        -53.4155         D2E/DX2 =    0.0228             !
 ! D116  D(49,47,53,54)       -171.1786         D2E/DX2 =    0.0236             !
 ! D117  D(50,47,53,54)         69.5125         D2E/DX2 =    0.017              !
 --------------------------------------------------------------------------------
 Trust Radius=3.00D-01 FncErr=1.00D-07 GrdErr=1.00D-06 EigMax=2.50D+02 EigMin=1.00D-04
 Number of optimizations in scan=  19
 Number of steps in this run=    272 maximum allowed number of steps=    324.
 GradGradGradGradGradGradGradGradGradGradGradGradGradGradGradGradGradGrad

 Symmetry turned off by external request.
 Stoichiometry    C22H22O10
 Framework group  C1[X(C22H22O10)]
 Deg. of freedom   156
 Full point group                 C1      NOp   1
                          Input orientation:                          
 ---------------------------------------------------------------------
 Center     Atomic      Atomic             Coordinates (Angstroms)
 Number     Number       Type             X           Y           Z
 ---------------------------------------------------------------------
      1          8           0        3.311154    6.381109   -1.436288
      2          1           0        4.228087    6.137474   -1.281017
      3          6           0       -0.382044    2.461418    4.981603
      4          1           0       -0.606457    1.534400    5.489467
      5          6           0        0.368842    2.462169    3.819195
      6          1           0        0.746395    1.541946    3.394287
      7          8           0        1.887535    2.586042    1.445178
      8          6           0        2.442979    4.826156    0.183978
      9          1           0        1.931945    4.250858   -0.588746
     10          1           0        3.414190    4.359611    0.366432
     11          6           0        2.592434    6.276943   -0.227745
     12          1           0        1.609353    6.710184   -0.410723
     13          1           0        3.065176    6.845448    0.579562
     14          6           0        0.650405    3.662012    3.174702
     15          6           0        1.464116    3.601825    1.924868
     16          8           0       -1.877463    2.515942    7.284683
     17          6           0       -0.851128    3.665673    5.498574
     18          6           0       -1.664000    3.726833    6.747081
     19          8           0        1.676724    4.810722    1.389151
     20          6           0        0.180844    4.866049    3.691540
     21          1           0        0.404897    5.792405    3.182358
     22          6           0       -0.569773    4.865711    4.854042
     23          1           0       -0.947674    5.786034    5.278447
     24          8           0       -2.087591    4.740004    7.231044
     25          6           0       -5.589579   -1.297499   13.688703
     26          1           0       -5.813549   -2.223853   14.197925
     27          6           0       -4.839052   -1.297159   12.526142
     28          1           0       -4.461163   -2.217479   12.101719
     29          8           0       -3.321442   -1.171452   10.149005
     30          6           0       -2.758878    1.060429    8.897512
     31          1           0       -1.776654    0.625648    9.086242
     32          1           0       -3.255127    0.463292    8.131648
     33          6           0       -4.557791   -0.097125   11.881560
     34          6           0       -3.745044   -0.158289   10.632971
     35          6           0       -2.650008    2.508138    8.482649
     36          1           0       -2.153764    3.105282    9.248511
     37          1           0       -3.632234    2.942910    8.293914
     38          8           0       -7.085240   -1.242164   15.991246
     39          6           0       -6.059157   -0.093469   14.205543
     40          6           0       -6.872810   -0.033288   15.455412
     41          8           0       -3.531419    1.052624   10.095479
     42          6           0       -5.026880    1.107124   12.398541
     43          1           0       -4.802531    2.034139   11.890644
     44          6           0       -5.777691    1.106369   13.560998
     45          1           0       -6.155269    2.026584   13.985899
     46          8           0       -7.296441    0.982466   15.934980
     47          6           0       -8.000337   -2.708348   17.608540
     48          1           0       -8.472874   -3.277237   16.801376
     49          1           0       -7.017069   -3.141153   17.791539
     50          6           0       -7.851477   -1.257594   17.196437
     51          1           0       -8.822892   -0.791526   17.013852
     52          1           0       -7.340689   -0.681870   17.969001
     53          8           0       -8.718943   -2.812517   18.817127
     54          1           0       -9.635919   -2.569001   18.661883
 ---------------------------------------------------------------------
 Rotational constants (GHZ):           0.8471390           0.0214711           0.0209591
 Standard basis: def2TZVP (5D, 7F)
  1124 basis functions,  1808 primitive gaussians,  1284 cartesian basis functions
   117 alpha electrons      117 beta electrons
       nuclear repulsion energy      2738.2505384728 Hartrees.
 NAtoms=   54 NActive=   54 NUniq=   54 SFac= 1.00D+00 NAtFMM=   60 NAOKFM=F Big=F
 Integral buffers will be    131072 words long.
 Raffenetti 2 integral format.
 Two-electron integral symmetry is turned off.
 One-electron integrals computed using PRISM.
   1 Symmetry operations used in ECPInt.
 ECPInt:  NShTT=   97020 NPrTT=  299148 LenC2=   54160 LenP2D=  114178.
 LDataN:  DoStor=T MaxTD1= 6 Len=  172
 NBasis=  1124 RedAO= T EigKep=  6.84D-06  NBF=  1124
 NBsUse=  1124 1.00D-06 EigRej= -1.00D+00 NBFU=  1124
 Initial guess from the checkpoint file:  "/dev/shm/pet_dimer_scan_neg_tzvp_long.chk"
 B after Tr=     0.000000    0.000000    0.000000
         Rot=    1.000000    0.000000    0.000000    0.000000 Ang=   0.00 deg.
 Requested convergence on RMS density matrix=1.00D-08 within  32 cycles.
 Requested convergence on MAX density matrix=1.00D-06.
 Requested convergence on             energy=1.00D-06.
 No special actions if energy rises.
 SCF Done:  E(RM062X) =  -1603.87812457     A.U. after    1 cycles
            NFock=  1  Conv=0.78D-08     -V/T= 2.0044
 QCSCF skips out because SCF is already converged.

 **********************************************************************

            Population analysis using the SCF Density.

 **********************************************************************

 Alpha  occ. eigenvalues --  -19.69135 -19.69135 -19.68684 -19.68684 -19.64006
 Alpha  occ. eigenvalues --  -19.64005 -19.63089 -19.63088 -19.62767 -19.62766
 Alpha  occ. eigenvalues --  -10.68905 -10.68905 -10.68600 -10.68600 -10.61379
 Alpha  occ. eigenvalues --  -10.61337 -10.60394 -10.60394 -10.59780 -10.59780
 Alpha  occ. eigenvalues --  -10.57791 -10.57791 -10.57722 -10.57721 -10.56775
 Alpha  occ. eigenvalues --  -10.56775 -10.56738 -10.56738 -10.56566 -10.56566
 Alpha  occ. eigenvalues --  -10.56516 -10.56516  -1.26129  -1.25711  -1.25488
 Alpha  occ. eigenvalues --   -1.25488  -1.16555  -1.16554  -1.16489  -1.16062
 Alpha  occ. eigenvalues --   -1.15700  -1.15700  -0.99605  -0.99556  -0.92265
 Alpha  occ. eigenvalues --   -0.90887  -0.89323  -0.87362  -0.87261  -0.86889
 Alpha  occ. eigenvalues --   -0.86213  -0.80317  -0.77350  -0.75488  -0.73443
 Alpha  occ. eigenvalues --   -0.72916  -0.71472  -0.70947  -0.69374  -0.67955
 Alpha  occ. eigenvalues --   -0.67014  -0.65720  -0.64247  -0.64215  -0.62235
 Alpha  occ. eigenvalues --   -0.62063  -0.61704  -0.60952  -0.60936  -0.58668
 Alpha  occ. eigenvalues --   -0.58290  -0.57794  -0.57677  -0.57666  -0.57269
 Alpha  occ. eigenvalues --   -0.57149  -0.54305  -0.54171  -0.53528  -0.53407
 Alpha  occ. eigenvalues --   -0.53249  -0.52457  -0.52298  -0.52204  -0.51729
 Alpha  occ. eigenvalues --   -0.51502  -0.51377  -0.50096  -0.48478  -0.48463
 Alpha  occ. eigenvalues --   -0.47964  -0.47038  -0.46339  -0.45826  -0.45213
 Alpha  occ. eigenvalues --   -0.45048  -0.45002  -0.44524  -0.44117  -0.42479
 Alpha  occ. eigenvalues --   -0.42327  -0.41634  -0.41627  -0.39800  -0.39449
 Alpha  occ. eigenvalues --   -0.39112  -0.39111  -0.37862  -0.37536  -0.37536
 Alpha  occ. eigenvalues --   -0.37324  -0.36844  -0.36831  -0.33631  -0.33614
 Alpha  occ. eigenvalues --   -0.33320  -0.33318
 Alpha virt. eigenvalues --   -0.05243  -0.05148   0.00099   0.00109   0.04198
 Alpha virt. eigenvalues --    0.04408   0.04762   0.04769   0.05876   0.06884
 Alpha virt. eigenvalues --    0.07228   0.07880   0.09286   0.09547   0.09718
 Alpha virt. eigenvalues --    0.09883   0.10530   0.10830   0.11027   0.11349
 Alpha virt. eigenvalues --    0.11744   0.12036   0.12255   0.12477   0.13343
 Alpha virt. eigenvalues --    0.13851   0.13961   0.14415   0.14704   0.15866
 Alpha virt. eigenvalues --    0.15943   0.16722   0.16750   0.16856   0.17039
 Alpha virt. eigenvalues --    0.17040   0.18217   0.18237   0.18864   0.19287
 Alpha virt. eigenvalues --    0.19641   0.19709   0.20763   0.21122   0.21255
 Alpha virt. eigenvalues --    0.21312   0.21593   0.22191   0.22601   0.22763
 Alpha virt. eigenvalues --    0.23145   0.24674   0.24752   0.24843   0.24993
 Alpha virt. eigenvalues --    0.25164   0.25298   0.25411   0.25765   0.26059
 Alpha virt. eigenvalues --    0.26478   0.26569   0.27278   0.27766   0.27951
 Alpha virt. eigenvalues --    0.28090   0.28484   0.28858   0.28884   0.29245
 Alpha virt. eigenvalues --    0.29276   0.29348   0.29812   0.30571   0.30601
 Alpha virt. eigenvalues --    0.30808   0.31329   0.32206   0.33071   0.33134
 Alpha virt. eigenvalues --    0.33228   0.33663   0.34087   0.34230   0.35810
 Alpha virt. eigenvalues --    0.36325   0.36334   0.36592   0.36698   0.36732
 Alpha virt. eigenvalues --    0.37453   0.37461   0.37820   0.38375   0.38634
 Alpha virt. eigenvalues --    0.38820   0.39248   0.39284   0.39704   0.39738
 Alpha virt. eigenvalues --    0.40136   0.40626   0.41214   0.41665   0.41921
 Alpha virt. eigenvalues --    0.42239   0.42428   0.42705   0.43203   0.43210
 Alpha virt. eigenvalues --    0.43753   0.43762   0.43870   0.44029   0.44068
 Alpha virt. eigenvalues --    0.44163   0.44354   0.45057   0.45213   0.45255
 Alpha virt. eigenvalues --    0.45334   0.45544   0.46159   0.46163   0.46605
 Alpha virt. eigenvalues --    0.46859   0.47633   0.48680   0.49087   0.49466
 Alpha virt. eigenvalues --    0.49579   0.50060   0.50295   0.51159   0.51450
 Alpha virt. eigenvalues --    0.51875   0.52076   0.52302   0.52463   0.52572
 Alpha virt. eigenvalues --    0.53051   0.53313   0.53316   0.53463   0.54150
 Alpha virt. eigenvalues --    0.54789   0.55056   0.55391   0.55543   0.55951
 Alpha virt. eigenvalues --    0.56069   0.56782   0.56946   0.57812   0.58084
 Alpha virt. eigenvalues --    0.58689   0.59456   0.60794   0.61310   0.61551
 Alpha virt. eigenvalues --    0.61900   0.62263   0.62687   0.62941   0.63104
 Alpha virt. eigenvalues --    0.63451   0.63985   0.64245   0.64693   0.65119
 Alpha virt. eigenvalues --    0.65202   0.66138   0.66474   0.66626   0.66989
 Alpha virt. eigenvalues --    0.67280   0.67640   0.68675   0.68886   0.69129
 Alpha virt. eigenvalues --    0.69232   0.69404   0.70842   0.71381   0.71683
 Alpha virt. eigenvalues --    0.72635   0.73023   0.73241   0.73699   0.73938
 Alpha virt. eigenvalues --    0.74217   0.74558   0.75209   0.75487   0.75575
 Alpha virt. eigenvalues --    0.75908   0.76588   0.77187   0.77405   0.77963
 Alpha virt. eigenvalues --    0.78152   0.78514   0.79129   0.79206   0.79394
 Alpha virt. eigenvalues --    0.80358   0.81071   0.81582   0.81790   0.82611
 Alpha virt. eigenvalues --    0.82765   0.83378   0.84347   0.84846   0.85271
 Alpha virt. eigenvalues --    0.85716   0.86405   0.86667   0.86779   0.87632
 Alpha virt. eigenvalues --    0.87668   0.88028   0.88322   0.88756   0.88967
 Alpha virt. eigenvalues --    0.89332   0.89932   0.90153   0.90486   0.91087
 Alpha virt. eigenvalues --    0.91855   0.92292   0.92303   0.92832   0.93208
 Alpha virt. eigenvalues --    0.93210   0.93348   0.93814   0.93896   0.94896
 Alpha virt. eigenvalues --    0.94960   0.95446   0.95790   0.96145   0.96208
 Alpha virt. eigenvalues --    0.97607   0.98680   1.00533   1.00540   1.00757
 Alpha virt. eigenvalues --    1.01599   1.02645   1.02952   1.03044   1.03493
 Alpha virt. eigenvalues --    1.03644   1.06032   1.06125   1.07124   1.07505
 Alpha virt. eigenvalues --    1.07723   1.07936   1.08508   1.08667   1.09475
 Alpha virt. eigenvalues --    1.10003   1.10209   1.11007   1.11492   1.12289
 Alpha virt. eigenvalues --    1.14001   1.14144   1.14428   1.15123   1.16051
 Alpha virt. eigenvalues --    1.16306   1.18309   1.18993   1.19858   1.21746
 Alpha virt. eigenvalues --    1.22011   1.22915   1.23447   1.24834   1.24991
 Alpha virt. eigenvalues --    1.25103   1.25302   1.25774   1.25928   1.26166
 Alpha virt. eigenvalues --    1.28551   1.30822   1.30973   1.31664   1.31923
 Alpha virt. eigenvalues --    1.32324   1.32573   1.33399   1.33584   1.33938
 Alpha virt. eigenvalues --    1.34215   1.34489   1.38214   1.38216   1.38605
 Alpha virt. eigenvalues --    1.38982   1.39765   1.40065   1.41208   1.41280
 Alpha virt. eigenvalues --    1.41516   1.41629   1.41819   1.42346   1.43502
 Alpha virt. eigenvalues --    1.44295   1.44347   1.44702   1.45642   1.45969
 Alpha virt. eigenvalues --    1.47027   1.48198   1.48929   1.50044   1.51214
 Alpha virt. eigenvalues --    1.52118   1.52432   1.52658   1.53068   1.53114
 Alpha virt. eigenvalues --    1.53223   1.54564   1.54890   1.55075   1.55435
 Alpha virt. eigenvalues --    1.56804   1.56945   1.57172   1.57526   1.57640
 Alpha virt. eigenvalues --    1.58153   1.58685   1.59410   1.59616   1.60331
 Alpha virt. eigenvalues --    1.60427   1.60996   1.62085   1.62372   1.62614
 Alpha virt. eigenvalues --    1.62634   1.62881   1.63066   1.63193   1.63347
 Alpha virt. eigenvalues --    1.63584   1.63780   1.63949   1.64003   1.64674
 Alpha virt. eigenvalues --    1.64893   1.65300   1.66237   1.68008   1.68695
 Alpha virt. eigenvalues --    1.68762   1.69710   1.69844   1.72152   1.72588
 Alpha virt. eigenvalues --    1.73400   1.74528   1.74547   1.74746   1.74851
 Alpha virt. eigenvalues --    1.75831   1.75938   1.77334   1.79473   1.79753
 Alpha virt. eigenvalues --    1.79873   1.81616   1.82557   1.82684   1.82772
 Alpha virt. eigenvalues --    1.83424   1.83486   1.84607   1.85307   1.85784
 Alpha virt. eigenvalues --    1.86446   1.86772   1.87184   1.87701   1.87883
 Alpha virt. eigenvalues --    1.88225   1.88550   1.89264   1.89685   1.91238
 Alpha virt. eigenvalues --    1.91394   1.92628   1.92699   1.92826   1.92846
 Alpha virt. eigenvalues --    1.92966   1.94922   1.96874   1.97245   1.98919
 Alpha virt. eigenvalues --    1.99897   2.00024   2.00074   2.00438   2.01073
 Alpha virt. eigenvalues --    2.02008   2.02521   2.02930   2.03406   2.04555
 Alpha virt. eigenvalues --    2.04591   2.04878   2.05175   2.05592   2.05979
 Alpha virt. eigenvalues --    2.05985   2.06030   2.06298   2.06970   2.07480
 Alpha virt. eigenvalues --    2.07746   2.09193   2.09585   2.10474   2.11439
 Alpha virt. eigenvalues --    2.12899   2.13325   2.14018   2.14562   2.15366
 Alpha virt. eigenvalues --    2.15493   2.16091   2.16366   2.17480   2.17993
 Alpha virt. eigenvalues --    2.18092   2.18877   2.19023   2.19830   2.21202
 Alpha virt. eigenvalues --    2.22210   2.25085   2.25123   2.26594   2.26728
 Alpha virt. eigenvalues --    2.27287   2.27852   2.28606   2.28653   2.29122
 Alpha virt. eigenvalues --    2.29245   2.30931   2.31333   2.31981   2.32234
 Alpha virt. eigenvalues --    2.32459   2.32465   2.32700   2.33392   2.33746
 Alpha virt. eigenvalues --    2.33984   2.34017   2.36051   2.37343   2.37620
 Alpha virt. eigenvalues --    2.37838   2.38663   2.39115   2.39199   2.40092
 Alpha virt. eigenvalues --    2.40267   2.41593   2.41999   2.43107   2.43713
 Alpha virt. eigenvalues --    2.44041   2.44213   2.44835   2.45883   2.46308
 Alpha virt. eigenvalues --    2.46613   2.47677   2.48064   2.49061   2.49510
 Alpha virt. eigenvalues --    2.50260   2.50341   2.51428   2.51886   2.54933
 Alpha virt. eigenvalues --    2.55064   2.55325   2.55565   2.55799   2.56000
 Alpha virt. eigenvalues --    2.56799   2.56916   2.57834   2.59490   2.59585
 Alpha virt. eigenvalues --    2.60467   2.60546   2.60833   2.61183   2.61874
 Alpha virt. eigenvalues --    2.62006   2.62074   2.62859   2.63855   2.63904
 Alpha virt. eigenvalues --    2.65232   2.65426   2.65664   2.66230   2.66630
 Alpha virt. eigenvalues --    2.66722   2.68962   2.69360   2.69791   2.70346
 Alpha virt. eigenvalues --    2.70422   2.70592   2.71407   2.71558   2.71814
 Alpha virt. eigenvalues --    2.72170   2.72266   2.72301   2.72790   2.73216
 Alpha virt. eigenvalues --    2.73645   2.75415   2.75646   2.76131   2.76657
 Alpha virt. eigenvalues --    2.76927   2.77763   2.78688   2.80033   2.80114
 Alpha virt. eigenvalues --    2.80687   2.81777   2.82503   2.82534   2.82968
 Alpha virt. eigenvalues --    2.83765   2.83860   2.84243   2.84372   2.85124
 Alpha virt. eigenvalues --    2.85702   2.86070   2.86273   2.86365   2.86576
 Alpha virt. eigenvalues --    2.86879   2.87299   2.87412   2.88697   2.89051
 Alpha virt. eigenvalues --    2.89379   2.89714   2.90153   2.91497   2.92034
 Alpha virt. eigenvalues --    2.92729   2.92981   2.93447   2.93847   2.93995
 Alpha virt. eigenvalues --    2.94765   2.94860   2.94870   2.95715   2.96273
 Alpha virt. eigenvalues --    2.96816   2.97163   2.97515   2.97547   2.97855
 Alpha virt. eigenvalues --    2.98040   2.98506   3.01541   3.01983   3.02132
 Alpha virt. eigenvalues --    3.02403   3.02425   3.03355   3.03472   3.04055
 Alpha virt. eigenvalues --    3.05382   3.06256   3.06447   3.06531   3.07606
 Alpha virt. eigenvalues --    3.08629   3.09110   3.09384   3.10158   3.10207
 Alpha virt. eigenvalues --    3.11595   3.12141   3.12880   3.13021   3.13626
 Alpha virt. eigenvalues --    3.14230   3.14425   3.14820   3.15389   3.15633
 Alpha virt. eigenvalues --    3.16777   3.17005   3.17121   3.18013   3.18448
 Alpha virt. eigenvalues --    3.18545   3.18743   3.19027   3.19251   3.19855
 Alpha virt. eigenvalues --    3.20711   3.22196   3.22762   3.23023   3.23806
 Alpha virt. eigenvalues --    3.24123   3.24146   3.24214   3.24922   3.25186
 Alpha virt. eigenvalues --    3.25288   3.25418   3.25614   3.26016   3.26254
 Alpha virt. eigenvalues --    3.26498   3.27094   3.27969   3.28842   3.28851
 Alpha virt. eigenvalues --    3.29412   3.29858   3.29966   3.30496   3.31123
 Alpha virt. eigenvalues --    3.31694   3.32671   3.33489   3.33991   3.34502
 Alpha virt. eigenvalues --    3.34713   3.35132   3.35619   3.35716   3.36348
 Alpha virt. eigenvalues --    3.36477   3.37264   3.37987   3.38408   3.38708
 Alpha virt. eigenvalues --    3.38858   3.39166   3.39382   3.39426   3.40398
 Alpha virt. eigenvalues --    3.41050   3.41259   3.41611   3.41949   3.42249
 Alpha virt. eigenvalues --    3.42451   3.42556   3.43098   3.43887   3.44267
 Alpha virt. eigenvalues --    3.45808   3.46090   3.46892   3.46936   3.47217
 Alpha virt. eigenvalues --    3.47767   3.48622   3.48948   3.49180   3.49182
 Alpha virt. eigenvalues --    3.49653   3.49681   3.50857   3.51258   3.51960
 Alpha virt. eigenvalues --    3.53034   3.53304   3.53435   3.53710   3.53879
 Alpha virt. eigenvalues --    3.55175   3.55194   3.55896   3.56171   3.57058
 Alpha virt. eigenvalues --    3.58034   3.58683   3.59512   3.62048   3.62326
 Alpha virt. eigenvalues --    3.62846   3.62922   3.64483   3.64640   3.66030
 Alpha virt. eigenvalues --    3.66116   3.66700   3.66838   3.69550   3.70191
 Alpha virt. eigenvalues --    3.70728   3.72505   3.74647   3.76090   3.76550
 Alpha virt. eigenvalues --    3.77981   3.78681   3.80578   3.80651   3.83052
 Alpha virt. eigenvalues --    3.83335   3.83337   3.84281   3.84760   3.85504
 Alpha virt. eigenvalues --    3.86225   3.86665   3.87340   3.88446   3.89144
 Alpha virt. eigenvalues --    3.90835   3.91881   3.91932   3.92148   3.92887
 Alpha virt. eigenvalues --    3.93821   3.93829   3.94902   3.97063   3.97833
 Alpha virt. eigenvalues --    3.99102   3.99182   4.03317   4.03601   4.04989
 Alpha virt. eigenvalues --    4.05106   4.05607   4.05813   4.06045   4.08329
 Alpha virt. eigenvalues --    4.09598   4.11457   4.13662   4.14556   4.14956
 Alpha virt. eigenvalues --    4.15031   4.15198   4.15851   4.18029   4.18424
 Alpha virt. eigenvalues --    4.18842   4.19041   4.19050   4.19797   4.20228
 Alpha virt. eigenvalues --    4.20242   4.24250   4.24740   4.24819   4.26041
 Alpha virt. eigenvalues --    4.26236   4.26324   4.26718   4.27710   4.29826
 Alpha virt. eigenvalues --    4.30064   4.30617   4.32731   4.33322   4.33982
 Alpha virt. eigenvalues --    4.34881   4.36747   4.37641   4.37642   4.43564
 Alpha virt. eigenvalues --    4.44094   4.44931   4.45787   4.46414   4.48885
 Alpha virt. eigenvalues --    4.49365   4.51177   4.53926   4.54348   4.54981
 Alpha virt. eigenvalues --    4.55102   4.57641   4.59961   4.59984   4.60656
 Alpha virt. eigenvalues --    4.60666   4.62377   4.62573   4.65880   4.66091
 Alpha virt. eigenvalues --    4.70109   4.70264   4.70551   4.71080   4.74122
 Alpha virt. eigenvalues --    4.74468   4.76501   4.77586   4.78570   4.81258
 Alpha virt. eigenvalues --    4.81364   4.88890   4.89305   4.89577   4.90073
 Alpha virt. eigenvalues --    4.91636   4.91932   4.97029   4.97395   4.97626
 Alpha virt. eigenvalues --    4.98954   5.08066   5.08073   5.13977   5.15207
 Alpha virt. eigenvalues --    5.17237   5.17775   5.17780   5.17863   5.22089
 Alpha virt. eigenvalues --    5.22428   5.25460   5.25562   5.26443   5.26591
 Alpha virt. eigenvalues --    5.28793   5.28951   5.29587   5.30293   5.30314
 Alpha virt. eigenvalues --    5.32275   5.32365   5.33160   5.34050   5.34104
 Alpha virt. eigenvalues --    5.36741   5.37190   5.46197   5.46242   5.46611
 Alpha virt. eigenvalues --    5.46851   5.48157   5.49941   5.50359   5.50907
 Alpha virt. eigenvalues --    5.50934   5.51479   5.53994   5.54540   5.59171
 Alpha virt. eigenvalues --    5.59239   5.66256   5.67710   5.67761   5.67850
 Alpha virt. eigenvalues --    5.68006   5.68805   5.69581   5.69722   5.73390
 Alpha virt. eigenvalues --    5.73403   5.75770   5.75777   5.86444   5.86513
 Alpha virt. eigenvalues --    5.88449   5.90751   5.91004   5.91523   5.96016
 Alpha virt. eigenvalues --    5.97098   5.97651   5.97712   6.12363   6.14258
 Alpha virt. eigenvalues --    6.14341   6.16557   6.17191   6.17663   6.17848
 Alpha virt. eigenvalues --    6.17950   6.24968   6.25561   6.25722   6.25723
 Alpha virt. eigenvalues --    6.28574   6.29526   6.34348   6.34702   6.34961
 Alpha virt. eigenvalues --    6.35006   6.41560   6.42380   6.42391   6.43080
 Alpha virt. eigenvalues --    6.44050   6.44055   6.54502   6.55778   6.57305
 Alpha virt. eigenvalues --    6.58423   6.63615   6.64411   6.64418   6.64478
 Alpha virt. eigenvalues --    6.64503   6.64787   6.70815   6.71049   6.73787
 Alpha virt. eigenvalues --    6.74444   6.74859   6.75203   6.75367   6.75717
 Alpha virt. eigenvalues --    6.78398   6.78502   6.86830   6.87584   6.87721
 Alpha virt. eigenvalues --    6.87761   6.91863   6.92122   6.93359   6.93557
 Alpha virt. eigenvalues --    6.94548   6.94577   7.06575   7.06622   7.07552
 Alpha virt. eigenvalues --    7.07908   7.10922   7.10932   7.12456   7.12938
 Alpha virt. eigenvalues --    7.14878   7.15219   7.31858   7.34770   7.34815
 Alpha virt. eigenvalues --    7.37155   7.40256   7.42212   7.43181   7.45331
 Alpha virt. eigenvalues --   22.32031  22.32116  22.52875  22.52878  22.57663
 Alpha virt. eigenvalues --   22.62593  22.62613  22.65638  22.80686  22.80728
 Alpha virt. eigenvalues --   22.84022  22.84065  22.86983  22.87315  23.00562
 Alpha virt. eigenvalues --   23.00582  23.38105  23.38303  23.53018  23.53567
 Alpha virt. eigenvalues --   23.66030  23.66315  43.90290  43.90290  44.06281
 Alpha virt. eigenvalues --   44.06957  44.08645  44.09961  44.40119  44.40205
 Alpha virt. eigenvalues --   44.45496  44.48161
          Condensed to atoms (all electrons):
 Mulliken charges:
               1
     1  O   -0.459623
     2  H    0.314245
     3  C   -0.162921
     4  H    0.171755
     5  C   -0.165109
     6  H    0.181980
     7  O   -0.333752
     8  C   -0.140968
     9  H    0.158297
    10  H    0.135578
    11  C   -0.062627
    12  H    0.136717
    13  H    0.129959
    14  C    0.040023
    15  C    0.339273
    16  O   -0.275653
    17  C    0.041251
    18  C    0.339601
    19  O   -0.278764
    20  C   -0.162564
    21  H    0.170079
    22  C   -0.163251
    23  H    0.181109
    24  O   -0.332618
    25  C   -0.162565
    26  H    0.170079
    27  C   -0.163251
    28  H    0.181109
    29  O   -0.332622
    30  C   -0.113874
    31  H    0.155901
    32  H    0.155956
    33  C    0.041253
    34  C    0.339604
    35  C   -0.113873
    36  H    0.155954
    37  H    0.155903
    38  O   -0.278766
    39  C    0.040023
    40  C    0.339270
    41  O   -0.275651
    42  C   -0.162920
    43  H    0.171755
    44  C   -0.165107
    45  H    0.181980
    46  O   -0.333755
    47  C   -0.062600
    48  H    0.129950
    49  H    0.136718
    50  C   -0.140999
    51  H    0.135573
    52  H    0.158306
    53  O   -0.459607
    54  H    0.314240
 Sum of Mulliken charges =  -0.00000
 Mulliken charges with hydrogens summed into heavy atoms:
               1
     1  O   -0.145378
     3  C    0.008834
     5  C    0.016871
     7  O   -0.333752
     8  C    0.152907
    11  C    0.204048
    14  C    0.040023
    15  C    0.339273
    16  O   -0.275653
    17  C    0.041251
    18  C    0.339601
    19  O   -0.278764
    20  C    0.007516
    22  C    0.017857
    24  O   -0.332618
    25  C    0.007514
    27  C    0.017858
    29  O   -0.332622
    30  C    0.197983
    33  C    0.041253
    34  C    0.339604
    35  C    0.197984
    38  O   -0.278766
    39  C    0.040023
    40  C    0.339270
    41  O   -0.275651
    42  C    0.008835
    44  C    0.016873
    46  O   -0.333755
    47  C    0.204068
    50  C    0.152879
    53  O   -0.145367
 Electronic spatial extent (au):  <R**2>=         118173.0389
 Charge=              0.0000 electrons
 Dipole moment (field-independent basis, Debye):
    X=              0.0003    Y=             -0.0001    Z=              0.0003  Tot=              0.0004
 Quadrupole moment (field-independent basis, Debye-Ang):
   XX=           -157.1852   YY=           -187.7797   ZZ=           -216.1465
   XY=             19.7132   XZ=             -9.3137   YZ=             -9.5316
 Traceless Quadrupole moment (field-independent basis, Debye-Ang):
   XX=             29.8520   YY=             -0.7426   ZZ=            -29.1094
   XY=             19.7132   XZ=             -9.3137   YZ=             -9.5316
 Octapole moment (field-independent basis, Debye-Ang**2):
  XXX=           1275.2929  YYY=          -1005.1610  ZZZ=          -5635.0744  XYY=            578.1529
  XXY=           -387.0915  XXZ=          -1315.5796  XZZ=            422.6148  YZZ=           -551.3395
  YYZ=          -1665.8301  XYZ=            180.4900
 Hexadecapole moment (field-independent basis, Debye-Ang**3):
 XXXX=         -18069.1058 YYYY=         -11552.0810 ZZZZ=        -143165.3838 XXXY=           -304.0566
 XXXZ=          19668.7708 YYYX=          -1544.1029 YYYZ=           -912.9907 ZZZX=          25899.2258
 ZZZY=          -2808.2290 XXYY=          -5397.3191 XXZZ=         -19769.2284 YYZZ=         -23906.4000
 XXYZ=          -2003.5968 YYXZ=           8799.8065 ZZXY=           1447.6289
 N-N= 2.738250538473D+03 E-N=-9.227117951642D+03  KE= 1.596789281024D+03
   1 Symmetry operations used in ECPInt.
 ECPInt:  NShTT=   97020 NPrTT=  299148 LenC2=   54160 LenP2D=  114178.
 LDataN:  DoStor=T MaxTD1= 7 Len=  274
 Calling FoFJK, ICntrl=      2127 FMM=F ISym2X=0 I1Cent= 0 IOpClX= 0 NMat=1 NMatS=1 NMatT=0.
 -------------------------------------------------------------------
 Center     Atomic                   Forces (Hartrees/Bohr)
 Number     Number              X              Y              Z
 -------------------------------------------------------------------
      1        8          -0.000000100    0.000001343    0.000000233
      2        1          -0.000000090   -0.000000681   -0.000000050
      3        6          -0.000000776   -0.000000228   -0.000000554
      4        1           0.000000159   -0.000000119    0.000000226
      5        6           0.000001972    0.000000422    0.000001057
      6        1           0.000000930   -0.000000003    0.000000582
      7        8           0.000006023    0.000000279    0.000003611
      8        6           0.000000753    0.000000175    0.000000787
      9        1           0.000000314   -0.000000198    0.000000205
     10        1           0.000000337    0.000000245    0.000000180
     11        6           0.000000042   -0.000000269   -0.000000176
     12        1          -0.000000285   -0.000000676   -0.000000415
     13        1          -0.000000605    0.000000537   -0.000000266
     14        6           0.000004038    0.000000415    0.000002562
     15        6          -0.000012917   -0.000000446   -0.000008094
     16        8          -0.000014806   -0.000002349   -0.000008940
     17        6          -0.000014503   -0.000001572   -0.000009298
     18        6           0.000047874    0.000006641    0.000031138
     19        8           0.000003322   -0.000000088    0.000002300
     20        6           0.000001056    0.000000168    0.000000353
     21        1          -0.000000514   -0.000000194   -0.000000193
     22        6          -0.000002058   -0.000000163   -0.000001398
     23        1          -0.000000821   -0.000000141   -0.000000514
     24        8          -0.000019143   -0.000002732   -0.000012663
     25        6           0.000000886    0.000000357    0.000000374
     26        1           0.000000032   -0.000000068    0.000000491
     27        6           0.000000384    0.000000196    0.000000467
     28        1           0.000001099    0.000000015    0.000000796
     29        8           0.000006617   -0.000000703    0.000004425
     30        6          -0.000000053    0.000000020   -0.000000672
     31        1           0.000000521    0.000000645    0.000000186
     32        1           0.000000451   -0.000000500    0.000000531
     33        6           0.000004363    0.000000124    0.000002232
     34        6          -0.000013761   -0.000000204   -0.000008850
     35        6          -0.000000084    0.000000053   -0.000000097
     36        1          -0.000000130    0.000000473   -0.000000729
     37        1          -0.000000643   -0.000000464    0.000000155
     38        8           0.000001297   -0.000001539    0.000003392
     39        6           0.000000339   -0.000000913   -0.000001302
     40        6          -0.000005988    0.000002390    0.000002594
     41        8           0.000003290    0.000000523    0.000003278
     42        6           0.000000333    0.000000049    0.000000757
     43        1          -0.000000848    0.000000075   -0.000000510
     44        6          -0.000001395   -0.000000310   -0.000001050
     45        1          -0.000000492    0.000000152   -0.000000308
     46        8           0.000001675   -0.000000463   -0.000002005
     47        6           0.000009110    0.000004556   -0.000016861
     48        1          -0.000001300    0.000001025    0.000002968
     49        1           0.000001138    0.000001288    0.000004452
     50        6          -0.000000687   -0.000008792   -0.000003714
     51        1          -0.000000580    0.000002974   -0.000000039
     52        1           0.000000680   -0.000000170    0.000000875
     53        8          -0.000009644    0.000001286    0.000004320
     54        1           0.000003187   -0.000002443    0.000003173
 -------------------------------------------------------------------
 Cartesian Forces:  Max     0.000047874 RMS     0.000006042

 GradGradGradGradGradGradGradGradGradGradGradGradGradGradGradGradGradGrad
 Berny optimization.
 FormGI is forming the generalized inverse of G from B-inverse, IUseBI=4.
 Internal  Forces:  Max     0.000014230 RMS     0.000002509
 Search for a local minimum.
 Step number   1 out of a maximum of  272 on scan point     1 out of    19
 All quantities printed in internal units (Hartrees-Bohrs-Radians)
 Mixed Optimization -- En-DIIS/RFO-DIIS
 Second derivative matrix not updated -- first step.
 ITU=  0
     Eigenvalues ---    0.00231   0.00241   0.00242   0.00248   0.00319
     Eigenvalues ---    0.00329   0.00342   0.00343   0.00354   0.00361
     Eigenvalues ---    0.00386   0.00404   0.01401   0.01572   0.01762
     Eigenvalues ---    0.01772   0.01776   0.01797   0.01934   0.02033
     Eigenvalues ---    0.02036   0.02103   0.02114   0.02120   0.02185
     Eigenvalues ---    0.02191   0.02248   0.02504   0.02505   0.02742
     Eigenvalues ---    0.02743   0.02756   0.02762   0.02845   0.02847
     Eigenvalues ---    0.04615   0.04615   0.04621   0.04780   0.04865
     Eigenvalues ---    0.04865   0.05412   0.05415   0.06589   0.06590
     Eigenvalues ---    0.06718   0.06952   0.06982   0.07002   0.07002
     Eigenvalues ---    0.09234   0.09350   0.09351   0.10003   0.10329
     Eigenvalues ---    0.10383   0.10385   0.11102   0.11103   0.11221
     Eigenvalues ---    0.11221   0.11654   0.11654   0.11944   0.11947
     Eigenvalues ---    0.12434   0.12437   0.14969   0.14969   0.15025
     Eigenvalues ---    0.16903   0.16904   0.17648   0.17654   0.17860
     Eigenvalues ---    0.17912   0.18639   0.19025   0.19026   0.19750
     Eigenvalues ---    0.19756   0.20431   0.20457   0.20963   0.20977
     Eigenvalues ---    0.23225   0.23629   0.24366   0.24466   0.24591
     Eigenvalues ---    0.24620   0.24748   0.24905   0.25378   0.25593
     Eigenvalues ---    0.25821   0.26512   0.26750   0.28604   0.28707
     Eigenvalues ---    0.29718   0.29742   0.30496   0.30497   0.32093
     Eigenvalues ---    0.33051   0.33052   0.33684   0.33685   0.33981
     Eigenvalues ---    0.34161   0.34270   0.34284   0.34285   0.34537
     Eigenvalues ---    0.34538   0.34646   0.36000   0.36139   0.36769
     Eigenvalues ---    0.36799   0.36923   0.36953   0.37048   0.37099
     Eigenvalues ---    0.37444   0.37607   0.37610   0.38495   0.38614
     Eigenvalues ---    0.39944   0.41024   0.41288   0.41741   0.41763
     Eigenvalues ---    0.43462   0.43482   0.45638   0.45689   0.48163
     Eigenvalues ---    0.48219   0.48611   0.48613   0.48756   0.48929
     Eigenvalues ---    0.48965   0.49044   0.53132   0.53134   0.54043
     Eigenvalues ---    0.54045   0.91402   0.91421   0.91660   0.91713
     Eigenvalues --- 1000.000001000.000001000.000001000.000001000.00000
     Eigenvalues --- 1000.000001000.000001000.000001000.000001000.00000
     Eigenvalues --- 1000.000001000.000001000.000001000.000001000.00000
     Eigenvalues --- 1000.000001000.000001000.000001000.000001000.00000
     Eigenvalues --- 1000.000001000.000001000.000001000.000001000.00000
     Eigenvalues --- 1000.000001000.000001000.000001000.000001000.00000
     Eigenvalues --- 1000.000001000.000001000.000001000.000001000.00000
     Eigenvalues --- 1000.000001000.000001000.000001000.000001000.00000
     Eigenvalues --- 1000.000001000.000001000.000001000.000001000.00000
     Eigenvalues --- 1000.000001000.000001000.000001000.000001000.00000
     Eigenvalues --- 1000.000001000.000001000.000001000.000001000.00000
     Eigenvalues --- 1000.000001000.000001000.000001000.000001000.00000
     Eigenvalues --- 1000.000001000.000001000.000001000.000001000.00000
     Eigenvalues --- 1000.000001000.000001000.000001000.000001000.00000
     Eigenvalues --- 1000.000001000.000001000.000001000.000001000.00000
     Eigenvalues --- 1000.000001000.000001000.000001000.000001000.00000
     Eigenvalues --- 1000.000001000.000001000.000001000.000001000.00000
     Eigenvalues --- 1000.000001000.000001000.000001000.000001000.00000
     Eigenvalues --- 1000.000001000.000001000.000001000.000001000.00000
     Eigenvalues --- 1000.000001000.000001000.000001000.000001000.00000
     Eigenvalues --- 1000.000001000.000001000.000001000.000001000.00000
     Eigenvalues --- 1000.000001000.00000
 RFO step:  Lambda=-2.44240803D-08 EMin= 2.31009314D-03
 Linear search not attempted -- first point.
 Iteration  1 RMS(Cart)=  0.00029444 RMS(Int)=  0.00000003
 Iteration  2 RMS(Cart)=  0.00000006 RMS(Int)=  0.00000000
 Iteration  1 RMS(Cart)=  0.00000000 RMS(Int)=  0.00000000
 Variable       Old X    -DE/DX   Delta X   Delta X   Delta X     New X
                                 (Linear)    (Quad)   (Total)
    R1        1.81673   0.00000   0.00000   0.00000   0.00000   1.81673
    R2        2.66444  -0.00000   0.00000  -0.00000  -0.00000   2.66443
    R3        2.04200   0.00000   0.00000   0.00000   0.00000   2.04200
    R4        2.61508   0.00000   0.00000   0.00000   0.00000   2.61508
    R5        2.63041   0.00000   0.00000   0.00000   0.00000   2.63041
    R6        2.04397   0.00000   0.00000   0.00000   0.00000   2.04397
    R7        2.62819   0.00000   0.00000  -0.00000  -0.00000   2.62819
    R8        2.26862   0.00000   0.00000   0.00000   0.00000   2.26862
    R9        2.06078   0.00000   0.00000   0.00000   0.00000   2.06078
   R10        2.06509   0.00000   0.00000   0.00000   0.00000   2.06509
   R11        2.86381   0.00000   0.00000  -0.00000  -0.00000   2.86381
   R12        2.69895  -0.00000   0.00000  -0.00000  -0.00000   2.69895
   R13        2.05939  -0.00000   0.00000  -0.00000  -0.00000   2.05939
   R14        2.06873   0.00000   0.00000   0.00000   0.00000   2.06874
   R15        2.82059  -0.00000   0.00000  -0.00000  -0.00000   2.82059
   R16        2.63026  -0.00000   0.00000  -0.00000  -0.00000   2.63026
   R17        2.53084  -0.00000   0.00000  -0.00000  -0.00000   2.53084
   R18        2.53593   0.00000   0.00000   0.00000   0.00000   2.53593
   R19        2.69378  -0.00000   0.00000  -0.00000  -0.00000   2.69378
   R20        2.81770   0.00000   0.00000   0.00000   0.00000   2.81770
   R21        2.62847   0.00000   0.00000  -0.00000  -0.00000   2.62847
   R22        2.26780  -0.00000   0.00000  -0.00000  -0.00000   2.26780
   R23        2.04196  -0.00000   0.00000  -0.00000  -0.00000   2.04195
   R24        2.61496   0.00000   0.00000  -0.00000  -0.00000   2.61496
   R25        2.04399  -0.00000   0.00000  -0.00000  -0.00000   2.04399
   R26        2.04195   0.00000   0.00000   0.00000   0.00000   2.04196
   R27        2.61496  -0.00000   0.00000  -0.00000  -0.00000   2.61496
   R28        2.63026  -0.00000   0.00000  -0.00000  -0.00000   2.63026
   R29        2.04399   0.00000   0.00000   0.00000   0.00000   2.04399
   R30        2.62847  -0.00000   0.00000  -0.00000  -0.00000   2.62847
   R31        2.26780   0.00000   0.00000   0.00000   0.00000   2.26780
   R32        2.06094   0.00000   0.00000  -0.00000  -0.00000   2.06094
   R33        2.06091  -0.00000   0.00000  -0.00000  -0.00000   2.06091
   R34        2.85332  -0.00000   0.00000  -0.00000  -0.00000   2.85332
   R35        2.69377   0.00000   0.00000   0.00000   0.00000   2.69378
   R36        2.81770  -0.00000   0.00000  -0.00000  -0.00000   2.81770
   R37        2.63041   0.00000   0.00000   0.00000   0.00000   2.63041
   R38        2.53593  -0.00000   0.00000  -0.00000  -0.00000   2.53593
   R39        2.06091  -0.00000   0.00000  -0.00000  -0.00000   2.06091
   R40        2.06094   0.00000   0.00000   0.00000   0.00000   2.06094
   R41        2.53084   0.00000   0.00000   0.00000   0.00000   2.53084
   R42        2.69896  -0.00000   0.00000  -0.00001  -0.00001   2.69895
   R43        2.82059   0.00000   0.00000   0.00000   0.00000   2.82059
   R44        2.62820  -0.00000   0.00000  -0.00000  -0.00000   2.62819
   R45        2.26862  -0.00000   0.00000  -0.00000  -0.00000   2.26862
   R46        2.04200   0.00000   0.00000   0.00000   0.00000   2.04200
   R47        2.61509  -0.00000   0.00000  -0.00000  -0.00000   2.61508
   R48        2.04397   0.00000   0.00000   0.00000   0.00000   2.04397
   R49        2.06875  -0.00000   0.00000  -0.00001  -0.00001   2.06874
   R50        2.05939   0.00000   0.00000   0.00000   0.00000   2.05939
   R51        2.86384  -0.00001   0.00000  -0.00003  -0.00003   2.86381
   R52        2.66440   0.00001   0.00000   0.00003   0.00003   2.66443
   R53        2.06509   0.00000   0.00000   0.00000   0.00000   2.06509
   R54        2.06077   0.00000   0.00000   0.00001   0.00001   2.06078
   R55        1.81674  -0.00000   0.00000  -0.00001  -0.00001   1.81673
    A1        1.90607  -0.00000   0.00000  -0.00000  -0.00000   1.90606
    A2        2.10359   0.00000   0.00000   0.00000   0.00000   2.10359
    A3        2.09170   0.00000   0.00000   0.00000   0.00000   2.09170
    A4        2.08789  -0.00000   0.00000  -0.00000  -0.00000   2.08789
    A5        2.11639  -0.00000   0.00000  -0.00000  -0.00000   2.11639
    A6        2.09390   0.00000   0.00000   0.00000   0.00000   2.09390
    A7        2.07290   0.00000   0.00000   0.00000   0.00000   2.07290
    A8        1.88553   0.00000   0.00000  -0.00000  -0.00000   1.88553
    A9        1.93771   0.00000   0.00000  -0.00000  -0.00000   1.93771
   A10        1.91857  -0.00000   0.00000  -0.00000  -0.00000   1.91857
   A11        1.94595  -0.00000   0.00000   0.00000   0.00000   1.94596
   A12        1.90850   0.00000   0.00000   0.00000   0.00000   1.90850
   A13        1.86764   0.00000   0.00000   0.00000   0.00000   1.86765
   A14        1.93250   0.00000   0.00000   0.00001   0.00001   1.93251
   A15        1.86142  -0.00000   0.00000  -0.00001  -0.00001   1.86141
   A16        1.95370  -0.00000   0.00000  -0.00000  -0.00000   1.95369
   A17        1.91477  -0.00000   0.00000  -0.00000  -0.00000   1.91477
   A18        1.91706  -0.00000   0.00000  -0.00000  -0.00000   1.91706
   A19        1.88275   0.00000   0.00000   0.00000   0.00000   1.88276
   A20        2.05287   0.00000   0.00000   0.00000   0.00000   2.05287
   A21        2.10124   0.00000   0.00000   0.00000   0.00000   2.10124
   A22        2.12908  -0.00000   0.00000  -0.00000  -0.00000   2.12908
   A23        2.16638  -0.00000   0.00000  -0.00000  -0.00000   2.16638
   A24        2.15070  -0.00000   0.00000  -0.00000  -0.00000   2.15070
   A25        1.96611   0.00000   0.00000   0.00000   0.00000   1.96611
   A26        2.01287  -0.00000   0.00000  -0.00000  -0.00000   2.01287
   A27        2.12962   0.00000   0.00000   0.00000   0.00000   2.12962
   A28        2.10152  -0.00000   0.00000  -0.00000  -0.00000   2.10152
   A29        2.05205  -0.00000   0.00000  -0.00000  -0.00000   2.05205
   A30        1.96617   0.00000   0.00000  -0.00000  -0.00000   1.96616
   A31        2.14611  -0.00000   0.00000  -0.00000  -0.00000   2.14611
   A32        2.17091   0.00000   0.00000   0.00000   0.00000   2.17091
   A33        2.01802  -0.00000   0.00000   0.00000   0.00000   2.01802
   A34        2.09056   0.00000   0.00000   0.00000   0.00000   2.09056
   A35        2.08833   0.00000   0.00000  -0.00000  -0.00000   2.08832
   A36        2.10430  -0.00000   0.00000  -0.00000  -0.00000   2.10430
   A37        2.09350   0.00000   0.00000   0.00000   0.00000   2.09350
   A38        2.07328  -0.00000   0.00000  -0.00000  -0.00000   2.07328
   A39        2.11641  -0.00000   0.00000  -0.00000  -0.00000   2.11641
   A40        2.10430   0.00000   0.00000   0.00000   0.00000   2.10430
   A41        2.09056  -0.00000   0.00000  -0.00000  -0.00000   2.09056
   A42        2.08833  -0.00000   0.00000  -0.00000  -0.00000   2.08832
   A43        2.11641  -0.00000   0.00000  -0.00000  -0.00000   2.11641
   A44        2.09350  -0.00000   0.00000  -0.00000  -0.00000   2.09350
   A45        2.07328   0.00000   0.00000   0.00000   0.00000   2.07328
   A46        1.88920  -0.00000   0.00000   0.00000   0.00000   1.88920
   A47        1.94426  -0.00000   0.00000  -0.00001  -0.00001   1.94426
   A48        1.91822   0.00000   0.00000   0.00000   0.00000   1.91822
   A49        1.94426   0.00000   0.00000   0.00001   0.00001   1.94426
   A50        1.91831  -0.00000   0.00000  -0.00000  -0.00000   1.91831
   A51        1.84963  -0.00000   0.00000   0.00000   0.00000   1.84963
   A52        2.05205   0.00000   0.00000   0.00000   0.00000   2.05205
   A53        2.10152   0.00000   0.00000   0.00000   0.00000   2.10152
   A54        2.12962  -0.00000   0.00000  -0.00000  -0.00000   2.12962
   A55        2.17091  -0.00000   0.00000  -0.00000  -0.00000   2.17091
   A56        2.14611   0.00000   0.00000   0.00000   0.00000   2.14611
   A57        1.96617  -0.00000   0.00000  -0.00000  -0.00000   1.96617
   A58        1.84963  -0.00000   0.00000  -0.00000  -0.00000   1.84963
   A59        1.91831  -0.00000   0.00000   0.00000   0.00000   1.91831
   A60        1.91822   0.00000   0.00000  -0.00000  -0.00000   1.91822
   A61        1.94426   0.00000   0.00000  -0.00000  -0.00000   1.94426
   A62        1.94426  -0.00000   0.00000   0.00000   0.00000   1.94426
   A63        1.88920  -0.00000   0.00000  -0.00000  -0.00000   1.88920
   A64        2.01802  -0.00000   0.00000   0.00000   0.00000   2.01802
   A65        2.12908  -0.00000   0.00000  -0.00000  -0.00000   2.12908
   A66        2.10124   0.00000   0.00000   0.00000   0.00000   2.10124
   A67        2.05287   0.00000   0.00000  -0.00000  -0.00000   2.05287
   A68        1.96612  -0.00000   0.00000  -0.00001  -0.00001   1.96611
   A69        2.15069   0.00000   0.00000   0.00001   0.00001   2.15070
   A70        2.16638  -0.00000   0.00000  -0.00000  -0.00000   2.16638
   A71        2.01287   0.00000   0.00000   0.00000   0.00000   2.01287
   A72        2.09170   0.00000   0.00000   0.00000   0.00000   2.09170
   A73        2.08789  -0.00000   0.00000   0.00000   0.00000   2.08789
   A74        2.10359  -0.00000   0.00000  -0.00000  -0.00000   2.10359
   A75        2.09390  -0.00000   0.00000  -0.00000  -0.00000   2.09390
   A76        2.07289   0.00000   0.00000   0.00000   0.00000   2.07290
   A77        2.11639   0.00000   0.00000  -0.00000  -0.00000   2.11639
   A78        1.88272   0.00000   0.00000   0.00004   0.00004   1.88276
   A79        1.91704   0.00000   0.00000   0.00002   0.00002   1.91706
   A80        1.95371  -0.00000   0.00000  -0.00002  -0.00002   1.95369
   A81        1.91476  -0.00000   0.00000   0.00001   0.00001   1.91477
   A82        1.86144  -0.00000   0.00000  -0.00003  -0.00003   1.86141
   A83        1.93252   0.00000   0.00000  -0.00001  -0.00001   1.93251
   A84        1.86764  -0.00000   0.00000   0.00001   0.00001   1.86765
   A85        1.90849  -0.00000   0.00000   0.00001   0.00001   1.90849
   A86        1.91858   0.00000   0.00000  -0.00001  -0.00001   1.91857
   A87        1.94593   0.00000   0.00000   0.00003   0.00003   1.94596
   A88        1.93773  -0.00000   0.00000  -0.00002  -0.00002   1.93771
   A89        1.88554  -0.00000   0.00000  -0.00001  -0.00001   1.88553
   A90        1.90604   0.00001   0.00000   0.00002   0.00002   1.90606
    D1       -1.21355   0.00000   0.00000   0.00024   0.00024  -1.21331
    D2        2.98732   0.00000   0.00000   0.00024   0.00024   2.98756
    D3        0.93194   0.00000   0.00000   0.00024   0.00024   0.93219
    D4       -0.00010   0.00000   0.00000   0.00000   0.00000  -0.00010
    D5        3.14117   0.00000   0.00000   0.00000   0.00000   3.14117
    D6       -3.14142  -0.00000   0.00000  -0.00000  -0.00000  -3.14142
    D7       -0.00014  -0.00000   0.00000  -0.00000  -0.00000  -0.00015
    D8        0.00066   0.00000   0.00000   0.00001   0.00001   0.00067
    D9       -3.14103   0.00000   0.00000   0.00000   0.00000  -3.14103
   D10       -3.14121   0.00000   0.00000   0.00002   0.00002  -3.14119
   D11        0.00029   0.00000   0.00000   0.00001   0.00001   0.00030
   D12       -3.14127   0.00000   0.00000   0.00000   0.00000  -3.14127
   D13       -0.00026   0.00000   0.00000   0.00000   0.00000  -0.00026
   D14        0.00001   0.00000   0.00000   0.00000   0.00000   0.00001
   D15        3.14102   0.00000   0.00000  -0.00000  -0.00000   3.14102
   D16       -1.02062   0.00000   0.00000   0.00002   0.00002  -1.02060
   D17        1.02926  -0.00000   0.00000   0.00002   0.00002   1.02927
   D18        3.09597  -0.00000   0.00000   0.00002   0.00002   3.09599
   D19        1.08277  -0.00000   0.00000   0.00002   0.00002   1.08279
   D20        3.13265  -0.00000   0.00000   0.00002   0.00002   3.13266
   D21       -1.08383  -0.00000   0.00000   0.00002   0.00002  -1.08381
   D22       -3.11428   0.00000   0.00000   0.00002   0.00002  -3.11426
   D23       -1.06440   0.00000   0.00000   0.00002   0.00002  -1.06438
   D24        1.00231   0.00000   0.00000   0.00002   0.00002   1.00233
   D25        1.05983   0.00000   0.00000   0.00013   0.00013   1.05996
   D26       -1.00738   0.00000   0.00000   0.00013   0.00013  -1.00725
   D27       -3.11747   0.00000   0.00000   0.00013   0.00013  -3.11734
   D28        0.00018  -0.00000   0.00000  -0.00001  -0.00001   0.00017
   D29       -3.14004   0.00000   0.00000   0.00010   0.00010  -3.13994
   D30       -3.14082  -0.00000   0.00000  -0.00000  -0.00000  -3.14083
   D31        0.00214   0.00000   0.00000   0.00011   0.00011   0.00225
   D32       -3.14086  -0.00000   0.00000   0.00000   0.00000  -3.14086
   D33        0.00052  -0.00000   0.00000  -0.00000  -0.00000   0.00052
   D34        0.00013  -0.00000   0.00000  -0.00000  -0.00000   0.00012
   D35        3.14151  -0.00000   0.00000  -0.00001  -0.00001   3.14150
   D36        0.00803   0.00000   0.00000   0.00005   0.00005   0.00808
   D37       -3.13492  -0.00000   0.00000  -0.00006  -0.00006  -3.13498
   D38        3.14154   0.00001   0.00000   0.00019   0.00019  -3.14146
   D39        0.00054  -0.00001   0.00000  -0.00021  -0.00021   0.00033
   D40        3.14114   0.00000   0.00000   0.00010   0.00010   3.14125
   D41       -1.03916   0.00000   0.00000   0.00010   0.00010  -1.03906
   D42        1.03832   0.00000   0.00000   0.00010   0.00010   1.03842
   D43       -0.00168  -0.00001   0.00000  -0.00023  -0.00023  -0.00191
   D44        3.13931   0.00001   0.00000   0.00017   0.00017   3.13948
   D45        3.14000  -0.00001   0.00000  -0.00022  -0.00022   3.13978
   D46       -0.00220   0.00001   0.00000   0.00018   0.00018  -0.00201
   D47       -0.00003  -0.00000   0.00000  -0.00001  -0.00001  -0.00004
   D48        3.14117  -0.00000   0.00000   0.00000   0.00000   3.14117
   D49        3.14147  -0.00000   0.00000  -0.00002  -0.00002   3.14146
   D50       -0.00051  -0.00000   0.00000  -0.00001  -0.00001  -0.00052
   D51       -0.00037   0.00000   0.00000   0.00000   0.00000  -0.00037
   D52       -3.14156  -0.00000   0.00000  -0.00000  -0.00000  -3.14157
   D53        3.14101   0.00000   0.00000   0.00000   0.00000   3.14101
   D54       -0.00018  -0.00000   0.00000  -0.00001  -0.00001  -0.00019
   D55        0.00021  -0.00000   0.00000  -0.00002  -0.00002   0.00019
   D56       -3.14100  -0.00000   0.00000  -0.00001  -0.00001  -3.14101
   D57       -3.14159  -0.00000   0.00000  -0.00002  -0.00002   3.14157
   D58        0.00039  -0.00000   0.00000  -0.00002  -0.00002   0.00037
   D59       -0.00016   0.00000   0.00000   0.00003   0.00003  -0.00013
   D60        3.14085   0.00000   0.00000   0.00000   0.00000   3.14086
   D61       -3.14155   0.00000   0.00000   0.00003   0.00003  -3.14152
   D62       -0.00053   0.00000   0.00000   0.00001   0.00001  -0.00053
   D63       -3.14144   0.00000   0.00000  -0.00000  -0.00000  -3.14145
   D64        0.00003   0.00000   0.00000   0.00001   0.00001   0.00004
   D65        0.00053   0.00000   0.00000   0.00000   0.00000   0.00053
   D66       -3.14118   0.00000   0.00000   0.00001   0.00001  -3.14117
   D67        1.05576  -0.00000   0.00000   0.00000   0.00000   1.05576
   D68       -1.03017   0.00000   0.00000   0.00000   0.00000  -1.03017
   D69        3.14159   0.00000   0.00000   0.00000   0.00000   3.14159
   D70       -1.05566  -0.00000   0.00000   0.00000   0.00000  -1.05566
   D71        3.14159   0.00000   0.00000   0.00000   0.00000   3.14159
   D72        1.03016   0.00000   0.00000   0.00000   0.00000   1.03017
   D73        3.14159  -0.00000   0.00000   0.00000   0.00000   3.14159
   D74        1.05565   0.00000   0.00000   0.00000   0.00000   1.05566
   D75       -1.05577   0.00000   0.00000   0.00000   0.00000  -1.05577
   D76       -1.03847   0.00000   0.00000   0.00007   0.00007  -1.03841
[...]
 Alpha virt. eigenvalues --    0.74941   0.75090   0.75943   0.76160   0.76637
 Alpha virt. eigenvalues --    0.76867   0.77076   0.77653   0.78152   0.78691
 Alpha virt. eigenvalues --    0.78835   0.79100   0.79364   0.79881   0.80550
 Alpha virt. eigenvalues --    0.81188   0.81273   0.81401   0.82265   0.82611
 Alpha virt. eigenvalues --    0.83385   0.83467   0.84625   0.84674   0.84916
 Alpha virt. eigenvalues --    0.85804   0.86716   0.87021   0.87266   0.87453
 Alpha virt. eigenvalues --    0.87817   0.88140   0.88374   0.88666   0.89079
 Alpha virt. eigenvalues --    0.89558   0.89638   0.90763   0.91148   0.91792
 Alpha virt. eigenvalues --    0.92005   0.92217   0.92501   0.93420   0.93961
 Alpha virt. eigenvalues --    0.94034   0.94189   0.94939   0.95123   0.95372
 Alpha virt. eigenvalues --    0.95421   0.95739   0.95970   0.96911   0.97711
 Alpha virt. eigenvalues --    0.98371   0.98929   1.00141   1.00487   1.01263
 Alpha virt. eigenvalues --    1.01650   1.01814   1.02071   1.03242   1.04909
 Alpha virt. eigenvalues --    1.05619   1.06741   1.07253   1.07412   1.08107
 Alpha virt. eigenvalues --    1.08648   1.08794   1.09588   1.10547   1.10774
 Alpha virt. eigenvalues --    1.11117   1.11664   1.11923   1.12757   1.13096
 Alpha virt. eigenvalues --    1.13775   1.14935   1.15602   1.16198   1.16547
 Alpha virt. eigenvalues --    1.17140   1.18879   1.19880   1.21625   1.21897
 Alpha virt. eigenvalues --    1.22446   1.22651   1.23811   1.24333   1.25180
 Alpha virt. eigenvalues --    1.25242   1.25526   1.26123   1.26503   1.27295
 Alpha virt. eigenvalues --    1.28131   1.30401   1.31021   1.31375   1.32373
 Alpha virt. eigenvalues --    1.32871   1.33178   1.33805   1.34312   1.34352
 Alpha virt. eigenvalues --    1.34866   1.35389   1.35962   1.38561   1.38935
 Alpha virt. eigenvalues --    1.39126   1.39523   1.40126   1.40253   1.41229
 Alpha virt. eigenvalues --    1.41687   1.41977   1.42209   1.43988   1.44618
 Alpha virt. eigenvalues --    1.44972   1.45238   1.45258   1.47220   1.47458
 Alpha virt. eigenvalues --    1.48599   1.49206   1.50571   1.51494   1.51597
 Alpha virt. eigenvalues --    1.51800   1.52911   1.53133   1.53677   1.53903
 Alpha virt. eigenvalues --    1.54020   1.55324   1.55462   1.55827   1.56544
 Alpha virt. eigenvalues --    1.56639   1.56783   1.57386   1.57483   1.57755
 Alpha virt. eigenvalues --    1.58240   1.58683   1.59274   1.60374   1.60425
 Alpha virt. eigenvalues --    1.61493   1.61793   1.62451   1.62558   1.62815
 Alpha virt. eigenvalues --    1.63064   1.63272   1.63320   1.63438   1.63708
 Alpha virt. eigenvalues --    1.63871   1.64218   1.64839   1.65231   1.65569
 Alpha virt. eigenvalues --    1.65818   1.66318   1.67380   1.69332   1.69517
 Alpha virt. eigenvalues --    1.70158   1.70839   1.71356   1.72514   1.73455
 Alpha virt. eigenvalues --    1.73921   1.74468   1.74605   1.75130   1.75475
 Alpha virt. eigenvalues --    1.76489   1.76964   1.77896   1.79791   1.79825
 Alpha virt. eigenvalues --    1.80606   1.81297   1.82077   1.82528   1.82687
 Alpha virt. eigenvalues --    1.83120   1.83201   1.84642   1.84860   1.85092
 Alpha virt. eigenvalues --    1.86590   1.86647   1.87150   1.87225   1.88170
 Alpha virt. eigenvalues --    1.88428   1.88787   1.89451   1.89692   1.90839
 Alpha virt. eigenvalues --    1.91470   1.92297   1.92819   1.92926   1.93453
 Alpha virt. eigenvalues --    1.94984   1.96061   1.96681   1.97593   1.98933
 Alpha virt. eigenvalues --    1.99379   1.99913   2.00225   2.01058   2.01265
 Alpha virt. eigenvalues --    2.01983   2.02647   2.03001   2.03048   2.04614
 Alpha virt. eigenvalues --    2.04902   2.05040   2.05917   2.06070   2.06276
 Alpha virt. eigenvalues --    2.06782   2.07138   2.07414   2.07676   2.07749
 Alpha virt. eigenvalues --    2.08899   2.09036   2.09222   2.11010   2.11376
 Alpha virt. eigenvalues --    2.12890   2.13549   2.14039   2.14801   2.15482
 Alpha virt. eigenvalues --    2.15765   2.16185   2.17450   2.17762   2.18505
 Alpha virt. eigenvalues --    2.18629   2.19797   2.20076   2.20726   2.22355
 Alpha virt. eigenvalues --    2.22503   2.22947   2.24178   2.25108   2.25427
 Alpha virt. eigenvalues --    2.25868   2.26775   2.27188   2.28821   2.28860
 Alpha virt. eigenvalues --    2.30348   2.30830   2.31449   2.32123   2.32275
 Alpha virt. eigenvalues --    2.32751   2.32822   2.33185   2.33573   2.34128
 Alpha virt. eigenvalues --    2.34291   2.34756   2.36026   2.36096   2.37074
 Alpha virt. eigenvalues --    2.37654   2.37848   2.39071   2.39149   2.39291
 Alpha virt. eigenvalues --    2.39354   2.39848   2.41508   2.42382   2.42578
 Alpha virt. eigenvalues --    2.43365   2.43831   2.45120   2.45615   2.45797
 Alpha virt. eigenvalues --    2.46900   2.47248   2.48966   2.49290   2.49436
 Alpha virt. eigenvalues --    2.50088   2.51287   2.52017   2.52518   2.53956
 Alpha virt. eigenvalues --    2.55193   2.55281   2.55765   2.55924   2.56809
 Alpha virt. eigenvalues --    2.57735   2.58012   2.58606   2.58999   2.59533
 Alpha virt. eigenvalues --    2.60535   2.61204   2.61283   2.61949   2.62082
 Alpha virt. eigenvalues --    2.62226   2.63086   2.63958   2.64143   2.65596
 Alpha virt. eigenvalues --    2.65671   2.66535   2.66596   2.66708   2.68010
 Alpha virt. eigenvalues --    2.68534   2.69179   2.69797   2.70581   2.70706
 Alpha virt. eigenvalues --    2.71080   2.71306   2.71349   2.71514   2.72000
 Alpha virt. eigenvalues --    2.72592   2.72938   2.73129   2.73374   2.73719
 Alpha virt. eigenvalues --    2.75338   2.75743   2.76068   2.76865   2.77180
 Alpha virt. eigenvalues --    2.77832   2.79376   2.79805   2.80388   2.81291
 Alpha virt. eigenvalues --    2.82242   2.82606   2.82681   2.83316   2.83414
 Alpha virt. eigenvalues --    2.84331   2.84489   2.84552   2.85068   2.85237
 Alpha virt. eigenvalues --    2.85616   2.86027   2.86410   2.87152   2.87228
 Alpha virt. eigenvalues --    2.87680   2.88220   2.88669   2.89249   2.89355
 Alpha virt. eigenvalues --    2.89472   2.90553   2.91307   2.92256   2.92275
 Alpha virt. eigenvalues --    2.92800   2.93792   2.94150   2.94622   2.95073
 Alpha virt. eigenvalues --    2.95158   2.95608   2.95793   2.97070   2.97173
 Alpha virt. eigenvalues --    2.97356   2.97736   2.97999   2.99210   2.99598
 Alpha virt. eigenvalues --    2.99678   3.00800   3.00984   3.01356   3.02297
 Alpha virt. eigenvalues --    3.02353   3.03699   3.03782   3.03987   3.05401
 Alpha virt. eigenvalues --    3.06242   3.06406   3.06518   3.07246   3.08658
 Alpha virt. eigenvalues --    3.08965   3.09372   3.09814   3.10168   3.11043
 Alpha virt. eigenvalues --    3.12257   3.12674   3.13030   3.13052   3.13828
 Alpha virt. eigenvalues --    3.14037   3.14198   3.14471   3.15110   3.15383
 Alpha virt. eigenvalues --    3.16309   3.16538   3.17731   3.18371   3.18615
 Alpha virt. eigenvalues --    3.18855   3.19262   3.19385   3.20098   3.20268
 Alpha virt. eigenvalues --    3.20466   3.22220   3.22387   3.22969   3.23283
 Alpha virt. eigenvalues --    3.23477   3.24389   3.24638   3.24871   3.25032
 Alpha virt. eigenvalues --    3.25557   3.26080   3.26210   3.26427   3.26953
 Alpha virt. eigenvalues --    3.27188   3.28131   3.28731   3.28833   3.29107
 Alpha virt. eigenvalues --    3.29465   3.30007   3.30332   3.31226   3.31444
 Alpha virt. eigenvalues --    3.32013   3.32746   3.32837   3.33664   3.34081
 Alpha virt. eigenvalues --    3.34782   3.35130   3.35434   3.35981   3.36422
 Alpha virt. eigenvalues --    3.36526   3.36786   3.37208   3.38556   3.38693
 Alpha virt. eigenvalues --    3.39095   3.39688   3.39800   3.39865   3.40532
 Alpha virt. eigenvalues --    3.41236   3.41292   3.41607   3.42346   3.42814
 Alpha virt. eigenvalues --    3.43000   3.43029   3.43381   3.43965   3.45274
 Alpha virt. eigenvalues --    3.45455   3.45727   3.47087   3.47142   3.47692
 Alpha virt. eigenvalues --    3.48030   3.48588   3.48789   3.48891   3.48960
 Alpha virt. eigenvalues --    3.49671   3.50173   3.50860   3.51819   3.52127
 Alpha virt. eigenvalues --    3.52701   3.53344   3.54212   3.54343   3.54719
 Alpha virt. eigenvalues --    3.55684   3.55807   3.56006   3.57329   3.57599
 Alpha virt. eigenvalues --    3.58110   3.59873   3.61175   3.61848   3.62641
 Alpha virt. eigenvalues --    3.62793   3.63117   3.63980   3.64385   3.64982
 Alpha virt. eigenvalues --    3.65364   3.66312   3.66727   3.67080   3.67881
 Alpha virt. eigenvalues --    3.71646   3.72420   3.75855   3.75920   3.78409
 Alpha virt. eigenvalues --    3.78695   3.80760   3.81136   3.82575   3.83241
 Alpha virt. eigenvalues --    3.83417   3.83784   3.84483   3.85173   3.85788
 Alpha virt. eigenvalues --    3.86762   3.87740   3.88452   3.88703   3.89936
 Alpha virt. eigenvalues --    3.90243   3.91235   3.92169   3.92451   3.93199
 Alpha virt. eigenvalues --    3.93294   3.94250   3.94509   3.98016   3.98043
 Alpha virt. eigenvalues --    3.99143   3.99890   4.02301   4.03690   4.04220
 Alpha virt. eigenvalues --    4.05449   4.05523   4.05857   4.06277   4.07461
 Alpha virt. eigenvalues --    4.08800   4.09984   4.11525   4.14175   4.14723
 Alpha virt. eigenvalues --    4.15151   4.15514   4.15994   4.16388   4.18221
 Alpha virt. eigenvalues --    4.18905   4.19153   4.19974   4.20022   4.20340
 Alpha virt. eigenvalues --    4.20434   4.20509   4.24509   4.24752   4.25499
 Alpha virt. eigenvalues --    4.26337   4.26486   4.26708   4.26886   4.27099
 Alpha virt. eigenvalues --    4.29438   4.31402   4.32305   4.32645   4.33964
 Alpha virt. eigenvalues --    4.34540   4.37750   4.37776   4.43214   4.44286
 Alpha virt. eigenvalues --    4.44484   4.44974   4.46903   4.47320   4.49776
 Alpha virt. eigenvalues --    4.50899   4.53534   4.53966   4.54010   4.54770
 Alpha virt. eigenvalues --    4.54862   4.56071   4.59957   4.60053   4.61081
 Alpha virt. eigenvalues --    4.61214   4.62579   4.63197   4.65146   4.66070
 Alpha virt. eigenvalues --    4.66953   4.69244   4.71884   4.72643   4.74110
 Alpha virt. eigenvalues --    4.74701   4.75169   4.77849   4.77872   4.81127
 Alpha virt. eigenvalues --    4.86542   4.88560   4.89223   4.89810   4.91399
 Alpha virt. eigenvalues --    4.92022   4.92935   4.94995   4.97295   4.98659
 Alpha virt. eigenvalues --    5.04829   5.07399   5.09908   5.13974   5.14943
 Alpha virt. eigenvalues --    5.17489   5.17890   5.17917   5.18335   5.21785
 Alpha virt. eigenvalues --    5.22994   5.25048   5.25764   5.26170   5.26909
 Alpha virt. eigenvalues --    5.28605   5.28841   5.28918   5.30021   5.31444
 Alpha virt. eigenvalues --    5.32434   5.32494   5.34068   5.34236   5.34518
 Alpha virt. eigenvalues --    5.37335   5.37471   5.46070   5.46381   5.46400
 Alpha virt. eigenvalues --    5.47775   5.47921   5.50271   5.50660   5.50999
 Alpha virt. eigenvalues --    5.51069   5.51162   5.51954   5.55686   5.58362
 Alpha virt. eigenvalues --    5.61212   5.65039   5.67801   5.67901   5.67964
 Alpha virt. eigenvalues --    5.68071   5.69509   5.69705   5.73320   5.73466
 Alpha virt. eigenvalues --    5.73496   5.75823   5.75851   5.85693   5.86613
 Alpha virt. eigenvalues --    5.86739   5.91046   5.91155   5.95920   5.97643
 Alpha virt. eigenvalues --    5.97719   5.98543   5.99824   6.07377   6.14354
 Alpha virt. eigenvalues --    6.14435   6.17715   6.17871   6.18039   6.18119
 Alpha virt. eigenvalues --    6.21477   6.21965   6.25831   6.25862   6.26384
 Alpha virt. eigenvalues --    6.27301   6.34959   6.35033   6.35204   6.35426
 Alpha virt. eigenvalues --    6.35984   6.41096   6.42473   6.42549   6.44114
 Alpha virt. eigenvalues --    6.44133   6.46960   6.53803   6.55986   6.57058
 Alpha virt. eigenvalues --    6.58076   6.64348   6.64513   6.64533   6.64572
 Alpha virt. eigenvalues --    6.64609   6.66580   6.70537   6.71499   6.73260
 Alpha virt. eigenvalues --    6.74465   6.75234   6.75334   6.76551   6.77881
 Alpha virt. eigenvalues --    6.78407   6.79316   6.86413   6.87807   6.87828
 Alpha virt. eigenvalues --    6.90317   6.91796   6.92355   6.92878   6.94560
 Alpha virt. eigenvalues --    6.94609   6.95632   7.05478   7.06701   7.06750
 Alpha virt. eigenvalues --    7.08877   7.11022   7.11067   7.12208   7.13582
 Alpha virt. eigenvalues --    7.14889   7.16165   7.31392   7.34862   7.34998
 Alpha virt. eigenvalues --    7.37310   7.41530   7.42583   7.43534   7.46063
 Alpha virt. eigenvalues --   22.30004  22.33592  22.50870  22.52919  22.52965
 Alpha virt. eigenvalues --   22.62700  22.62743  22.63727  22.80858  22.81407
 Alpha virt. eigenvalues --   22.83899  22.84193  22.87348  22.87702  23.00883
 Alpha virt. eigenvalues --   23.01546  23.38944  23.39147  23.52906  23.55937
 Alpha virt. eigenvalues --   23.65882  23.68546  43.90355  43.90385  44.05944
 Alpha virt. eigenvalues --   44.07205  44.08368  44.10305  44.31640  44.42406
 Alpha virt. eigenvalues --   44.43387  44.59698
          Condensed to atoms (all electrons):
 Mulliken charges:
               1
     1  O   -0.459565
     2  H    0.314042
     3  C   -0.155716
     4  H    0.186396
     5  C   -0.182903
     6  H    0.181877
     7  O   -0.332498
     8  C   -0.141850
     9  H    0.158342
    10  H    0.136066
    11  C   -0.061539
    12  H    0.136422
    13  H    0.129540
    14  C    0.040001
    15  C    0.338795
    16  O   -0.254050
    17  C    0.048279
    18  C    0.321133
    19  O   -0.279264
    20  C   -0.161074
    21  H    0.169861
    22  C   -0.166087
    23  H    0.178965
    24  O   -0.336794
    25  C   -0.160781
    26  H    0.169877
    27  C   -0.166204
    28  H    0.178985
    29  O   -0.336718
    30  C   -0.116391
    31  H    0.156585
    32  H    0.151517
    33  C    0.048648
    34  C    0.320895
    35  C   -0.116377
    36  H    0.156287
    37  H    0.151819
    38  O   -0.279171
    39  C    0.039862
    40  C    0.339018
    41  O   -0.253964
    42  C   -0.155634
    43  H    0.186171
    44  C   -0.182798
    45  H    0.181402
    46  O   -0.332821
    47  C   -0.061896
    48  H    0.129617
    49  H    0.136559
    50  C   -0.141604
    51  H    0.135669
    52  H    0.158595
    53  O   -0.459507
    54  H    0.313981
 Sum of Mulliken charges =  -0.00000
 Mulliken charges with hydrogens summed into heavy atoms:
               1
     1  O   -0.145523
     3  C    0.030679
     5  C   -0.001026
     7  O   -0.332498
     8  C    0.152559
    11  C    0.204424
    14  C    0.040001
    15  C    0.338795
    16  O   -0.254050
    17  C    0.048279
    18  C    0.321133
    19  O   -0.279264
    20  C    0.008787
    22  C    0.012878
    24  O   -0.336794
    25  C    0.009097
    27  C    0.012782
    29  O   -0.336718
    30  C    0.191710
    33  C    0.048648
    34  C    0.320895
    35  C    0.191729
    38  O   -0.279171
    39  C    0.039862
    40  C    0.339018
    41  O   -0.253964
    42  C    0.030538
    44  C   -0.001396
    46  O   -0.332821
    47  C    0.204279
    50  C    0.152660
    53  O   -0.145526
 Electronic spatial extent (au):  <R**2>=          97708.5420
 Charge=             -0.0000 electrons
 Dipole moment (field-independent basis, Debye):
    X=             -1.5522    Y=              1.9406    Z=              0.7152  Tot=              2.5859
 Quadrupole moment (field-independent basis, Debye-Ang):
   XX=           -187.6504   YY=           -172.0412   ZZ=           -168.3227
   XY=              1.3158   XZ=            -18.6508   YZ=             24.5976
 Traceless Quadrupole moment (field-independent basis, Debye-Ang):
   XX=            -11.6456   YY=              3.9636   ZZ=              7.6821
   XY=              1.3158   XZ=            -18.6508   YZ=             24.5976
 Octapole moment (field-independent basis, Debye-Ang**2):
  XXX=           1581.4057  YYY=           -850.9236  ZZZ=          -4309.2042  XYY=            580.1420
  XXY=           -305.4672  XXZ=          -1549.0235  XZZ=            220.9329  YZZ=             22.6242
  YYZ=          -1507.9006  XYZ=             -2.3076
 Hexadecapole moment (field-independent basis, Debye-Ang**3):
 XXXX=         -22601.8063 YYYY=          -6499.8417 ZZZZ=         -89137.6592 XXXY=           -266.5075
 XXXZ=          16358.6249 YYYX=            635.2439 YYYZ=          -4079.4450 ZZZX=           9963.6486
 ZZZY=           1186.5209 XXYY=          -4727.6279 XXZZ=         -19165.2314 YYZZ=         -17722.1226
 XXYZ=          -1183.6512 YYXZ=           5718.9641 ZZXY=           -264.6626
 N-N= 2.934930044710D+03 E-N=-9.620681785883D+03  KE= 1.596779727611D+03
 Unable to Open any file for archive entry.
 1\1\GINC-R1I7N29\Scan\RM062X\def2TZVP\C22H22O10\HMAYES\21-Nov-2020\0\\
 # m062x/Def2TZVP nosymm scf=xqc opt=(modredundant,ReadFC) CPHF=Grid=Fi
 ne guess=read geom=allcheck\\dimer from optimized trimer\\0,1\O,4.9904
 048101,5.5697882187,4.7440532241\H,5.0892387101,6.1126423197,5.5313462
 635\C,-2.5130707747,2.1681887954,6.2665910149\H,-3.1401409496,1.558189
 3764,6.9015864553\C,-1.1868986488,2.3956196917,6.5897467501\H,-0.74641
 68687,1.9769740851,7.4847549774\O,1.5281926449,2.9255659606,7.14224578
 68\C,3.07125546,4.3947064287,5.6009632203\H,3.6159986486,3.4503052832,
 5.625638927\H,3.1405739899,4.851078306,6.5914659316\C,3.6212618011,5.3
 119809927,4.5273511068\H,3.5453024576,4.826542346,3.5546489259\H,3.032
 4571912,6.2341537718,4.4896532909\C,-0.3925926295,3.1737309612,5.75381
 13579\C,1.0297140682,3.3872789697,6.1526955326\O,-5.1695845231,1.88698
 8189,5.6649768946\C,-3.0419910552,2.7175604962,5.1021962414\C,-4.46044
 30108,2.4906223142,4.7018041879\O,1.6990320023,4.156961122,5.284457195
 3\C,-0.9213275495,3.720804381,4.5883545137\H,-0.2940124743,4.321038852
 8,3.9450431987\C,-2.2460461549,3.4881963142,4.2618848675\H,-2.68167359
 18,3.895006035,3.3592416395\O,-4.9240882146,2.8082837235,3.6405102629\
 C,-5.4121128208,-0.315100726,12.1368126878\H,-5.6569890689,-0.87973394
 49,13.0249726168\C,-6.2613845821,-0.3189854406,11.0438990934\H,-7.1865
 826343,-0.8792887887,11.0537580124\O,-7.9772029011,-0.1123040078,8.799
 4919001\C,-7.2552128396,1.0185219085,6.5468669542\H,-7.6326384924,0.01
 73134882,6.3419191647\H,-8.1103713091,1.6420271464,6.8086383318\C,-5.9
 294337952,0.4074159252,9.9056922326\C,-6.881065883,0.3765045077,8.7579
 261797\C,-6.5178387394,1.5854476218,5.3245288996\H,-7.0029129738,2.492
 5885366,4.9658163744\H,-6.5185143102,0.8687841557,4.5029828153\O,-3.69
 64049665,-0.2706959844,14.2796618936\C,-4.2339691146,0.4244847174,12.0
 913141961\C,-3.2839857152,0.4686056193,13.2416427783\O,-6.3750595535,0
 .9601480598,7.6633330745\C,-4.7520933237,1.1484185487,9.8602082431\H,-
 4.5150439567,1.7198413872,8.9737638944\C,-3.906266212,1.157540364,10.9
 554293142\H,-2.9870884969,1.7279689122,10.9512756108\O,-2.2609162298,1
 .0965019949,13.2465940973\C,-3.4994514464,-1.1277436175,16.4770313819\
 H,-4.4891485514,-0.7200710553,16.7069131141\H,-3.6340047963,-2.1437968
 59,16.1067733629\C,-2.8290806115,-0.2805789155,15.4142211423\H,-2.6724
 754967,0.7443814473,15.7593237845\H,-1.8593071556,-0.6953357643,15.137
 1487101\O,-2.6882922686,-1.2209585968,17.6265254562\H,-2.653277093,-0.
 3631575751,18.0591829165\\Version=ES64L-G16RevC.01\HF=-1603.8781246,-1
 603.877835,-1603.8770057,-1603.8759046,-1603.8748479,-1603.8741789,-16
 03.8741547,-1603.8748597,-1603.8761461,-1603.8776736,-1603.8789885,-16
 03.8797108,-1603.8795226,-1603.8783599,-1603.8762877,-1603.8736678,-16
 03.8710739,-1603.869085,-1603.8681333\RMSD=7.816e-09,5.314e-09,5.917e-
 09,5.006e-09,7.362e-09,8.383e-09,7.603e-09,8.477e-09,5.949e-09,6.657e-
 09,9.557e-09,8.353e-09,8.324e-09,3.466e-09,9.480e-09,4.712e-09,7.366e-
 09,6.151e-09,3.841e-09\PG=C01 [X(C22H22O10)]\\@
 The archive entry for this job was punched.

 Job cpu time:      13 days  2 hours  6 minutes 27.6 seconds.
 Elapsed time:       0 days  8 hours 44 minutes 41.3 seconds.
 File lengths (MBytes):  RWF=    767 Int=      0 D2E=      0 Chk=    111 Scr=      1
 Normal termination of Gaussian 16 at Sat Nov 21 20:40:40 2020.
