 Entering Gaussian System, Link 0=g16
 Initial command:
 /nopt/nrel/apps/gaussian/g16B/g16/l1.exe "/dev/shm/Gau-6989.inp" -scrdir="/dev/shm/"
fname=/tmp/scratch/925275/Gau-6991.rwf fd = -1

open-new-file: No such file or directory
 Default linda workers: r6i0n0
 Default is to use  36 SMP processors on each worker.
 Entering Link 1 = /nopt/nrel/apps/gaussian/g16B/g16/l1.exe PID=      6991.
...
 
 ******************************************
 Gaussian 16:  ES64L-G16RevB.01 20-Dec-2017
                 1-Jul-2019 
 ******************************************
 %RWF=/dev/shm/,5GB,/tmp/scratch/925275/,-1
 %NoSave
 %OldChk=pet_mono_838.chk
 %Chk=/dev/shm/pet_mono_838_tzvp.chk
fname=/tmp/scratch/925275/Gau-6991.rwf fd = -1

open-new-file
