 Entering Gaussian System, Link 0=g16
 Initial command:
 /nopt/nrel/apps/gaussian/g16C_1/g16/l1.exe "/dev/shm/Gau-112079.inp" -scrdir="/dev/shm/"
 Default is to use a total of  36 processors:
                               36 via shared-memory
                                1 via Linda
 Entering Link 1 = /nopt/nrel/apps/gaussian/g16C_1/g16/l1.exe PID=    112080.
  
 Copyright (c) 1988-2019, Gaussian, Inc.  All Rights Reserved.
...
 ******************************************
 Gaussian 16:  ES64L-G16RevC.01  3-Jul-2019
                27-Oct-2020 
 ******************************************
 %RWF=/dev/shm/,5GB,/scratch/hmayes/pet_dimer_scan_pos_4886610/,-1
 %NoSave
 %OldChk=pet_dimer.chk
 %Chk=/dev/shm/pet_dimer_scan_pos.chk
 %CPU=0-35
 SetSPE:  set environment variable "MP_BIND" = "yes"
 SetSPE:  set environment variable "MP_BLIST" = "0,1,2,3,4,5,6,7,8,9,10,11,12,13,14,15,16,17,18,19,20,21,22,23,24,25,26,27,28,29,30,31,32,33,34,35"
 Will use up to   36 processors via shared memory.
 %Mem=72948006KB
 Copying data from "pet_dimer.chk" to current chk file "/dev/shm/pet_dimer_scan_pos.chk"
 IOpt=  2 FromEx=T IUOpen= 4 IOptOp= 5 NList=   0 IFRang= 0 IUIn= 4 IUOut= 2.
 Default route: CacheSize=180224 MaxDisk=256GB
 ----------------------------------------------------------------------
 # m062x/Def2SVP nosymm scf=xqc opt=(modredundant,ReadFC) CPHF=Grid=Fin
 e guess=read geom=allcheck
 ----------------------------------------------------------------------
 1/4=180224,10=3,18=120,19=15,26=3,29=7,38=1/1,3;
 2/4=180224,9=110,12=2,15=1,40=1/2;
 3/4=180224,5=43,7=101,11=2,14=-4,25=1,30=1,71=1,74=-55,116=-2/1,2,3;
 4/4=180224,5=1/1;
 5/4=180224,5=2,8=3,13=1,38=6/2,8;
 6/4=180224,7=2,8=2,9=2,10=2,28=1/1;
 7/4=180224,30=1/1,2,3,16;
 1/4=180224,18=20,19=15,26=3/3(2);
 2/4=180224,9=110,15=1/2;
 99/4=180224/99;
 2/4=180224,9=110,15=1/2;
 3/4=180224,5=43,7=101,11=2,14=-2,25=1,30=1,71=1,74=-55/1,2,3;
 4/4=180224,5=5,16=3,69=1/1;
 5/4=180224,5=2,8=3,13=1,38=5/2,8;
 7/4=180224,30=1/1,2,3,16;
 1/4=180224,18=20,19=15,26=3/3(-5);
 2/4=180224,9=110,15=1/2;
 6/4=180224,7=2,8=2,9=2,10=2,19=2,28=1/1;
 99/4=180224,9=1/99;
 Structure from the checkpoint file:  "/dev/shm/pet_dimer_scan_pos.chk"
 ---------------------------
 dimer from optimized trimer
 ---------------------------
 Charge =  0 Multiplicity = 1
 Redundant internal coordinates found in file.  (old form).
 O,0,3.3111536644,6.3811090688,-1.4362876083
 H,0,4.2280868437,6.1374735089,-1.2810172417
 C,0,-0.3820438297,2.4614181987,4.9816025274
 H,0,-0.606457396,1.5344001797,5.4894669116
 C,0,0.3688421663,2.4621690161,3.8191948782
 H,0,0.7463946621,1.5419460497,3.394287323
 O,0,1.8875347731,2.5860419033,1.4451775345
 C,0,2.4429792198,4.8261564372,0.1839783129
 H,0,1.9319451408,4.25085838,-0.5887457842
 H,0,3.4141897108,4.3596106288,0.3664316518
 C,0,2.5924343238,6.2769430315,-0.2277450191
 H,0,1.6093530768,6.7101843254,-0.4107232036
 H,0,3.065176465,6.8454475399,0.579562216
 C,0,0.6504051377,3.6620117649,3.1747019167
 C,0,1.4641163918,3.6018246285,1.9248680062
 O,0,-1.8774632867,2.5159417877,7.2846834871
 C,0,-0.8511278007,3.6656725989,5.4985740824
 C,0,-1.6639998824,3.7268332649,6.7470811787
 O,0,1.6767240149,4.8107216038,1.3891511592
 C,0,0.180843934,4.8660488958,3.6915398318
 H,0,0.4048973524,5.7924049553,3.1823578967
 C,0,-0.5697731535,4.8657109484,4.8540415289
 H,0,-0.9476741719,5.7860344938,5.2784467265
 O,0,-2.0875914332,4.7400035679,7.2310440236
 C,0,-5.5895787063,-1.2974990256,13.688702515
 H,0,-5.8135491577,-2.2238525446,14.1979249555
 C,0,-4.8390524645,-1.2971588271,12.5261417901
 H,0,-4.4611628587,-2.217479118,12.1017192377
 O,0,-3.3214422933,-1.1714523505,10.1490050681
 C,0,-2.7588784189,1.0604285434,8.8975123208
 H,0,-1.7766542347,0.625648206,9.0862423658
 H,0,-3.2551274924,0.4632922899,8.1316483053
 C,0,-4.5577913938,-0.0971247522,11.8815604469
 C,0,-3.7450442965,-0.1582886052,10.6329712779
 C,0,-2.6500081547,2.5081383548,8.4826493594
 H,0,-2.1537640283,3.1052822428,9.2485108164
 H,0,-3.6322341346,2.9429103855,8.2939136619
 O,0,-7.0852398568,-1.2421644572,15.9912459091
 C,0,-6.0591570175,-0.0934688736,14.2055429083
 C,0,-6.872810078,-0.0332884465,15.4554123941
 O,0,-3.5314194856,1.0526235707,10.095479103
 C,0,-5.0268796385,1.1071235253,12.3985413165
 H,0,-4.8025311849,2.0341388899,11.8906441634
 C,0,-5.7776913757,1.1063689631,13.560997704
 H,0,-6.1552689811,2.0265843434,13.9858987588
 O,0,-7.296441003,0.9824661806,15.9349796023
 C,0,-8.0003367287,-2.7083477127,17.6085398043
 H,0,-8.4728739589,-3.2772365318,16.8013757382
 H,0,-7.0170685586,-3.1411525676,17.7915387958
 C,0,-7.8514770374,-1.2575938894,17.1964368479
 H,0,-8.8228922536,-0.7915260148,17.0138518695
 H,0,-7.3406886864,-0.681870232,17.9690013831
 O,0,-8.7189434983,-2.8125169331,18.8171265104
 H,0,-9.6359189458,-2.5690013912,18.661882734
 Recover connectivity data from disk.
 The following ModRedundant input section has been read:
 D      41      30      35      16 S  18 10.000                                
 

 GradGradGradGradGradGradGradGradGradGradGradGradGradGradGradGradGradGrad
 Berny optimization.
 Initialization pass.
 Force constant matrix read from checkpoint file:
 "/dev/shm/pet_dimer_scan_pos.chk"
                           ----------------------------
                           !    Initial Parameters    !
                           ! (Angstroms and Degrees)  !
 --------------------------                            --------------------------
 ! Name  Definition              Value          Derivative Info.                !
 --------------------------------------------------------------------------------
 ! R1    R(1,2)                  0.9614         D2E/DX2 =    0.5394             !
 ! R2    R(1,11)                 1.41           D2E/DX2 =    0.3813             !
 ! R3    R(3,4)                  1.0806         D2E/DX2 =    0.3706             !
 ! R4    R(3,5)                  1.3838         D2E/DX2 =    0.415              !
 ! R5    R(3,17)                 1.392          D2E/DX2 =    0.3995             !
 ! R6    R(5,6)                  1.0816         D2E/DX2 =    0.3682             !
 ! R7    R(5,14)                 1.3908         D2E/DX2 =    0.4019             !
 ! R8    R(7,15)                 1.2005         D2E/DX2 =    0.8831             !
 ! R9    R(8,9)                  1.0905         D2E/DX2 =    0.3437             !
 ! R10   R(8,10)                 1.0928         D2E/DX2 =    0.338              !
 ! R11   R(8,11)                 1.5155         D2E/DX2 =    0.2991             !
 ! R12   R(8,19)                 1.4282         D2E/DX2 =    0.3428             !
 ! R13   R(11,12)                1.0898         D2E/DX2 =    0.3449             !
 ! R14   R(11,13)                1.0947         D2E/DX2 =    0.3318             !
 ! R15   R(14,15)                1.4926         D2E/DX2 =    0.321              !
 ! R16   R(14,20)                1.3919         D2E/DX2 =    0.3994             !
 ! R17   R(15,19)                1.3393         D2E/DX2 =    0.4304             !
 ! R18   R(16,18)                1.342          D2E/DX2 =    0.4244             !
 ! R19   R(16,35)                1.4255         D2E/DX2 =    0.351              !
 ! R20   R(17,18)                1.4911         D2E/DX2 =    0.3225             !
 ! R21   R(17,22)                1.3909         D2E/DX2 =    0.4018             !
 ! R22   R(18,24)                1.2001         D2E/DX2 =    0.885              !
 ! R23   R(20,21)                1.0806         D2E/DX2 =    0.3706             !
 ! R24   R(20,22)                1.3838         D2E/DX2 =    0.4151             !
 ! R25   R(22,23)                1.0816         D2E/DX2 =    0.3682             !
 ! R26   R(25,26)                1.0806         D2E/DX2 =    0.3706             !
 ! R27   R(25,27)                1.3838         D2E/DX2 =    0.4151             !
 ! R28   R(25,39)                1.3919         D2E/DX2 =    0.3994             !
 ! R29   R(27,28)                1.0816         D2E/DX2 =    0.3682             !
 ! R30   R(27,33)                1.3909         D2E/DX2 =    0.4018             !
 ! R31   R(29,34)                1.2001         D2E/DX2 =    0.885              !
 ! R32   R(30,31)                1.0906         D2E/DX2 =    0.3436             !
 ! R33   R(30,32)                1.0906         D2E/DX2 =    0.3433             !
 ! R34   R(30,35)                1.5099         D2E/DX2 =    0.3149             !
 ! R35   R(30,41)                1.4255         D2E/DX2 =    0.351              !
 ! R36   R(33,34)                1.4911         D2E/DX2 =    0.3225             !
 ! R37   R(33,42)                1.392          D2E/DX2 =    0.3995             !
 ! R38   R(34,41)                1.342          D2E/DX2 =    0.4244             !
 ! R39   R(35,36)                1.0906         D2E/DX2 =    0.3433             !
 ! R40   R(35,37)                1.0906         D2E/DX2 =    0.3436             !
 ! R41   R(38,40)                1.3393         D2E/DX2 =    0.4304             !
 ! R42   R(38,50)                1.4282         D2E/DX2 =    0.3427             !
 ! R43   R(39,40)                1.4926         D2E/DX2 =    0.321              !
 ! R44   R(39,44)                1.3908         D2E/DX2 =    0.4019             !
 ! R45   R(40,46)                1.2005         D2E/DX2 =    0.883              !
 ! R46   R(42,43)                1.0806         D2E/DX2 =    0.3706             !
 ! R47   R(42,44)                1.3838         D2E/DX2 =    0.415              !
 ! R48   R(44,45)                1.0816         D2E/DX2 =    0.3682             !
 ! R49   R(47,48)                1.0947         D2E/DX2 =    0.3317             !
 ! R50   R(47,49)                1.0898         D2E/DX2 =    0.3449             !
 ! R51   R(47,50)                1.5155         D2E/DX2 =    0.2991             !
 ! R52   R(47,53)                1.4099         D2E/DX2 =    0.3813             !
 ! R53   R(50,51)                1.0928         D2E/DX2 =    0.338              !
 ! R54   R(50,52)                1.0905         D2E/DX2 =    0.3437             !
 ! R55   R(53,54)                0.9614         D2E/DX2 =    0.5394             !
 ! A1    A(2,1,11)             109.2095         D2E/DX2 =    0.1779             !
 ! A2    A(4,3,5)              120.5268         D2E/DX2 =    0.0816             !
 ! A3    A(4,3,17)             119.8457         D2E/DX2 =    0.0816             !
 ! A4    A(5,3,17)             119.6275         D2E/DX2 =    0.0829             !
 ! A5    A(3,5,6)              121.2602         D2E/DX2 =    0.0801             !
 ! A6    A(3,5,14)             119.9716         D2E/DX2 =    0.0832             !
 ! A7    A(6,5,14)             118.7682         D2E/DX2 =    0.0814             !
 ! A8    A(9,8,10)             108.0326         D2E/DX2 =    0.0291             !
 ! A9    A(9,8,11)             111.0226         D2E/DX2 =    0.0663             !
 ! A10   A(9,8,19)             109.9259         D2E/DX2 =    0.0598             !
 ! A11   A(10,8,11)            111.495          D2E/DX2 =    0.0674             !
 ! A12   A(10,8,19)            109.3487         D2E/DX2 =    0.0606             !
 ! A13   A(11,8,19)            107.0082         D2E/DX2 =    0.1539             !
 ! A14   A(1,11,8)             110.7241         D2E/DX2 =    0.1527             !
 ! A15   A(1,11,12)            106.6513         D2E/DX2 =    0.0596             !
 ! A16   A(1,11,13)            111.9385         D2E/DX2 =    0.0643             !
 ! A17   A(8,11,12)            109.7084         D2E/DX2 =    0.0717             !
 ! A18   A(8,11,13)            109.8394         D2E/DX2 =    0.0721             !
 ! A19   A(12,11,13)           107.8739         D2E/DX2 =    0.0283             !
 ! A20   A(5,14,15)            117.6206         D2E/DX2 =    0.1418             !
 ! A21   A(5,14,20)            120.3921         D2E/DX2 =    0.0881             !
 ! A22   A(15,14,20)           121.9873         D2E/DX2 =    0.1432             !
 ! A23   A(7,15,14)            124.1242         D2E/DX2 =    0.1818             !
 ! A24   A(7,15,19)            123.2261         D2E/DX2 =    0.2278             !
 ! A25   A(14,15,19)           112.6497         D2E/DX2 =    0.2036             !
 ! A26   A(18,16,35)           115.3292         D2E/DX2 =    0.3149             !
 ! A27   A(3,17,18)            122.0182         D2E/DX2 =    0.1439             !
 ! A28   A(3,17,22)            120.4081         D2E/DX2 =    0.0882             !
 ! A29   A(18,17,22)           117.5737         D2E/DX2 =    0.1424             !
 ! A30   A(16,18,17)           112.653          D2E/DX2 =    0.2046             !
 ! A31   A(16,18,24)           122.9632         D2E/DX2 =    0.2285             !
 ! A32   A(17,18,24)           124.3838         D2E/DX2 =    0.1816             !
 ! A33   A(8,19,15)            115.624          D2E/DX2 =    0.3109             !
 ! A34   A(14,20,21)           119.7801         D2E/DX2 =    0.0815             !
 ! A35   A(14,20,22)           119.6522         D2E/DX2 =    0.0829             !
 ! A36   A(21,20,22)           120.5676         D2E/DX2 =    0.0814             !
 ! A37   A(17,22,20)           119.9485         D2E/DX2 =    0.0832             !
 ! A38   A(17,22,23)           118.7902         D2E/DX2 =    0.0815             !
 ! A39   A(20,22,23)           121.2614         D2E/DX2 =    0.0801             !
 ! A40   A(26,25,27)           120.5675         D2E/DX2 =    0.0814             !
 ! A41   A(26,25,39)           119.7803         D2E/DX2 =    0.0815             !
 ! A42   A(27,25,39)           119.6522         D2E/DX2 =    0.0829             !
 ! A43   A(25,27,28)           121.2614         D2E/DX2 =    0.0801             !
 ! A44   A(25,27,33)           119.9485         D2E/DX2 =    0.0832             !
 ! A45   A(28,27,33)           118.7901         D2E/DX2 =    0.0815             !
 ! A46   A(31,30,32)           108.2434         D2E/DX2 =    0.0296             !
 ! A47   A(31,30,35)           111.3981         D2E/DX2 =    0.0676             !
 ! A48   A(31,30,41)           109.9061         D2E/DX2 =    0.06               !
 ! A49   A(32,30,35)           111.3977         D2E/DX2 =    0.0676             !
 ! A50   A(32,30,41)           109.9112         D2E/DX2 =    0.0598             !
 ! A51   A(35,30,41)           105.9759         D2E/DX2 =    0.1591             !
 ! A52   A(27,33,34)           117.5737         D2E/DX2 =    0.1424             !
 ! A53   A(27,33,42)           120.408          D2E/DX2 =    0.0882             !
 ! A54   A(34,33,42)           122.0183         D2E/DX2 =    0.1439             !
 ! A55   A(29,34,33)           124.3839         D2E/DX2 =    0.1816             !
 ! A56   A(29,34,41)           122.9629         D2E/DX2 =    0.2285             !
 ! A57   A(33,34,41)           112.6532         D2E/DX2 =    0.2046             !
 ! A58   A(16,35,30)           105.9758         D2E/DX2 =    0.1591             !
 ! A59   A(16,35,36)           109.9112         D2E/DX2 =    0.0598             !
 ! A60   A(16,35,37)           109.9061         D2E/DX2 =    0.06               !
 ! A61   A(30,35,36)           111.3982         D2E/DX2 =    0.0676             !
 ! A62   A(30,35,37)           111.3978         D2E/DX2 =    0.0676             !
 ! A63   A(36,35,37)           108.2435         D2E/DX2 =    0.0296             !
 ! A64   A(40,38,50)           115.624          D2E/DX2 =    0.3109             !
 ! A65   A(25,39,40)           121.9873         D2E/DX2 =    0.1432             !
 ! A66   A(25,39,44)           120.392          D2E/DX2 =    0.0881             !
 ! A67   A(40,39,44)           117.6207         D2E/DX2 =    0.1418             !
 ! A68   A(38,40,39)           112.6503         D2E/DX2 =    0.2036             !
 ! A69   A(38,40,46)           123.2254         D2E/DX2 =    0.2278             !
 ! A70   A(39,40,46)           124.1243         D2E/DX2 =    0.1817             !
 ! A71   A(30,41,34)           115.329          D2E/DX2 =    0.315              !
 ! A72   A(33,42,43)           119.8457         D2E/DX2 =    0.0816             !
 ! A73   A(33,42,44)           119.6275         D2E/DX2 =    0.0829             !
 ! A74   A(43,42,44)           120.5268         D2E/DX2 =    0.0816             !
 ! A75   A(39,44,42)           119.9717         D2E/DX2 =    0.0832             !
 ! A76   A(39,44,45)           118.7681         D2E/DX2 =    0.0814             !
 ! A77   A(42,44,45)           121.2602         D2E/DX2 =    0.0801             !
 ! A78   A(48,47,49)           107.8718         D2E/DX2 =    0.0283             !
 ! A79   A(48,47,50)           109.8383         D2E/DX2 =    0.0721             !
 ! A80   A(48,47,53)           111.9396         D2E/DX2 =    0.0643             !
 ! A81   A(49,47,50)           109.7078         D2E/DX2 =    0.0717             !
 ! A82   A(49,47,53)           106.6529         D2E/DX2 =    0.0596             !
 ! A83   A(50,47,53)           110.7251         D2E/DX2 =    0.1527             !
 ! A84   A(38,50,47)           107.0079         D2E/DX2 =    0.1539             !
 ! A85   A(38,50,51)           109.3482         D2E/DX2 =    0.0606             !
 ! A86   A(38,50,52)           109.9265         D2E/DX2 =    0.0598             !
 ! A87   A(47,50,51)           111.4934         D2E/DX2 =    0.0674             !
 ! A88   A(47,50,52)           111.0236         D2E/DX2 =    0.0663             !
 ! A89   A(51,50,52)           108.0335         D2E/DX2 =    0.0291             !
 ! A90   A(47,53,54)           109.208          D2E/DX2 =    0.1779             !
 ! D1    D(2,1,11,8)           -69.5314         D2E/DX2 =    0.017              !
 ! D2    D(2,1,11,12)          171.1606         D2E/DX2 =    0.0236             !
 ! D3    D(2,1,11,13)           53.3964         D2E/DX2 =    0.0228             !
 ! D4    D(4,3,5,6)             -0.0058         D2E/DX2 =    0.0096             !
 ! D5    D(4,3,5,14)           179.976          D2E/DX2 =    0.0086             !
 ! D6    D(17,3,5,6)          -179.9901         D2E/DX2 =    0.0087             !
 ! D7    D(17,3,5,14)           -0.0083         D2E/DX2 =    0.0088             !
 ! D8    D(4,3,17,18)            0.0377         D2E/DX2 =    0.0077             !
 ! D9    D(4,3,17,22)         -179.9676         D2E/DX2 =    0.0075             !
 ! D10   D(5,3,17,18)         -179.9779         D2E/DX2 =    0.0071             !
 ! D11   D(5,3,17,22)            0.0168         D2E/DX2 =    0.0077             !
 ! D12   D(3,5,14,15)         -179.9818         D2E/DX2 =    0.0069             !
 ! D13   D(3,5,14,20)           -0.0151         D2E/DX2 =    0.0077             !
 ! D14   D(6,5,14,15)            0.0005         D2E/DX2 =    0.008              !
 ! D15   D(6,5,14,20)          179.9672         D2E/DX2 =    0.0074             !
 ! D16   D(9,8,11,1)           -58.4773         D2E/DX2 =    0.0182             !
 ! D17   D(9,8,11,12)           58.9721         D2E/DX2 =    0.0181             !
 ! D18   D(9,8,11,13)          177.3859         D2E/DX2 =    0.0159             !
 ! D19   D(10,8,11,1)           62.0381         D2E/DX2 =    0.0182             !
 ! D20   D(10,8,11,12)         179.4875         D2E/DX2 =    0.0161             !
 ! D21   D(10,8,11,13)         -62.0987         D2E/DX2 =    0.018              !
 ! D22   D(19,8,11,1)         -178.4351         D2E/DX2 =    0.0194             !
 ! D23   D(19,8,11,12)         -60.9857         D2E/DX2 =    0.018              !
 ! D24   D(19,8,11,13)          57.4281         D2E/DX2 =    0.0181             !
 ! D25   D(9,8,19,15)           60.7236         D2E/DX2 =    0.0233             !
 ! D26   D(10,8,19,15)         -57.7188         D2E/DX2 =    0.0231             !
 ! D27   D(11,8,19,15)        -178.618          D2E/DX2 =    0.0177             !
 ! D28   D(5,14,15,7)            0.0102         D2E/DX2 =    0.0149             !
 ! D29   D(5,14,15,19)        -179.9111         D2E/DX2 =    0.0137             !
 ! D30   D(20,14,15,7)        -179.9559         D2E/DX2 =    0.0135             !
 ! D31   D(20,14,15,19)          0.1227         D2E/DX2 =    0.0141             !
 ! D32   D(5,14,20,21)        -179.9579         D2E/DX2 =    0.0075             !
 ! D33   D(5,14,20,22)           0.03           D2E/DX2 =    0.0077             !
 ! D34   D(15,14,20,21)          0.0073         D2E/DX2 =    0.0077             !
 ! D35   D(15,14,20,22)        179.9952         D2E/DX2 =    0.0071             !
 ! D36   D(7,15,19,8)            0.4603         D2E/DX2 =    0.0221             !
 ! D37   D(14,15,19,8)        -179.6175         D2E/DX2 =    0.0207             !
 ! D38   D(35,16,18,17)        179.9969         D2E/DX2 =    0.0208             !
 ! D39   D(35,16,18,24)          0.0309         D2E/DX2 =    0.0223             !
 ! D40   D(18,16,35,30)        179.9743         D2E/DX2 =    0.0183             !
 ! D41   D(18,16,35,36)        -59.5395         D2E/DX2 =    0.024              !
 ! D42   D(18,16,35,37)         59.4913         D2E/DX2 =    0.0239             !
 ! D43   D(3,17,18,16)          -0.0964         D2E/DX2 =    0.014              !
 ! D44   D(3,17,18,24)         179.869          D2E/DX2 =    0.0136             !
 ! D45   D(22,17,18,16)        179.9087         D2E/DX2 =    0.0137             !
 ! D46   D(22,17,18,24)         -0.1259         D2E/DX2 =    0.0149             !
 ! D47   D(3,17,22,20)          -0.0018         D2E/DX2 =    0.0077             !
 ! D48   D(3,17,22,23)         179.9756         D2E/DX2 =    0.0074             !
 ! D49   D(18,17,22,20)        179.9931         D2E/DX2 =    0.0069             !
 ! D50   D(18,17,22,23)         -0.0294         D2E/DX2 =    0.008              !
 ! D51   D(14,20,22,17)         -0.0215         D2E/DX2 =    0.0088             !
 ! D52   D(14,20,22,23)       -179.9984         D2E/DX2 =    0.0087             !
 ! D53   D(21,20,22,17)        179.9664         D2E/DX2 =    0.0086             !
 ! D54   D(21,20,22,23)         -0.0105         D2E/DX2 =    0.0096             !
 ! D55   D(26,25,27,28)          0.012          D2E/DX2 =    0.0096             !
 ! D56   D(26,25,27,33)       -179.9658         D2E/DX2 =    0.0086             !
 ! D57   D(39,25,27,28)       -180.0            D2E/DX2 =    0.0087             !
 ! D58   D(39,25,27,33)          0.0222         D2E/DX2 =    0.0088             !
 ! D59   D(26,25,39,40)         -0.0092         D2E/DX2 =    0.0077             !
 ! D60   D(26,25,39,44)        179.9576         D2E/DX2 =    0.0075             !
 ! D61   D(27,25,39,40)       -179.9973         D2E/DX2 =    0.0071             !
 ! D62   D(27,25,39,44)         -0.0305         D2E/DX2 =    0.0077             !
 ! D63   D(25,27,33,34)       -179.9915         D2E/DX2 =    0.0069             !
 ! D64   D(25,27,33,42)          0.0018         D2E/DX2 =    0.0077             !
 ! D65   D(28,27,33,34)          0.0301         D2E/DX2 =    0.008              !
 ! D66   D(28,27,33,42)       -179.9766         D2E/DX2 =    0.0074             !
 ! D67   D(31,30,35,16)         60.4906         D2E/DX2 =    0.0183             !
 ! D68   D(31,30,35,36)        -59.0247         D2E/DX2 =    0.0184             !
 ! D69   D(31,30,35,37)        179.9996         D2E/DX2 =    0.0164             !
 ! D70   D(32,30,35,16)        -60.485          D2E/DX2 =    0.0182             !
 ! D71   D(32,30,35,36)        179.9997         D2E/DX2 =    0.0164             !
 ! D72   D(32,30,35,37)         59.024          D2E/DX2 =    0.0184             !
 ! D73   D(41,30,35,16)        179.9999         Scan                            !
 ! D74   D(41,30,35,36)         60.4845         D2E/DX2 =    0.0182             !
 ! D75   D(41,30,35,37)        -60.4912         D2E/DX2 =    0.0183             !
 ! D76   D(31,30,41,34)        -59.5002         D2E/DX2 =    0.0239             !
 ! D77   D(32,30,41,34)         59.5306         D2E/DX2 =    0.024              !
 ! D78   D(35,30,41,34)       -179.9836         D2E/DX2 =    0.0183             !
 ! D79   D(27,33,34,29)          0.1234         D2E/DX2 =    0.0149             !
 ! D80   D(27,33,34,41)       -179.8954         D2E/DX2 =    0.0137             !
 ! D81   D(42,33,34,29)       -179.8698         D2E/DX2 =    0.0136             !
 ! D82   D(42,33,34,41)          0.1115         D2E/DX2 =    0.014              !
 ! D83   D(27,33,42,43)        179.9671         D2E/DX2 =    0.0075             !
 ! D84   D(27,33,42,44)         -0.0177         D2E/DX2 =    0.0077             !
 ! D85   D(34,33,42,43)         -0.04           D2E/DX2 =    0.0077             !
 ! D86   D(34,33,42,44)        179.9753         D2E/DX2 =    0.0071             !
 ! D87   D(29,34,41,30)         -0.0209         D2E/DX2 =    0.0223             !
 ! D88   D(33,34,41,30)        179.9975         D2E/DX2 =    0.0208             !
 ! D89   D(50,38,40,39)        179.6198         D2E/DX2 =    0.0207             !
 ! D90   D(50,38,40,46)         -0.4651         D2E/DX2 =    0.0221             !
 ! D91   D(40,38,50,47)        178.636          D2E/DX2 =    0.0177             !
 ! D92   D(40,38,50,51)         57.7392         D2E/DX2 =    0.0231             !
 ! D93   D(40,38,50,52)        -60.7043         D2E/DX2 =    0.0233             !
 ! D94   D(25,39,40,38)         -0.1162         D2E/DX2 =    0.0141             !
 ! D95   D(25,39,40,46)        179.9696         D2E/DX2 =    0.0135             !
 ! D96   D(44,39,40,38)        179.9162         D2E/DX2 =    0.0137             !
 ! D97   D(44,39,40,46)          0.002          D2E/DX2 =    0.0149             !
 ! D98   D(25,39,44,42)          0.0147         D2E/DX2 =    0.0077             !
 ! D99   D(25,39,44,45)       -179.9682         D2E/DX2 =    0.0074             !
 ! D100  D(40,39,44,42)        179.9828         D2E/DX2 =    0.0069             !
 ! D101  D(40,39,44,45)         -0.0001         D2E/DX2 =    0.008              !
 ! D102  D(33,42,44,39)          0.0094         D2E/DX2 =    0.0088             !
 ! D103  D(33,42,44,45)        179.9919         D2E/DX2 =    0.0087             !
 ! D104  D(43,42,44,39)       -179.9752         D2E/DX2 =    0.0086             !
 ! D105  D(43,42,44,45)          0.0073         D2E/DX2 =    0.0096             !
 ! D106  D(48,47,50,38)        -57.4289         D2E/DX2 =    0.0181             !
 ! D107  D(48,47,50,51)         62.0961         D2E/DX2 =    0.018              !
 ! D108  D(48,47,50,52)       -177.3879         D2E/DX2 =    0.0159             !
 ! D109  D(49,47,50,38)         60.9813         D2E/DX2 =    0.018              !
 ! D110  D(49,47,50,51)       -179.4937         D2E/DX2 =    0.0161             !
 ! D111  D(49,47,50,52)        -58.9777         D2E/DX2 =    0.0181             !
 ! D112  D(53,47,50,38)        178.4329         D2E/DX2 =    0.0194             !
 ! D113  D(53,47,50,51)        -62.0421         D2E/DX2 =    0.0182             !
 ! D114  D(53,47,50,52)         58.474          D2E/DX2 =    0.0182             !
 ! D115  D(48,47,53,54)        -53.4155         D2E/DX2 =    0.0228             !
 ! D116  D(49,47,53,54)       -171.1786         D2E/DX2 =    0.0236             !
 ! D117  D(50,47,53,54)         69.5125         D2E/DX2 =    0.017              !
 --------------------------------------------------------------------------------
 Trust Radius=3.00D-01 FncErr=1.00D-07 GrdErr=1.00D-06 EigMax=2.50D+02 EigMin=1.00D-04
 Number of optimizations in scan=  19
 Number of steps in this run=    272 maximum allowed number of steps=    324.
 GradGradGradGradGradGradGradGradGradGradGradGradGradGradGradGradGradGrad

 Symmetry turned off by external request.
 Stoichiometry    C22H22O10
 Framework group  C1[X(C22H22O10)]
 Deg. of freedom   156
 Full point group                 C1      NOp   1
                          Input orientation:                          
 ---------------------------------------------------------------------
 Center     Atomic      Atomic             Coordinates (Angstroms)
 Number     Number       Type             X           Y           Z
 ---------------------------------------------------------------------
      1          8           0        3.311154    6.381109   -1.436288
      2          1           0        4.228087    6.137474   -1.281017
      3          6           0       -0.382044    2.461418    4.981603
      4          1           0       -0.606457    1.534400    5.489467
      5          6           0        0.368842    2.462169    3.819195
      6          1           0        0.746395    1.541946    3.394287
      7          8           0        1.887535    2.586042    1.445178
      8          6           0        2.442979    4.826156    0.183978
      9          1           0        1.931945    4.250858   -0.588746
     10          1           0        3.414190    4.359611    0.366432
     11          6           0        2.592434    6.276943   -0.227745
     12          1           0        1.609353    6.710184   -0.410723
     13          1           0        3.065176    6.845448    0.579562
     14          6           0        0.650405    3.662012    3.174702
     15          6           0        1.464116    3.601825    1.924868
     16          8           0       -1.877463    2.515942    7.284683
     17          6           0       -0.851128    3.665673    5.498574
     18          6           0       -1.664000    3.726833    6.747081
     19          8           0        1.676724    4.810722    1.389151
     20          6           0        0.180844    4.866049    3.691540
     21          1           0        0.404897    5.792405    3.182358
     22          6           0       -0.569773    4.865711    4.854042
     23          1           0       -0.947674    5.786034    5.278447
     24          8           0       -2.087591    4.740004    7.231044
     25          6           0       -5.589579   -1.297499   13.688703
     26          1           0       -5.813549   -2.223853   14.197925
     27          6           0       -4.839052   -1.297159   12.526142
     28          1           0       -4.461163   -2.217479   12.101719
     29          8           0       -3.321442   -1.171452   10.149005
     30          6           0       -2.758878    1.060429    8.897512
     31          1           0       -1.776654    0.625648    9.086242
     32          1           0       -3.255127    0.463292    8.131648
     33          6           0       -4.557791   -0.097125   11.881560
     34          6           0       -3.745044   -0.158289   10.632971
     35          6           0       -2.650008    2.508138    8.482649
     36          1           0       -2.153764    3.105282    9.248511
     37          1           0       -3.632234    2.942910    8.293914
     38          8           0       -7.085240   -1.242164   15.991246
     39          6           0       -6.059157   -0.093469   14.205543
     40          6           0       -6.872810   -0.033288   15.455412
     41          8           0       -3.531419    1.052624   10.095479
     42          6           0       -5.026880    1.107124   12.398541
     43          1           0       -4.802531    2.034139   11.890644
     44          6           0       -5.777691    1.106369   13.560998
     45          1           0       -6.155269    2.026584   13.985899
     46          8           0       -7.296441    0.982466   15.934980
     47          6           0       -8.000337   -2.708348   17.608540
     48          1           0       -8.472874   -3.277237   16.801376
     49          1           0       -7.017069   -3.141153   17.791539
     50          6           0       -7.851477   -1.257594   17.196437
     51          1           0       -8.822892   -0.791526   17.013852
     52          1           0       -7.340689   -0.681870   17.969001
     53          8           0       -8.718943   -2.812517   18.817127
     54          1           0       -9.635919   -2.569001   18.661883
 ---------------------------------------------------------------------
 Rotational constants (GHZ):           0.8471390           0.0214711           0.0209591
 Standard basis: def2SVP (5D, 7F)
   558 basis functions,   954 primitive gaussians,   590 cartesian basis functions
   117 alpha electrons      117 beta electrons
       nuclear repulsion energy      2738.2505384728 Hartrees.
 NAtoms=   54 NActive=   54 NUniq=   54 SFac= 1.00D+00 NAtFMM=   60 NAOKFM=F Big=F
 Integral buffers will be    131072 words long.
 Raffenetti 2 integral format.
 Two-electron integral symmetry is turned off.
 One-electron integrals computed using PRISM.
   1 Symmetry operations used in ECPInt.
 ECPInt:  NShTT=   33411 NPrTT=  122747 LenC2=   19308 LenP2D=   46830.
 LDataN:  DoStor=T MaxTD1= 4 Len=   56
 NBasis=   558 RedAO= T EigKep=  2.66D-04  NBF=   558
 NBsUse=   558 1.00D-06 EigRej= -1.00D+00 NBFU=   558
 Initial guess from the checkpoint file:  "/dev/shm/pet_dimer_scan_pos.chk"
 B after Tr=     0.000000    0.000000    0.000000
         Rot=    1.000000    0.000000    0.000000    0.000000 Ang=   0.00 deg.
 Requested convergence on RMS density matrix=1.00D-08 within  32 cycles.
 Requested convergence on MAX density matrix=1.00D-06.
 Requested convergence on             energy=1.00D-06.
 No special actions if energy rises.
 SCF Done:  E(RM062X) =  -1602.04198256     A.U. after   11 cycles
            NFock= 11  Conv=0.71D-08     -V/T= 2.0085
 QCSCF skips out because SCF is already converged.

 **********************************************************************

            Population analysis using the SCF Density.

 **********************************************************************

 Alpha  occ. eigenvalues --  -19.69410 -19.69407 -19.68944 -19.68944 -19.63650
 Alpha  occ. eigenvalues --  -19.63649 -19.63625 -19.63625 -19.63289 -19.63289
 Alpha  occ. eigenvalues --  -10.70023 -10.70022 -10.69701 -10.69701 -10.62682
 Alpha  occ. eigenvalues --  -10.62657 -10.61640 -10.61640 -10.60832 -10.60832
 Alpha  occ. eigenvalues --  -10.58669 -10.58669 -10.58596 -10.58596 -10.57966
 Alpha  occ. eigenvalues --  -10.57966 -10.57924 -10.57924 -10.57780 -10.57780
 Alpha  occ. eigenvalues --  -10.57730 -10.57730  -1.24408  -1.23984  -1.23744
 Alpha  occ. eigenvalues --   -1.23744  -1.14610  -1.14273  -1.14273  -1.14147
 Alpha  occ. eigenvalues --   -1.13493  -1.13493  -0.98546  -0.98496  -0.91320
 Alpha  occ. eigenvalues --   -0.89863  -0.88360  -0.86286  -0.86145  -0.85769
 Alpha  occ. eigenvalues --   -0.85083  -0.79537  -0.76418  -0.74562  -0.72521
 Alpha  occ. eigenvalues --   -0.72086  -0.70617  -0.70031  -0.68606  -0.67023
 Alpha  occ. eigenvalues --   -0.66314  -0.65072  -0.63937  -0.63746  -0.61763
 Alpha  occ. eigenvalues --   -0.61544  -0.61396  -0.60466  -0.60450  -0.58118
 Alpha  occ. eigenvalues --   -0.57731  -0.57335  -0.57132  -0.56914  -0.56482
 Alpha  occ. eigenvalues --   -0.56399  -0.53939  -0.53748  -0.53118  -0.52972
 Alpha  occ. eigenvalues --   -0.52883  -0.52149  -0.51865  -0.51768  -0.51449
 Alpha  occ. eigenvalues --   -0.51320  -0.51180  -0.49881  -0.48025  -0.48005
 Alpha  occ. eigenvalues --   -0.47519  -0.46656  -0.46112  -0.45443  -0.44851
 Alpha  occ. eigenvalues --   -0.44658  -0.44604  -0.44187  -0.43797  -0.42319
 Alpha  occ. eigenvalues --   -0.42150  -0.40833  -0.40829  -0.39198  -0.38924
 Alpha  occ. eigenvalues --   -0.38539  -0.38539  -0.37327  -0.36857  -0.36855
 Alpha  occ. eigenvalues --   -0.36815  -0.36006  -0.36002  -0.33343  -0.33330
 Alpha  occ. eigenvalues --   -0.33078  -0.33075
 Alpha virt. eigenvalues --   -0.04707  -0.04636   0.00788   0.00793   0.04942
 Alpha virt. eigenvalues --    0.05085   0.07737   0.07737   0.09405   0.10024
 Alpha virt. eigenvalues --    0.10750   0.11692   0.12054   0.12140   0.12599
 Alpha virt. eigenvalues --    0.13069   0.13308   0.13343   0.14094   0.14499
 Alpha virt. eigenvalues --    0.14514   0.15115   0.15202   0.15714   0.17952
 Alpha virt. eigenvalues --    0.18207   0.18945   0.19635   0.19769   0.20127
 Alpha virt. eigenvalues --    0.20203   0.20600   0.21334   0.22036   0.22085
 Alpha virt. eigenvalues --    0.22141   0.25155   0.25648   0.25795   0.26587
 Alpha virt. eigenvalues --    0.26919   0.26978   0.27170   0.28108   0.28465
 Alpha virt. eigenvalues --    0.29571   0.29764   0.30233   0.30363   0.31274
 Alpha virt. eigenvalues --    0.31845   0.31866   0.32178   0.32884   0.34650
 Alpha virt. eigenvalues --    0.35698   0.36815   0.38464   0.38546   0.38728
 Alpha virt. eigenvalues --    0.39412   0.41548   0.41937   0.43826   0.43960
 Alpha virt. eigenvalues --    0.45037   0.45235   0.45869   0.46081   0.46436
 Alpha virt. eigenvalues --    0.47024   0.47352   0.47564   0.48032   0.48262
 Alpha virt. eigenvalues --    0.48377   0.48526   0.48699   0.49614   0.49934
 Alpha virt. eigenvalues --    0.50432   0.51212   0.51692   0.52313   0.53528
 Alpha virt. eigenvalues --    0.53731   0.54453   0.55664   0.56062   0.56191
 Alpha virt. eigenvalues --    0.56462   0.56683   0.56690   0.58509   0.59284
 Alpha virt. eigenvalues --    0.61299   0.61813   0.63027   0.63072   0.63471
 Alpha virt. eigenvalues --    0.64035   0.65026   0.65594   0.66412   0.66654
 Alpha virt. eigenvalues --    0.66773   0.66840   0.67874   0.68399   0.68513
 Alpha virt. eigenvalues --    0.68717   0.68728   0.69286   0.69466   0.69772
 Alpha virt. eigenvalues --    0.69969   0.70218   0.70290   0.70875   0.71213
 Alpha virt. eigenvalues --    0.71257   0.71707   0.71852   0.72167   0.72175
 Alpha virt. eigenvalues --    0.72564   0.72599   0.72674   0.72733   0.72857
 Alpha virt. eigenvalues --    0.73758   0.73977   0.74581   0.74824   0.74876
 Alpha virt. eigenvalues --    0.74907   0.75271   0.76368   0.76518   0.76800
 Alpha virt. eigenvalues --    0.77204   0.77902   0.78099   0.78639   0.79279
 Alpha virt. eigenvalues --    0.79480   0.80584   0.80648   0.80701   0.82601
 Alpha virt. eigenvalues --    0.84459   0.85252   0.85253   0.88125   0.88411
 Alpha virt. eigenvalues --    0.88421   0.89659   0.90525   0.90893   0.96059
 Alpha virt. eigenvalues --    0.96422   0.98929   1.00123   1.01379   1.01827
 Alpha virt. eigenvalues --    1.05296   1.05503   1.06139   1.06826   1.07295
 Alpha virt. eigenvalues --    1.07517   1.08090   1.09670   1.09841   1.10626
 Alpha virt. eigenvalues --    1.11450   1.11827   1.12585   1.13404   1.14276
 Alpha virt. eigenvalues --    1.14451   1.15818   1.18683   1.20622   1.21357
 Alpha virt. eigenvalues --    1.22069   1.23161   1.24189   1.24274   1.24614
 Alpha virt. eigenvalues --    1.26368   1.26988   1.27331   1.27801   1.28109
 Alpha virt. eigenvalues --    1.28394   1.28654   1.28722   1.29095   1.30402
 Alpha virt. eigenvalues --    1.30531   1.30824   1.31570   1.32810   1.34547
 Alpha virt. eigenvalues --    1.34599   1.34978   1.35484   1.35571   1.35682
 Alpha virt. eigenvalues --    1.36506   1.37700   1.38503   1.38951   1.39666
 Alpha virt. eigenvalues --    1.39816   1.40220   1.40764   1.41016   1.42461
 Alpha virt. eigenvalues --    1.42580   1.43556   1.45003   1.49155   1.49445
 Alpha virt. eigenvalues --    1.51970   1.52987   1.56031   1.56965   1.57345
 Alpha virt. eigenvalues --    1.61667   1.61764   1.62120   1.62673   1.62862
 Alpha virt. eigenvalues --    1.62879   1.63077   1.64029   1.64123   1.65018
 Alpha virt. eigenvalues --    1.65866   1.68772   1.68961   1.70574   1.70796
 Alpha virt. eigenvalues --    1.71658   1.71706   1.72264   1.73263   1.74373
 Alpha virt. eigenvalues --    1.74683   1.75690   1.76042   1.76532   1.76628
 Alpha virt. eigenvalues --    1.76846   1.77030   1.77262   1.77793   1.77846
 Alpha virt. eigenvalues --    1.78262   1.79024   1.79267   1.79292   1.79314
 Alpha virt. eigenvalues --    1.79742   1.79994   1.80548   1.80786   1.83801
 Alpha virt. eigenvalues --    1.83870   1.84313   1.84982   1.84988   1.86164
 Alpha virt. eigenvalues --    1.87671   1.87677   1.89025   1.90226   1.92884
 Alpha virt. eigenvalues --    1.92888   1.93236   1.93361   1.93968   1.94044
 Alpha virt. eigenvalues --    1.95820   1.95963   1.96213   1.96377   1.96612
 Alpha virt. eigenvalues --    1.96686   1.97132   1.98665   1.99392   1.99567
 Alpha virt. eigenvalues --    1.99986   2.00413   2.00420   2.01105   2.02112
 Alpha virt. eigenvalues --    2.03123   2.03254   2.03885   2.05950   2.06538
 Alpha virt. eigenvalues --    2.08069   2.08400   2.09641   2.10806   2.11997
 Alpha virt. eigenvalues --    2.12292   2.13981   2.14314   2.14912   2.15015
 Alpha virt. eigenvalues --    2.15675   2.18135   2.18384   2.19692   2.19949
 Alpha virt. eigenvalues --    2.23307   2.26469   2.26471   2.29148   2.29374
 Alpha virt. eigenvalues --    2.30105   2.30531   2.30558   2.30583   2.31200
 Alpha virt. eigenvalues --    2.31336   2.31592   2.31997   2.33231   2.34529
 Alpha virt. eigenvalues --    2.36107   2.36899   2.37232   2.37233   2.37529
 Alpha virt. eigenvalues --    2.39609   2.40900   2.41266   2.41674   2.44334
 Alpha virt. eigenvalues --    2.47404   2.49029   2.50137   2.50315   2.51460
 Alpha virt. eigenvalues --    2.51910   2.54012   2.54062   2.54406   2.54448
 Alpha virt. eigenvalues --    2.54495   2.55538   2.65032   2.65060   2.65089
 Alpha virt. eigenvalues --    2.65144   2.67553   2.67755   2.68507   2.68888
 Alpha virt. eigenvalues --    2.69237   2.69386   2.69492   2.69654   2.69909
 Alpha virt. eigenvalues --    2.74214   2.74560   2.76569   2.76915   2.77140
 Alpha virt. eigenvalues --    2.79020   2.79248   2.82598   2.85018   2.85730
 Alpha virt. eigenvalues --    2.85765   2.87176   2.87338   2.87372   2.87449
 Alpha virt. eigenvalues --    2.88651   2.89838   2.89895   2.90747   2.90807
 Alpha virt. eigenvalues --    2.91927   2.95429   2.95578   2.95882   2.96996
 Alpha virt. eigenvalues --    2.97071   2.97075   2.98773   2.99137   3.01446
 Alpha virt. eigenvalues --    3.01637   3.03380   3.03657   3.04107   3.06884
 Alpha virt. eigenvalues --    3.09099   3.09536   3.12244   3.14275   3.17722
 Alpha virt. eigenvalues --    3.17800   3.19065   3.19195   3.19776   3.20897
 Alpha virt. eigenvalues --    3.22629   3.23123   3.26017   3.27025   3.27204
 Alpha virt. eigenvalues --    3.27389   3.27620   3.28661   3.39134   3.39153
 Alpha virt. eigenvalues --    3.44223   3.46464   3.48335   3.49954   3.55465
 Alpha virt. eigenvalues --    3.55954   3.68052   3.69896   3.70439   3.70683
 Alpha virt. eigenvalues --    3.73583   3.73743   3.76106   3.77223   3.79273
 Alpha virt. eigenvalues --    3.79285
          Condensed to atoms (all electrons):
 Mulliken charges:
               1
     1  O   -0.359582
     2  H    0.183129
     3  C    0.020062
     4  H    0.028861
     5  C    0.002207
     6  H    0.037479
     7  O   -0.243524
     8  C    0.138432
     9  H    0.059971
    10  H    0.040146
    11  C    0.160537
    12  H    0.046900
    13  H    0.034480
    14  C   -0.084478
    15  C    0.307636
    16  O   -0.369452
    17  C   -0.084345
    18  C    0.308573
    19  O   -0.366541
    20  C    0.019468
    21  H    0.028647
    22  C    0.002571
    23  H    0.036821
    24  O   -0.241917
    25  C    0.019468
    26  H    0.028647
    27  C    0.002571
    28  H    0.036822
    29  O   -0.241917
    30  C    0.174027
    31  H    0.059936
    32  H    0.059953
    33  C   -0.084344
    34  C    0.308572
    35  C    0.174028
    36  H    0.059954
    37  H    0.059935
    38  O   -0.366541
    39  C   -0.084475
    40  C    0.307636
    41  O   -0.369451
    42  C    0.020062
    43  H    0.028861
    44  C    0.002208
    45  H    0.037480
    46  O   -0.243527
    47  C    0.160543
    48  H    0.034475
    49  H    0.046899
    50  C    0.138415
    51  H    0.040143
    52  H    0.059975
    53  O   -0.359567
    54  H    0.183130
 Sum of Mulliken charges =  -0.00000
 Mulliken charges with hydrogens summed into heavy atoms:
               1
     1  O   -0.176453
     3  C    0.048923
     5  C    0.039687
     7  O   -0.243524
     8  C    0.238549
    11  C    0.241917
    14  C   -0.084478
    15  C    0.307636
    16  O   -0.369452
    17  C   -0.084345
    18  C    0.308573
    19  O   -0.366541
    20  C    0.048115
    22  C    0.039393
    24  O   -0.241917
    25  C    0.048115
    27  C    0.039392
    29  O   -0.241917
    30  C    0.293916
    33  C   -0.084344
    34  C    0.308572
    35  C    0.293918
    38  O   -0.366541
    39  C   -0.084475
    40  C    0.307636
    41  O   -0.369451
    42  C    0.048923
    44  C    0.039688
    46  O   -0.243527
    47  C    0.241917
    50  C    0.238533
    53  O   -0.176438
 Electronic spatial extent (au):  <R**2>=         118167.5001
 Charge=             -0.0000 electrons
 Dipole moment (field-independent basis, Debye):
    X=              0.0003    Y=             -0.0001    Z=              0.0002  Tot=              0.0004
 Quadrupole moment (field-independent basis, Debye-Ang):
   XX=           -154.5647   YY=           -186.8675   ZZ=           -212.2294
   XY=             19.1850   XZ=            -11.2376   YZ=             -8.3366
 Traceless Quadrupole moment (field-independent basis, Debye-Ang):
   XX=             29.9892   YY=             -2.3136   ZZ=            -27.6756
   XY=             19.1850   XZ=            -11.2376   YZ=             -8.3366
 Octapole moment (field-independent basis, Debye-Ang**2):
  XXX=           1254.0331  YYY=          -1000.2774  ZZZ=          -5532.9507  XYY=            573.8010
  XXY=           -379.5583  XXZ=          -1282.4021  XZZ=            378.5846  YZZ=           -523.5764
  YYZ=          -1653.6372  XYZ=            169.2341
 Hexadecapole moment (field-independent basis, Debye-Ang**3):
 XXXX=         -17758.2887 YYYY=         -11441.9565 ZZZZ=        -140520.0557 XXXY=           -302.3140
 XXXZ=          19231.4479 YYYX=          -1516.5013 YYYZ=           -923.9595 ZZZX=          24772.2263
 ZZZY=          -2444.4998 XXYY=          -5326.4220 XXZZ=         -19095.7063 YYZZ=         -23688.8795
 XXYZ=          -1955.4278 YYXZ=           8704.9474 ZZXY=           1315.4330
 N-N= 2.738250538473D+03 E-N=-9.216346585301D+03  KE= 1.588513080387D+03
   1 Symmetry operations used in ECPInt.
 ECPInt:  NShTT=   33411 NPrTT=  122747 LenC2=   19308 LenP2D=   46830.
 LDataN:  DoStor=T MaxTD1= 5 Len=  102
 Calling FoFJK, ICntrl=      2127 FMM=F ISym2X=0 I1Cent= 0 IOpClX= 0 NMat=1 NMatS=1 NMatT=0.
 -------------------------------------------------------------------
 Center     Atomic                   Forces (Hartrees/Bohr)
 Number     Number              X              Y              Z
 -------------------------------------------------------------------
      1        8          -0.004353296   -0.000149931    0.002154687
      2        1           0.001267583   -0.000544098    0.001257399
      3        6           0.000093053   -0.000795232    0.000000519
      4        1          -0.001571597   -0.005241674    0.003349009
      5        6          -0.000046057   -0.000651247    0.000186320
      6        1           0.002373274   -0.005285286   -0.002759573
      7        8           0.000573182   -0.000647274   -0.000720656
      8        6          -0.004976713    0.007008727    0.006617064
      9        1          -0.002286980   -0.003295998   -0.004412991
     10        1           0.005118801   -0.002880482    0.000668796
     11        6           0.007953016   -0.003663000   -0.010228214
     12        1          -0.005640761    0.001976654    0.000099520
     13        1           0.001597543    0.002822324    0.005504059
     14        6           0.002337247    0.000414994   -0.003766375
     15        6           0.000541043    0.001554776   -0.001011398
     16        8          -0.001535781    0.002153594    0.001933435
     17        6          -0.002358201   -0.000398255    0.003708236
     18        6          -0.000396567   -0.001529629    0.001012896
     19        8           0.001624362   -0.002381349   -0.002029064
     20        6          -0.000067108    0.000816305   -0.000011906
     21        1           0.001575863    0.005231714   -0.003374887
     22        6           0.000036865    0.000619295   -0.000174166
     23        1          -0.002366914    0.005292745    0.002747499
     24        8          -0.000611605    0.000652069    0.000763616
     25        6           0.000069006   -0.000815685    0.000012740
     26        1          -0.001575809   -0.005231846    0.003375320
     27        6          -0.000038258   -0.000619526    0.000173515
     28        1           0.002367117   -0.005292713   -0.002747311
     29        8           0.000599191   -0.000654757   -0.000771229
     30        6          -0.004997331    0.006531247    0.006603605
     31        1           0.005334617   -0.002553617    0.000532287
     32        1          -0.002219708   -0.003393163   -0.004353818
     33        6           0.002347875    0.000396857   -0.003715397
     34        6           0.000429829    0.001534152   -0.000991636
     35        6           0.004997645   -0.006531150   -0.006604606
     36        1           0.002220026    0.003393185    0.004353800
     37        1          -0.005334834    0.002553864   -0.000531933
     38        8          -0.001620321    0.002379735    0.002034463
     39        6          -0.002332598   -0.000415652    0.003767780
     40        6          -0.000559193   -0.001552935    0.001006547
     41        8           0.001524240   -0.002154656   -0.001939231
     42        6          -0.000093433    0.000795083    0.000000064
     43        1           0.001570624    0.005241930   -0.003349680
     44        6           0.000046294    0.000651205   -0.000186341
     45        1          -0.002372993    0.005285508    0.002759825
     46        8          -0.000565414    0.000646992    0.000722291
     47        6          -0.007945322    0.003666690    0.010210705
     48        1          -0.001598264   -0.002822623   -0.005500624
     49        1           0.005642455   -0.001973861   -0.000095509
     50        6           0.004979112   -0.007017257   -0.006618747
     51        1          -0.005120288    0.002881169   -0.000669236
     52        1           0.002286744    0.003298174    0.004413118
     53        8           0.004342992    0.000153556   -0.002150258
     54        1          -0.001264257    0.000540347   -0.001254332
 -------------------------------------------------------------------
 Cartesian Forces:  Max     0.010228214 RMS     0.003322424

 GradGradGradGradGradGradGradGradGradGradGradGradGradGradGradGradGradGrad
 Berny optimization.
 FormGI is forming the generalized inverse of G from B-inverse, IUseBI=4.
 Internal  Forces:  Max     0.007106048 RMS     0.002375911
 Search for a local minimum.
...
 Step number   5 out of a maximum of  272 on scan point     1 out of    19
 All quantities printed in internal units (Hartrees-Bohrs-Radians)
 Mixed Optimization -- En-DIIS/RFO-DIIS
 Swapping is turned off.
 Update second derivatives using D2CorX and points    1    2    3    4    5
 DE= -2.71D-08 DEPred=-2.58D-08 R= 1.05D+00
 Trust test= 1.05D+00 RLast= 4.38D-03 DXMaxT set to 3.85D-01
 ITU=  0  0  1  1  0
     Eigenvalues ---    0.00177   0.00231   0.00242   0.00246   0.00298
     Eigenvalues ---    0.00319   0.00337   0.00342   0.00344   0.00354
     Eigenvalues ---    0.00367   0.00404   0.01401   0.01572   0.01760
     Eigenvalues ---    0.01772   0.01776   0.01796   0.01932   0.01988
     Eigenvalues ---    0.02031   0.02103   0.02114   0.02120   0.02185
     Eigenvalues ---    0.02191   0.02246   0.02504   0.02505   0.02742
     Eigenvalues ---    0.02743   0.02756   0.02761   0.02845   0.02845
     Eigenvalues ---    0.04614   0.04617   0.04621   0.04795   0.04865
     Eigenvalues ---    0.05017   0.05403   0.05415   0.06575   0.06590
     Eigenvalues ---    0.06717   0.06952   0.06979   0.07001   0.07002
     Eigenvalues ---    0.09233   0.09342   0.09349   0.10005   0.10351
     Eigenvalues ---    0.10384   0.10401   0.11102   0.11103   0.11221
     Eigenvalues ---    0.11260   0.11654   0.11660   0.11939   0.11943
     Eigenvalues ---    0.12434   0.12437   0.14965   0.14969   0.15025
     Eigenvalues ---    0.16903   0.16928   0.17647   0.17725   0.17860
     Eigenvalues ---    0.17914   0.18639   0.19026   0.19026   0.19752
     Eigenvalues ---    0.19756   0.20431   0.20457   0.20963   0.20978
     Eigenvalues ---    0.23225   0.23625   0.24366   0.24478   0.24582
     Eigenvalues ---    0.24620   0.24831   0.24905   0.25381   0.25592
     Eigenvalues ---    0.25837   0.26511   0.26744   0.28604   0.28704
     Eigenvalues ---    0.29719   0.29742   0.30497   0.30500   0.32103
     Eigenvalues ---    0.33051   0.33079   0.33685   0.33699   0.33981
     Eigenvalues ---    0.34161   0.34270   0.34285   0.34288   0.34537
     Eigenvalues ---    0.34596   0.34763   0.36000   0.36134   0.36769
     Eigenvalues ---    0.36887   0.36923   0.36959   0.37048   0.37101
     Eigenvalues ---    0.37444   0.37607   0.37628   0.38502   0.38614
     Eigenvalues ---    0.39958   0.41024   0.41295   0.41741   0.42177
     Eigenvalues ---    0.43461   0.43482   0.45638   0.45682   0.48163
     Eigenvalues ---    0.48266   0.48611   0.48669   0.48756   0.48904
     Eigenvalues ---    0.48965   0.49445   0.53132   0.53292   0.54044
     Eigenvalues ---    0.54068   0.91404   0.91421   0.91660   0.91732
     Eigenvalues --- 1000.000001000.000001000.000001000.000001000.00000
     Eigenvalues --- 1000.000001000.000001000.000001000.000001000.00000
     Eigenvalues --- 1000.000001000.000001000.000001000.000001000.00000
     Eigenvalues --- 1000.000001000.000001000.000001000.000001000.00000
     Eigenvalues --- 1000.000001000.000001000.000001000.000001000.00000
     Eigenvalues --- 1000.000001000.000001000.000001000.000001000.00000
     Eigenvalues --- 1000.000001000.000001000.000001000.000001000.00000
     Eigenvalues --- 1000.000001000.000001000.000001000.000001000.00000
     Eigenvalues --- 1000.000001000.000001000.000001000.000001000.00000
     Eigenvalues --- 1000.000001000.000001000.000001000.000001000.00000
     Eigenvalues --- 1000.000001000.000001000.000001000.000001000.00000
     Eigenvalues --- 1000.000001000.000001000.000001000.000001000.00000
     Eigenvalues --- 1000.000001000.000001000.000001000.000001000.00000
     Eigenvalues --- 1000.000001000.000001000.000001000.000001000.00000
     Eigenvalues --- 1000.000001000.000001000.000001000.000001000.00000
     Eigenvalues --- 1000.000001000.000001000.000001000.000001000.00000
     Eigenvalues --- 1000.000001000.000001000.000001000.000001000.00000
     Eigenvalues --- 1000.000001000.000001000.000001000.000001000.00000
     Eigenvalues --- 1000.000001000.000001000.000001000.000001000.00000
     Eigenvalues --- 1000.000001000.000001000.000001000.000001000.00000
     Eigenvalues --- 1000.000001000.000001000.000001000.000001000.00000
     Eigenvalues --- 1000.000001000.00000
 En-DIIS/RFO-DIIS/Sim-DIIS IScMMF=       -3 using points:     5    4    3    2
 RFO step:  Lambda=-6.58451306D-10.
 DIIS inversion failure, remove point   4.
 RFO-DIIS uses    3 points instead of    4
 DidBck=F Rises=F RFO-DIIS coefs:    0.97810    0.05600   -0.03410    0.00000
 Iteration  1 RMS(Cart)=  0.00016111 RMS(Int)=  0.00000001
 Iteration  2 RMS(Cart)=  0.00000008 RMS(Int)=  0.00000000
 Iteration  1 RMS(Cart)=  0.00000000 RMS(Int)=  0.00000000
 Variable       Old X    -DE/DX   Delta X   Delta X   Delta X     New X
                                 (Linear)    (Quad)   (Total)
    R1        1.81988   0.00000  -0.00000   0.00000   0.00000   1.81988
    R2        2.64726  -0.00000   0.00000  -0.00001  -0.00001   2.64725
    R3        2.05866   0.00000  -0.00000   0.00000   0.00000   2.05866
    R4        2.62721   0.00000  -0.00000   0.00000   0.00000   2.62721
    R5        2.64318   0.00000  -0.00000   0.00000   0.00000   2.64318
    R6        2.06082   0.00000  -0.00000   0.00000   0.00000   2.06082
    R7        2.64132   0.00000  -0.00000   0.00000   0.00000   2.64132
    R8        2.26944   0.00000   0.00000   0.00000   0.00000   2.26944
    R9        2.07866   0.00000  -0.00000   0.00000   0.00000   2.07866
   R10        2.08299   0.00000  -0.00000   0.00000   0.00000   2.08299
   R11        2.86773  -0.00000   0.00000  -0.00000  -0.00000   2.86773
   R12        2.68739  -0.00000   0.00000  -0.00000  -0.00000   2.68739
   R13        2.07680   0.00000  -0.00000   0.00001   0.00000   2.07681
   R14        2.08830   0.00000  -0.00000   0.00000   0.00000   2.08830
   R15        2.82711   0.00000  -0.00000   0.00000   0.00000   2.82712
   R16        2.64297   0.00000  -0.00000   0.00000   0.00000   2.64297
   R17        2.52856  -0.00000   0.00000  -0.00000  -0.00000   2.52856
   R18        2.53386  -0.00000   0.00000  -0.00000  -0.00000   2.53385
   R19        2.68303  -0.00000   0.00000  -0.00000  -0.00000   2.68302
   R20        2.82430   0.00000  -0.00000   0.00000   0.00000   2.82431
   R21        2.64160   0.00000  -0.00000   0.00000   0.00000   2.64160
   R22        2.26864   0.00000  -0.00000   0.00000   0.00000   2.26864
   R23        2.05862   0.00000  -0.00000   0.00000   0.00000   2.05863
   R24        2.62716   0.00000  -0.00000   0.00000   0.00000   2.62716
   R25        2.06084   0.00000  -0.00000   0.00000   0.00000   2.06085
   R26        2.05862   0.00000  -0.00000   0.00000   0.00000   2.05863
   R27        2.62716   0.00000  -0.00000   0.00000   0.00000   2.62716
   R28        2.64297   0.00000  -0.00000   0.00000   0.00000   2.64297
   R29        2.06084   0.00000  -0.00000   0.00000   0.00000   2.06085
   R30        2.64160   0.00000  -0.00000   0.00000   0.00000   2.64160
   R31        2.26864   0.00000  -0.00000   0.00000   0.00000   2.26864
   R32        2.07848   0.00000  -0.00000   0.00001   0.00000   2.07849
   R33        2.07847   0.00000  -0.00000   0.00000   0.00000   2.07848
   R34        2.85511  -0.00000   0.00000  -0.00000  -0.00000   2.85510
   R35        2.68303  -0.00000   0.00000  -0.00000  -0.00000   2.68302
   R36        2.82430   0.00000  -0.00000   0.00000   0.00000   2.82431
   R37        2.64318   0.00000  -0.00000   0.00000   0.00000   2.64318
   R38        2.53386  -0.00000   0.00000  -0.00000  -0.00000   2.53385
   R39        2.07847   0.00000  -0.00000   0.00000   0.00000   2.07847
   R40        2.07848   0.00000  -0.00000   0.00001   0.00000   2.07849
   R41        2.52856  -0.00000   0.00000  -0.00000  -0.00000   2.52856
   R42        2.68739  -0.00000   0.00000  -0.00000  -0.00000   2.68739
   R43        2.82711   0.00000  -0.00000   0.00000   0.00000   2.82712
   R44        2.64132   0.00000  -0.00000   0.00000   0.00000   2.64132
   R45        2.26944   0.00000   0.00000   0.00000   0.00000   2.26944
   R46        2.05866   0.00000  -0.00000   0.00000   0.00000   2.05866
   R47        2.62721   0.00000  -0.00000   0.00000   0.00000   2.62721
   R48        2.06082   0.00000  -0.00000   0.00000   0.00000   2.06082
   R49        2.08830   0.00000  -0.00000   0.00000   0.00000   2.08830
   R50        2.07680   0.00000  -0.00000   0.00001   0.00000   2.07681
   R51        2.86773  -0.00000   0.00000  -0.00000  -0.00000   2.86773
   R52        2.64726  -0.00000   0.00000  -0.00001  -0.00001   2.64725
   R53        2.08299   0.00000  -0.00000   0.00000   0.00000   2.08299
   R54        2.07866   0.00000  -0.00000   0.00000   0.00000   2.07866
   R55        1.81988   0.00000  -0.00000   0.00000   0.00000   1.81988
    A1        1.89792   0.00000  -0.00000   0.00001   0.00001   1.89793
    A2        2.10895  -0.00000   0.00000  -0.00001  -0.00001   2.10894
    A3        2.08756   0.00000  -0.00000   0.00001   0.00001   2.08757
    A4        2.08667   0.00000  -0.00000   0.00000   0.00000   2.08668
    A5        2.12038  -0.00000   0.00000  -0.00001  -0.00001   2.12037
    A6        2.09350   0.00000  -0.00000   0.00000   0.00000   2.09350
    A7        2.06931   0.00000  -0.00000   0.00000   0.00000   2.06931
    A8        1.87383   0.00000  -0.00000   0.00002   0.00002   1.87386
    A9        1.93430  -0.00000  -0.00001   0.00000  -0.00000   1.93430
   A10        1.92247  -0.00000   0.00000  -0.00001  -0.00001   1.92247
   A11        1.94564  -0.00000   0.00001  -0.00002  -0.00001   1.94562
   A12        1.91051  -0.00000   0.00000  -0.00001  -0.00001   1.91050
   A13        1.87742   0.00000   0.00000   0.00000   0.00000   1.87742
   A14        1.93675  -0.00000  -0.00000  -0.00001  -0.00001   1.93674
   A15        1.87305  -0.00000   0.00000  -0.00001  -0.00001   1.87305
   A16        1.96826  -0.00000   0.00000  -0.00001  -0.00001   1.96826
   A17        1.90468   0.00000   0.00000   0.00001   0.00001   1.90470
   A18        1.90802   0.00000  -0.00000  -0.00000  -0.00000   1.90801
   A19        1.87076   0.00000  -0.00000   0.00002   0.00002   1.87078
   A20        2.05154   0.00000  -0.00000   0.00000   0.00000   2.05154
   A21        2.10291  -0.00000   0.00000  -0.00000  -0.00000   2.10291
   A22        2.12874  -0.00000  -0.00000   0.00000   0.00000   2.12874
   A23        2.16772  -0.00000  -0.00000  -0.00000  -0.00000   2.16772
   A24        2.14973   0.00000   0.00000   0.00000   0.00000   2.14974
   A25        1.96573  -0.00000   0.00000  -0.00000  -0.00000   1.96573
   A26        2.02100  -0.00000   0.00000  -0.00000  -0.00000   2.02100
   A27        2.12923   0.00000  -0.00000   0.00000   0.00000   2.12924
   A28        2.10311  -0.00000   0.00000  -0.00000  -0.00000   2.10311
   A29        2.05084   0.00000  -0.00000   0.00000   0.00000   2.05084
   A30        1.96591  -0.00000   0.00000  -0.00000  -0.00000   1.96591
   A31        2.14478  -0.00000   0.00000   0.00000   0.00000   2.14478
   A32        2.17249   0.00000  -0.00000   0.00000   0.00000   2.17249
   A33        2.02655   0.00000   0.00000   0.00001   0.00001   2.02655
   A34        2.08628   0.00000  -0.00000   0.00001   0.00001   2.08628
   A35        2.08704   0.00000  -0.00000   0.00000   0.00000   2.08704
   A36        2.10987  -0.00000   0.00000  -0.00001  -0.00001   2.10986
   A37        2.09314   0.00000  -0.00000   0.00000   0.00000   2.09314
   A38        2.06980   0.00000  -0.00000   0.00000   0.00000   2.06980
   A39        2.12025  -0.00000   0.00000  -0.00001  -0.00000   2.12024
   A40        2.10987  -0.00000   0.00000  -0.00001  -0.00001   2.10986
   A41        2.08628   0.00000  -0.00000   0.00001   0.00001   2.08628
   A42        2.08704   0.00000  -0.00000   0.00000   0.00000   2.08704
   A43        2.12025  -0.00000   0.00000  -0.00001  -0.00000   2.12024
   A44        2.09314   0.00000  -0.00000   0.00000   0.00000   2.09314
   A45        2.06980   0.00000  -0.00000   0.00000   0.00000   2.06980
   A46        1.87863   0.00000  -0.00000   0.00002   0.00001   1.87865
   A47        1.94189   0.00000  -0.00000  -0.00000  -0.00000   1.94189
   A48        1.92235  -0.00000   0.00000  -0.00001  -0.00001   1.92234
   A49        1.94197   0.00000  -0.00000   0.00000   0.00000   1.94197
   A50        1.92247  -0.00000   0.00000  -0.00001  -0.00001   1.92247
   A51        1.85711  -0.00000   0.00000  -0.00000  -0.00000   1.85711
   A52        2.05084   0.00000  -0.00000   0.00000   0.00000   2.05084
   A53        2.10311  -0.00000   0.00000  -0.00000  -0.00000   2.10311
   A54        2.12923   0.00000  -0.00000   0.00000   0.00000   2.12924
   A55        2.17249   0.00000  -0.00000   0.00000   0.00000   2.17249
   A56        2.14478  -0.00000   0.00000   0.00000   0.00000   2.14478
   A57        1.96591  -0.00000   0.00000  -0.00000  -0.00000   1.96591
   A58        1.85711  -0.00000   0.00000  -0.00000  -0.00000   1.85711
   A59        1.92247  -0.00000   0.00000  -0.00001  -0.00001   1.92247
   A60        1.92235  -0.00000   0.00000  -0.00001  -0.00001   1.92234
   A61        1.94197   0.00000  -0.00000   0.00000   0.00000   1.94197
   A62        1.94189   0.00000  -0.00000  -0.00000  -0.00000   1.94189
   A63        1.87863   0.00000  -0.00000   0.00002   0.00001   1.87865
   A64        2.02654   0.00000   0.00000   0.00001   0.00001   2.02655
   A65        2.12874  -0.00000  -0.00000   0.00000   0.00000   2.12874
   A66        2.10291  -0.00000   0.00000  -0.00000  -0.00000   2.10291
   A67        2.05154   0.00000  -0.00000   0.00000   0.00000   2.05154
   A68        1.96573  -0.00000   0.00000  -0.00000  -0.00000   1.96573
   A69        2.14973   0.00000   0.00000   0.00000   0.00000   2.14974
   A70        2.16772  -0.00000  -0.00000  -0.00000  -0.00000   2.16772
   A71        2.02100  -0.00000   0.00000  -0.00000  -0.00000   2.02100
   A72        2.08756   0.00000  -0.00000   0.00001   0.00001   2.08757
   A73        2.08667   0.00000  -0.00000   0.00000   0.00000   2.08668
   A74        2.10895  -0.00000   0.00000  -0.00001  -0.00001   2.10894
   A75        2.09350   0.00000  -0.00000   0.00000   0.00000   2.09350
   A76        2.06931   0.00000  -0.00000   0.00000   0.00000   2.06931
   A77        2.12038  -0.00000   0.00000  -0.00001  -0.00001   2.12037
   A78        1.87076   0.00000  -0.00000   0.00002   0.00002   1.87078
   A79        1.90802   0.00000  -0.00000  -0.00000  -0.00000   1.90802
   A80        1.96827  -0.00000   0.00000  -0.00001  -0.00001   1.96826
   A81        1.90468   0.00000   0.00000   0.00001   0.00001   1.90469
   A82        1.87305  -0.00000   0.00000  -0.00001  -0.00001   1.87305
   A83        1.93675  -0.00000  -0.00000  -0.00001  -0.00001   1.93674
   A84        1.87742   0.00000   0.00000   0.00000   0.00000   1.87742
   A85        1.91051  -0.00000   0.00000  -0.00001  -0.00001   1.91050
   A86        1.92247  -0.00000   0.00000  -0.00001  -0.00001   1.92247
   A87        1.94564  -0.00000   0.00001  -0.00002  -0.00001   1.94562
   A88        1.93430  -0.00000  -0.00001   0.00000  -0.00000   1.93430
   A89        1.87383   0.00000  -0.00000   0.00002   0.00002   1.87385
   A90        1.89792   0.00000  -0.00000   0.00001   0.00001   1.89793
    D1       -1.20697   0.00000  -0.00000  -0.00002  -0.00002  -1.20699
    D2        2.99664  -0.00000  -0.00000  -0.00003  -0.00003   2.99661
    D3        0.94041  -0.00000   0.00000  -0.00004  -0.00004   0.94037
    D4        0.00001  -0.00000   0.00000   0.00000   0.00000   0.00002
    D5        3.14133   0.00000   0.00000   0.00000   0.00001   3.14134
    D6       -3.14123  -0.00000   0.00000   0.00000   0.00000  -3.14122
    D7        0.00009   0.00000   0.00000   0.00000   0.00001   0.00010
    D8        0.00040   0.00000  -0.00000   0.00000   0.00000   0.00041
    D9       -3.14108   0.00000  -0.00000   0.00000   0.00000  -3.14108
   D10       -3.14154   0.00000  -0.00000   0.00000   0.00000  -3.14153
   D11        0.00017  -0.00000  -0.00000  -0.00000  -0.00000   0.00016
   D12       -3.14138  -0.00000   0.00000  -0.00000   0.00000  -3.14138
   D13       -0.00040  -0.00000  -0.00000  -0.00000  -0.00001  -0.00040
   D14       -0.00005   0.00000   0.00000   0.00000   0.00000  -0.00005
   D15        3.14093   0.00000  -0.00000  -0.00000  -0.00000   3.14093
   D16       -1.00712  -0.00000   0.00001  -0.00003  -0.00001  -1.00713
   D17        1.05336  -0.00000   0.00001  -0.00004  -0.00002   1.05334
   D18        3.09433   0.00000   0.00001  -0.00001   0.00000   3.09434
   D19        1.07895   0.00000   0.00001  -0.00001   0.00000   1.07896
   D20        3.13943  -0.00000   0.00001  -0.00001  -0.00000   3.13943
   D21       -1.10278   0.00000   0.00001   0.00001   0.00002  -1.10276
   D22       -3.10964  -0.00000   0.00002  -0.00002  -0.00001  -3.10965
   D23       -1.04916  -0.00000   0.00002  -0.00003  -0.00002  -1.04918
   D24        0.99181   0.00000   0.00001  -0.00000   0.00001   0.99182
   D25        1.07823   0.00000   0.00014  -0.00001   0.00014   1.07837
   D26       -0.97826  -0.00000   0.00015  -0.00003   0.00012  -0.97814
   D27       -3.09498   0.00000   0.00014  -0.00000   0.00013  -3.09485
   D28        0.00202   0.00000   0.00003   0.00003   0.00006   0.00207
   D29       -3.13844   0.00000   0.00002   0.00004   0.00006  -3.13837
   D30       -3.13896   0.00000   0.00003   0.00004   0.00006  -3.13889
   D31        0.00377   0.00000   0.00003   0.00004   0.00007   0.00384
   D32       -3.14066  -0.00000   0.00000  -0.00000   0.00000  -3.14066
   D33        0.00044  -0.00000  -0.00000  -0.00000  -0.00000   0.00044
   D34        0.00029  -0.00000  -0.00000  -0.00000  -0.00001   0.00029
   D35        3.14140  -0.00000  -0.00000  -0.00000  -0.00001   3.14139
   D36        0.00910   0.00000   0.00000   0.00002   0.00002   0.00912
   D37       -3.13362   0.00000   0.00000   0.00002   0.00002  -3.13360
   D38        3.14122  -0.00000   0.00000  -0.00001  -0.00001   3.14122
   D39       -0.00029   0.00000   0.00000  -0.00000  -0.00000  -0.00029
   D40       -3.14115   0.00000   0.00001   0.00006   0.00007  -3.14107
   D41       -1.03427   0.00000   0.00001   0.00006   0.00007  -1.03420
   D42        1.03532   0.00000   0.00001   0.00007   0.00008   1.03540
   D43       -0.00101   0.00000   0.00001   0.00003   0.00004  -0.00097
   D44        3.14050  -0.00000   0.00001   0.00002   0.00004   3.14053
   D45        3.14048   0.00000   0.00001   0.00003   0.00004   3.14052
   D46       -0.00120   0.00000   0.00001   0.00003   0.00004  -0.00116
   D47       -0.00012  -0.00000  -0.00000  -0.00000  -0.00001  -0.00013
   D48        3.14114  -0.00000  -0.00000  -0.00000  -0.00000   3.14114
   D49        3.14158  -0.00000   0.00000  -0.00001  -0.00001   3.14157
   D50       -0.00035  -0.00000   0.00000  -0.00001  -0.00001  -0.00036
   D51       -0.00018   0.00000   0.00000   0.00000   0.00001  -0.00018
   D52       -3.14143   0.00000   0.00000   0.00000   0.00000  -3.14143
   D53        3.14092   0.00000   0.00000   0.00000   0.00001   3.14092
   D54       -0.00033  -0.00000   0.00000   0.00000   0.00000  -0.00033
   D55        0.00034   0.00000  -0.00000  -0.00000  -0.00000   0.00033
   D56       -3.14091  -0.00000  -0.00000  -0.00000  -0.00001  -3.14092
   D57        3.14144  -0.00000  -0.00000  -0.00000  -0.00000   3.14144
   D58        0.00019  -0.00000  -0.00000  -0.00000  -0.00001   0.00018
   D59       -0.00030   0.00000   0.00000   0.00000   0.00001  -0.00030
   D60        3.14066   0.00000  -0.00000   0.00000  -0.00000   3.14066
   D61       -3.14141   0.00000   0.00000   0.00000   0.00001  -3.14140
   D62       -0.00045   0.00000   0.00000   0.00000   0.00000  -0.00045
   D63       -3.14157   0.00000  -0.00000   0.00001   0.00001  -3.14156
   D64        0.00012   0.00000   0.00000   0.00000   0.00001   0.00012
   D65        0.00035   0.00000  -0.00000   0.00001   0.00001   0.00036
   D66       -3.14114   0.00000   0.00000   0.00000   0.00000  -3.14114
   D67        1.04749   0.00000  -0.00000   0.00001   0.00001   1.04750
   D68       -1.04681   0.00000  -0.00000   0.00002   0.00002  -1.04679
   D69        3.14159  -0.00000   0.00000  -0.00000  -0.00000   3.14159
   D70       -1.04729  -0.00000   0.00000  -0.00001  -0.00001  -1.04730
   D71        3.14159  -0.00000  -0.00000   0.00000   0.00000   3.14159
   D72        1.04681  -0.00000   0.00000  -0.00002  -0.00002   1.04679
   D73        3.14159   0.00000   0.00000   0.00000   0.00000   3.14159
   D74        1.04729   0.00000  -0.00000   0.00001   0.00001   1.04730
   D75       -1.04749  -0.00000   0.00000  -0.00001  -0.00001  -1.04750
   D76       -1.03523  -0.00000  -0.00001  -0.00008  -0.00009  -1.03532
   D77        1.03435  -0.00000  -0.00001  -0.00007  -0.00008   1.03427
   D78        3.14123  -0.00000  -0.00001  -0.00007  -0.00008   3.14116
   D79        0.00125  -0.00000  -0.00001  -0.00003  -0.00004   0.00121
   D80       -3.14043  -0.00000  -0.00001  -0.00003  -0.00004  -3.14048
   D81       -3.14044   0.00000  -0.00001  -0.00002  -0.00004  -3.14048
   D82        0.00106  -0.00000  -0.00001  -0.00003  -0.00004   0.00102
   D83        3.14108  -0.00000   0.00000  -0.00000  -0.00000   3.14108
   D84       -0.00017  -0.00000   0.00000   0.00000   0.00000  -0.00017
   D85       -0.00041  -0.00000   0.00000  -0.00000  -0.00000  -0.00041
   D86        3.14152  -0.00000   0.00000  -0.00000  -0.00000   3.14152
   D87        0.00030  -0.00000  -0.00000   0.00000   0.00000   0.00030
   D88       -3.14121   0.00000  -0.00000   0.00000   0.00000  -3.14120
   D89        3.13363  -0.00000  -0.00000  -0.00002  -0.00002   3.13361
   D90       -0.00909  -0.00000  -0.00000  -0.00002  -0.00002  -0.00911
   D91        3.09509  -0.00000  -0.00014   0.00001  -0.00013   3.09496
   D92        0.97837   0.00000  -0.00015   0.00003  -0.00012   0.97826
   D93       -1.07812  -0.00000  -0.00014   0.00001  -0.00013  -1.07825
   D94       -0.00372  -0.00000  -0.00003  -0.00004  -0.00007  -0.00379
   D95        3.13901  -0.00000  -0.00003  -0.00004  -0.00006   3.13895
   D96        3.13848  -0.00000  -0.00002  -0.00004  -0.00006   3.13842
   D97       -0.00197  -0.00000  -0.00003  -0.00003  -0.00006  -0.00203
   D98        0.00040   0.00000   0.00000   0.00000   0.00001   0.00040
   D99       -3.14093  -0.00000   0.00000   0.00000   0.00000  -3.14093
   D100       3.14139   0.00000  -0.00000   0.00000  -0.00000   3.14139
   D101       0.00006  -0.00000  -0.00000  -0.00000  -0.00000   0.00005
   D102      -0.00009  -0.00000  -0.00000  -0.00000  -0.00001  -0.00009
   D103       3.14124   0.00000  -0.00000  -0.00000  -0.00000   3.14123
   D104      -3.14133  -0.00000  -0.00000  -0.00000  -0.00001  -3.14134
   D105      -0.00001   0.00000  -0.00000  -0.00000  -0.00000  -0.00001
   D106      -0.99179  -0.00000  -0.00001   0.00000  -0.00001  -0.99179
   D107       1.10280  -0.00000  -0.00001  -0.00001  -0.00002   1.10278
   D108      -3.09431  -0.00000  -0.00001   0.00001  -0.00000  -3.09432
   D109       1.04919   0.00000  -0.00002   0.00003   0.00001   1.04920
   D110      -3.13941   0.00000  -0.00001   0.00001   0.00000  -3.13941
   D111      -1.05334   0.00000  -0.00001   0.00003   0.00002  -1.05332
   D112       3.10966   0.00000  -0.00002   0.00002   0.00001   3.10967
   D113      -1.07894  -0.00000  -0.00001   0.00001  -0.00000  -1.07894
   D114       1.00714   0.00000  -0.00001   0.00003   0.00001   1.00715
   D115      -0.94036   0.00000  -0.00000   0.00003   0.00003  -0.94032
   D116      -2.99658   0.00000   0.00000   0.00002   0.00002  -2.99656
   D117       1.20703  -0.00000   0.00000   0.00002   0.00002   1.20704
         Item               Value     Threshold  Converged?
 Maximum Force            0.000004     0.000450     YES
 RMS     Force            0.000001     0.000300     YES
 Maximum Displacement     0.000503     0.001800     YES
 RMS     Displacement     0.000161     0.001200     YES
 Predicted change in Energy=-7.269528D-10
 Optimization completed.
    -- Stationary point found.
                           ----------------------------
                           !   Optimized Parameters   !
                           ! (Angstroms and Degrees)  !
 --------------------------                            --------------------------
 ! Name  Definition              Value          Derivative Info.                !
 --------------------------------------------------------------------------------
 ! R1    R(1,2)                  0.963          -DE/DX =    0.0                 !
 ! R2    R(1,11)                 1.4009         -DE/DX =    0.0                 !
 ! R3    R(3,4)                  1.0894         -DE/DX =    0.0                 !
 ! R4    R(3,5)                  1.3903         -DE/DX =    0.0                 !
 ! R5    R(3,17)                 1.3987         -DE/DX =    0.0                 !
 ! R6    R(5,6)                  1.0905         -DE/DX =    0.0                 !
 ! R7    R(5,14)                 1.3977         -DE/DX =    0.0                 !
 ! R8    R(7,15)                 1.2009         -DE/DX =    0.0                 !
 ! R9    R(8,9)                  1.1            -DE/DX =    0.0                 !
 ! R10   R(8,10)                 1.1023         -DE/DX =    0.0                 !
 ! R11   R(8,11)                 1.5175         -DE/DX =    0.0                 !
 ! R12   R(8,19)                 1.4221         -DE/DX =    0.0                 !
 ! R13   R(11,12)                1.099          -DE/DX =    0.0                 !
 ! R14   R(11,13)                1.1051         -DE/DX =    0.0                 !
 ! R15   R(14,15)                1.496          -DE/DX =    0.0                 !
 ! R16   R(14,20)                1.3986         -DE/DX =    0.0                 !
 ! R17   R(15,19)                1.3381         -DE/DX =    0.0                 !
 ! R18   R(16,18)                1.3409         -DE/DX =    0.0                 !
 ! R19   R(16,35)                1.4198         -DE/DX =    0.0                 !
 ! R20   R(17,18)                1.4946         -DE/DX =    0.0                 !
 ! R21   R(17,22)                1.3979         -DE/DX =    0.0                 !
 ! R22   R(18,24)                1.2005         -DE/DX =    0.0                 !
 ! R23   R(20,21)                1.0894         -DE/DX =    0.0                 !
 ! R24   R(20,22)                1.3902         -DE/DX =    0.0                 !
 ! R25   R(22,23)                1.0906         -DE/DX =    0.0                 !
 ! R26   R(25,26)                1.0894         -DE/DX =    0.0                 !
 ! R27   R(25,27)                1.3902         -DE/DX =    0.0                 !
 ! R28   R(25,39)                1.3986         -DE/DX =    0.0                 !
 ! R29   R(27,28)                1.0906         -DE/DX =    0.0                 !
 ! R30   R(27,33)                1.3979         -DE/DX =    0.0                 !
 ! R31   R(29,34)                1.2005         -DE/DX =    0.0                 !
 ! R32   R(30,31)                1.0999         -DE/DX =    0.0                 !
 ! R33   R(30,32)                1.0999         -DE/DX =    0.0                 !
 ! R34   R(30,35)                1.5109         -DE/DX =    0.0                 !
 ! R35   R(30,41)                1.4198         -DE/DX =    0.0                 !
 ! R36   R(33,34)                1.4946         -DE/DX =    0.0                 !
 ! R37   R(33,42)                1.3987         -DE/DX =    0.0                 !
 ! R38   R(34,41)                1.3409         -DE/DX =    0.0                 !
 ! R39   R(35,36)                1.0999         -DE/DX =    0.0                 !
 ! R40   R(35,37)                1.0999         -DE/DX =    0.0                 !
 ! R41   R(38,40)                1.3381         -DE/DX =    0.0                 !
 ! R42   R(38,50)                1.4221         -DE/DX =    0.0                 !
 ! R43   R(39,40)                1.496          -DE/DX =    0.0                 !
 ! R44   R(39,44)                1.3977         -DE/DX =    0.0                 !
 ! R45   R(40,46)                1.2009         -DE/DX =    0.0                 !
 ! R46   R(42,43)                1.0894         -DE/DX =    0.0                 !
 ! R47   R(42,44)                1.3903         -DE/DX =    0.0                 !
 ! R48   R(44,45)                1.0905         -DE/DX =    0.0                 !
 ! R49   R(47,48)                1.1051         -DE/DX =    0.0                 !
 ! R50   R(47,49)                1.099          -DE/DX =    0.0                 !
 ! R51   R(47,50)                1.5175         -DE/DX =    0.0                 !
 ! R52   R(47,53)                1.4009         -DE/DX =    0.0                 !
 ! R53   R(50,51)                1.1023         -DE/DX =    0.0                 !
 ! R54   R(50,52)                1.1            -DE/DX =    0.0                 !
 ! R55   R(53,54)                0.963          -DE/DX =    0.0                 !
 ! A1    A(2,1,11)             108.743          -DE/DX =    0.0                 !
 ! A2    A(4,3,5)              120.8337         -DE/DX =    0.0                 !
 ! A3    A(4,3,17)             119.6086         -DE/DX =    0.0                 !
 ! A4    A(5,3,17)             119.5577         -DE/DX =    0.0                 !
[...]
      5          6           0       -1.499905    2.345436    6.498467
      6          1           0       -2.406169    1.738580    6.508733
      7          8           0       -3.179193    2.360488    4.221892
      8          6           0       -2.678386    3.771977    2.053220
      9          1           0       -3.662642    4.175146    2.333821
     10          1           0       -2.832080    2.734148    1.715231
     11          6           0       -2.036972    4.619840    0.970354
     12          1           0       -1.901645    5.643310    1.347123
     13          1           0       -1.032258    4.220782    0.741015
     14          6           0       -1.212449    3.098862    5.356447
     15          6           0       -2.178379    3.024063    4.216561
     16          8           0        1.020828    2.607528    9.755396
     17          6           0        0.517515    3.169436    7.527964
     18          6           0        1.483428    3.233885    8.667094
     19          8           0       -1.806936    3.780449    3.176863
     20          6           0       -0.057412    3.885254    5.296792
     21          1           0        0.151371    4.464682    4.398217
     22          6           0        0.809411    3.916192    6.383615
     23          1           0        1.721251    4.514313    6.368249
     24          8           0        2.551943    3.781125    8.623549
     25          6           0       -4.462254   -0.140459   12.731143
     26          1           0       -5.108885   -0.761114   13.350387
     27          6           0       -3.134165    0.077566   13.080675
     28          1           0       -2.702743   -0.360506   13.981465
     29          8           0       -0.443046    0.710338   13.736293
     30          6           0        1.152382    2.023734   12.100390
     31          1           0        1.159140    2.759300   12.918017
     32          1           0        1.632984    1.114491   12.486243
     33          6           0       -2.322617    0.874016   12.268529
     34          6           0       -0.903262    1.079951   12.690015
     35          6           0        1.897157    2.563587   10.868166
     36          1           0        2.757641    1.926010   10.617673
     37          1           0        2.291422    3.571744   11.054413
     38          8           0       -7.078603   -0.544010   11.982249
     39          6           0       -4.976695    0.447147   11.570924
     40          6           0       -6.398081    0.250760   11.147730
     41          8           0       -0.191407    1.728835   11.761045
     42          6           0       -2.837568    1.465561   11.110113
     43          1           0       -2.191150    2.096368   10.500044
     44          6           0       -4.166887    1.251615   10.763644
     45          1           0       -4.602653    1.700407    9.870102
     46          8           0       -6.885409    0.745547   10.168135
     47          6           0       -8.999041   -1.754669   12.669908
     48          1           0       -8.389973   -2.676720   12.658202
     49          1           0       -8.911741   -1.320551   13.675742
     50          6           0       -8.443184   -0.773433   11.654509
     51          1           0       -8.512797   -1.171077   10.628870
     52          1           0       -9.003079    0.173146   11.678372
     53          8           0      -10.358717   -2.000043   12.438473
     54          1           0      -10.448263   -2.494958   11.617177
 ---------------------------------------------------------------------
 Rotational constants (GHZ):           0.1162650           0.0547944           0.0375053

 **********************************************************************

            Population analysis using the SCF Density.

 **********************************************************************

 Alpha  occ. eigenvalues --  -19.69169 -19.69157 -19.68890 -19.68860 -19.63755
 Alpha  occ. eigenvalues --  -19.63728 -19.63478 -19.63464 -19.63192 -19.63159
 Alpha  occ. eigenvalues --  -10.69917 -10.69901 -10.69663 -10.69630 -10.63150
 Alpha  occ. eigenvalues --  -10.63132 -10.61667 -10.61636 -10.60915 -10.60889
 Alpha  occ. eigenvalues --  -10.58738 -10.58714 -10.58694 -10.58669 -10.58110
 Alpha  occ. eigenvalues --  -10.58095 -10.58087 -10.58068 -10.57959 -10.57938
 Alpha  occ. eigenvalues --  -10.57916 -10.57886  -1.24651  -1.23751  -1.23721
 Alpha  occ. eigenvalues --   -1.23664  -1.14679  -1.14398  -1.14369  -1.13756
 Alpha  occ. eigenvalues --   -1.13621  -1.13591  -0.98083  -0.98009  -0.90978
 Alpha  occ. eigenvalues --   -0.89577  -0.88046  -0.85998  -0.85810  -0.85428
 Alpha  occ. eigenvalues --   -0.84793  -0.79434  -0.76367  -0.74512  -0.72518
 Alpha  occ. eigenvalues --   -0.71775  -0.70933  -0.69625  -0.68812  -0.66375
 Alpha  occ. eigenvalues --   -0.66240  -0.64211  -0.63767  -0.63276  -0.62116
 Alpha  occ. eigenvalues --   -0.61438  -0.60621  -0.60412  -0.60100  -0.58379
 Alpha  occ. eigenvalues --   -0.57598  -0.57390  -0.57065  -0.56739  -0.56632
 Alpha  occ. eigenvalues --   -0.55906  -0.53794  -0.53375  -0.53129  -0.52873
 Alpha  occ. eigenvalues --   -0.52714  -0.51929  -0.51820  -0.51561  -0.51295
 Alpha  occ. eigenvalues --   -0.51148  -0.50709  -0.49972  -0.47941  -0.47489
 Alpha  occ. eigenvalues --   -0.47254  -0.46621  -0.46084  -0.44766  -0.44607
 Alpha  occ. eigenvalues --   -0.44472  -0.44261  -0.44112  -0.43803  -0.42106
 Alpha  occ. eigenvalues --   -0.41955  -0.40620  -0.40589  -0.39800  -0.38331
 Alpha  occ. eigenvalues --   -0.38303  -0.37476  -0.37230  -0.36774  -0.36741
 Alpha  occ. eigenvalues --   -0.36534  -0.35902  -0.35872  -0.33115  -0.33064
 Alpha  occ. eigenvalues --   -0.32883  -0.32854
 Alpha virt. eigenvalues --   -0.04620  -0.04561   0.00673   0.00699   0.04906
 Alpha virt. eigenvalues --    0.05166   0.07776   0.07810   0.08212   0.09693
 Alpha virt. eigenvalues --    0.10687   0.11129   0.11497   0.12199   0.12771
 Alpha virt. eigenvalues --    0.13101   0.13239   0.13574   0.13818   0.14347
 Alpha virt. eigenvalues --    0.14720   0.15046   0.15414   0.16771   0.17189
 Alpha virt. eigenvalues --    0.18343   0.18480   0.19617   0.19753   0.20414
 Alpha virt. eigenvalues --    0.20793   0.20973   0.21066   0.22357   0.23248
 Alpha virt. eigenvalues --    0.23873   0.25383   0.25635   0.26051   0.26425
 Alpha virt. eigenvalues --    0.27024   0.27228   0.28031   0.28224   0.29232
 Alpha virt. eigenvalues --    0.29697   0.29787   0.30225   0.30812   0.30848
 Alpha virt. eigenvalues --    0.31745   0.31977   0.32824   0.32969   0.34984
 Alpha virt. eigenvalues --    0.35857   0.36783   0.38169   0.38315   0.38681
 Alpha virt. eigenvalues --    0.39599   0.41680   0.42270   0.43833   0.44201
 Alpha virt. eigenvalues --    0.44612   0.44650   0.45746   0.46203   0.46693
 Alpha virt. eigenvalues --    0.47217   0.47337   0.47961   0.48024   0.48344
 Alpha virt. eigenvalues --    0.48526   0.49117   0.49649   0.50163   0.50697
 Alpha virt. eigenvalues --    0.50912   0.51201   0.51779   0.52311   0.53230
 Alpha virt. eigenvalues --    0.53777   0.54238   0.55386   0.55678   0.55930
 Alpha virt. eigenvalues --    0.56154   0.56817   0.57927   0.58332   0.58802
 Alpha virt. eigenvalues --    0.61547   0.61750   0.62516   0.63057   0.63825
 Alpha virt. eigenvalues --    0.64568   0.64852   0.65038   0.65905   0.66304
 Alpha virt. eigenvalues --    0.66680   0.66936   0.67219   0.67836   0.68185
 Alpha virt. eigenvalues --    0.68513   0.68633   0.69112   0.69213   0.69343
 Alpha virt. eigenvalues --    0.69627   0.69685   0.69948   0.70617   0.70772
 Alpha virt. eigenvalues --    0.71107   0.71576   0.71802   0.71932   0.71997
 Alpha virt. eigenvalues --    0.72190   0.72460   0.72573   0.72645   0.73172
 Alpha virt. eigenvalues --    0.73841   0.74069   0.74230   0.74791   0.75367
 Alpha virt. eigenvalues --    0.75916   0.76019   0.76800   0.76951   0.77281
 Alpha virt. eigenvalues --    0.77629   0.78139   0.78228   0.79461   0.79523
 Alpha virt. eigenvalues --    0.80481   0.81240   0.82007   0.82232   0.83759
 Alpha virt. eigenvalues --    0.84597   0.85111   0.86322   0.86795   0.88228
 Alpha virt. eigenvalues --    0.88801   0.88818   0.89822   0.91901   0.93964
 Alpha virt. eigenvalues --    0.97088   0.97316   1.00098   1.00636   1.01483
 Alpha virt. eigenvalues --    1.01516   1.05023   1.05567   1.05755   1.06425
 Alpha virt. eigenvalues --    1.07314   1.07380   1.09336   1.10012   1.10664
 Alpha virt. eigenvalues --    1.11227   1.11548   1.12043   1.13544   1.14538
 Alpha virt. eigenvalues --    1.14966   1.16083   1.16647   1.20386   1.20648
 Alpha virt. eigenvalues --    1.22817   1.24047   1.24349   1.24567   1.25163
 Alpha virt. eigenvalues --    1.25215   1.25910   1.26707   1.28245   1.28425
 Alpha virt. eigenvalues --    1.28676   1.28724   1.28992   1.29495   1.29548
 Alpha virt. eigenvalues --    1.30690   1.31498   1.32967   1.34491   1.34692
 Alpha virt. eigenvalues --    1.35124   1.35254   1.35690   1.36013   1.36848
 Alpha virt. eigenvalues --    1.37689   1.38041   1.38283   1.38657   1.39912
 Alpha virt. eigenvalues --    1.40111   1.40927   1.41403   1.42495   1.42631
 Alpha virt. eigenvalues --    1.43077   1.45016   1.47898   1.48958   1.50370
 Alpha virt. eigenvalues --    1.51302   1.52232   1.55833   1.56829   1.57229
 Alpha virt. eigenvalues --    1.59096   1.61365   1.61471   1.61971   1.62810
 Alpha virt. eigenvalues --    1.62841   1.63457   1.63776   1.64467   1.66805
 Alpha virt. eigenvalues --    1.68623   1.68823   1.69722   1.70623   1.70725
 Alpha virt. eigenvalues --    1.70765   1.71205   1.71848   1.72696   1.73568
 Alpha virt. eigenvalues --    1.73880   1.75300   1.75530   1.76366   1.76565
 Alpha virt. eigenvalues --    1.76705   1.77043   1.77267   1.77370   1.78005
 Alpha virt. eigenvalues --    1.78675   1.78794   1.78934   1.79320   1.79337
 Alpha virt. eigenvalues --    1.79773   1.79830   1.80694   1.81069   1.81632
 Alpha virt. eigenvalues --    1.82805   1.83465   1.83718   1.84517   1.84549
 Alpha virt. eigenvalues --    1.86918   1.86935   1.88343   1.89188   1.89771
 Alpha virt. eigenvalues --    1.91657   1.91687   1.93526   1.93589   1.94867
 Alpha virt. eigenvalues --    1.94908   1.95363   1.95673   1.96010   1.96239
 Alpha virt. eigenvalues --    1.96686   1.97657   1.97907   1.98759   1.99016
 Alpha virt. eigenvalues --    1.99166   1.99730   2.00185   2.00417   2.00941
 Alpha virt. eigenvalues --    2.02643   2.02684   2.03828   2.05739   2.06319
 Alpha virt. eigenvalues --    2.06923   2.08674   2.09538   2.09941   2.11274
 Alpha virt. eigenvalues --    2.12770   2.12942   2.13681   2.14511   2.14663
 Alpha virt. eigenvalues --    2.15567   2.18008   2.18243   2.18871   2.19455
 Alpha virt. eigenvalues --    2.21203   2.25884   2.25909   2.28301   2.28627
 Alpha virt. eigenvalues --    2.29035   2.30212   2.30231   2.30556   2.30762
 Alpha virt. eigenvalues --    2.30929   2.30990   2.31591   2.31797   2.34148
 Alpha virt. eigenvalues --    2.34822   2.35626   2.36060   2.36380   2.36809
 Alpha virt. eigenvalues --    2.37013   2.39641   2.40138   2.41110   2.42991
 Alpha virt. eigenvalues --    2.46203   2.48022   2.49007   2.50257   2.51331
 Alpha virt. eigenvalues --    2.53173   2.53221   2.53528   2.53581   2.53719
 Alpha virt. eigenvalues --    2.54546   2.55462   2.63868   2.63918   2.64111
 Alpha virt. eigenvalues --    2.64253   2.65493   2.66213   2.66989   2.67548
 Alpha virt. eigenvalues --    2.67965   2.69376   2.69540   2.69586   2.69785
 Alpha virt. eigenvalues --    2.72994   2.73275   2.75927   2.76209   2.76447
 Alpha virt. eigenvalues --    2.77726   2.78154   2.79950   2.82930   2.84608
 Alpha virt. eigenvalues --    2.84648   2.85289   2.85941   2.86817   2.87123
 Alpha virt. eigenvalues --    2.88916   2.88956   2.89535   2.89947   2.90627
 Alpha virt. eigenvalues --    2.91296   2.91698   2.93316   2.94191   2.95480
 Alpha virt. eigenvalues --    2.97449   2.97960   2.99434   2.99874   3.01266
 Alpha virt. eigenvalues --    3.01856   3.01968   3.03124   3.03614   3.05685
 Alpha virt. eigenvalues --    3.08281   3.09704   3.11123   3.14917   3.16142
 Alpha virt. eigenvalues --    3.16505   3.19146   3.19865   3.20216   3.20470
 Alpha virt. eigenvalues --    3.22903   3.22923   3.26365   3.27033   3.27309
 Alpha virt. eigenvalues --    3.27573   3.27744   3.28041   3.39371   3.39394
 Alpha virt. eigenvalues --    3.44211   3.46037   3.48362   3.50088   3.54179
 Alpha virt. eigenvalues --    3.55670   3.68204   3.69754   3.70248   3.70707
 Alpha virt. eigenvalues --    3.73124   3.73730   3.75156   3.76041   3.79144
 Alpha virt. eigenvalues --    3.79171
          Condensed to atoms (all electrons):
 Mulliken charges:
               1
     1  O   -0.352079
     2  H    0.184038
     3  C    0.012038
     4  H    0.037910
     5  C    0.000416
     6  H    0.043454
     7  O   -0.242461
     8  C    0.126142
     9  H    0.062345
    10  H    0.042361
    11  C    0.152381
    12  H    0.048380
    13  H    0.035232
    14  C   -0.091609
    15  C    0.307075
    16  O   -0.346800
    17  C   -0.087620
    18  C    0.304245
    19  O   -0.362095
    20  C    0.016409
    21  H    0.035065
    22  C   -0.002102
    23  H    0.042385
    24  O   -0.246057
    25  C    0.016312
    26  H    0.035051
    27  C   -0.002229
    28  H    0.042317
    29  O   -0.246083
    30  C    0.157994
    31  H    0.060492
    32  H    0.062408
    33  C   -0.087817
    34  C    0.304279
    35  C    0.158014
    36  H    0.060174
    37  H    0.062796
    38  O   -0.362167
    39  C   -0.091593
    40  C    0.306950
    41  O   -0.346867
    42  C    0.011968
    43  H    0.037967
    44  C    0.000531
    45  H    0.043828
    46  O   -0.242157
    47  C    0.152521
    48  H    0.035234
    49  H    0.048211
    50  C    0.126038
    51  H    0.042838
    52  H    0.062003
    53  O   -0.352184
    54  H    0.184121
 Sum of Mulliken charges =  -0.00000
 Mulliken charges with hydrogens summed into heavy atoms:
               1
     1  O   -0.168042
     3  C    0.049948
     5  C    0.043870
     7  O   -0.242461
     8  C    0.230848
    11  C    0.235993
    14  C   -0.091609
    15  C    0.307075
    16  O   -0.346800
    17  C   -0.087620
    18  C    0.304245
    19  O   -0.362095
    20  C    0.051473
    22  C    0.040283
    24  O   -0.246057
    25  C    0.051363
    27  C    0.040088
    29  O   -0.246083
    30  C    0.280894
    33  C   -0.087817
    34  C    0.304279
    35  C    0.280983
    38  O   -0.362167
    39  C   -0.091593
    40  C    0.306950
    41  O   -0.346867
    42  C    0.049936
    44  C    0.044358
    46  O   -0.242157
    47  C    0.235966
    50  C    0.230878
    53  O   -0.168062
 Electronic spatial extent (au):  <R**2>=          99077.9603
 Charge=             -0.0000 electrons
 Dipole moment (field-independent basis, Debye):
    X=              1.4957    Y=             -1.9018    Z=             -0.8203  Tot=              2.5548
 Quadrupole moment (field-independent basis, Debye-Ang):
   XX=           -199.8261   YY=           -185.8724   ZZ=           -192.9766
   XY=             16.7171   XZ=             14.6609   YZ=            -10.3725
 Traceless Quadrupole moment (field-independent basis, Debye-Ang):
   XX=             -6.9344   YY=              7.0193   ZZ=             -0.0849
   XY=             16.7171   XZ=             14.6609   YZ=            -10.3725
 Octapole moment (field-independent basis, Debye-Ang**2):
  XXX=           1557.5008  YYY=          -1062.0639  ZZZ=          -5093.3328  XYY=            454.1794
  XXY=           -483.9825  XXZ=          -1793.3887  XZZ=            682.4573  YZZ=           -412.6056
  YYZ=          -1560.4102  XYZ=            113.1395
 Hexadecapole moment (field-independent basis, Debye-Ang**3):
 XXXX=         -21616.5736 YYYY=          -7727.3427 ZZZZ=        -108506.6334 XXXY=            894.4997
 XXXZ=          16892.1953 YYYX=            334.5022 YYYZ=          -5716.3947 ZZZX=          17591.8750
 ZZZY=          -5857.6318 XXYY=          -4391.7802 XXZZ=         -22946.9537 YYZZ=         -17871.3002
 XXYZ=          -2859.2164 YYXZ=           4293.9645 ZZXY=           1130.1737
 N-N= 2.940634409550D+03 E-N=-9.620977829818D+03  KE= 1.588072154480D+03
 Unable to Open any file for archive entry.
 1\1\GINC-R4I7N5\Scan\RM062X\def2SVP\C22H22O10\HMAYES\27-Oct-2020\0\\# 
 m062x/Def2SVP nosymm scf=xqc opt=(modredundant,ReadFC) CPHF=Grid=Fine 
 guess=read geom=allcheck\\dimer from optimized trimer\\0,1\O,-2.860552
 5763,4.6973807697,-0.1602083167\H,-2.8900677022,3.8318079658,-0.581344
 5351\C,-0.6359779877,2.3801100374,7.5872105165\H,-0.8362108307,1.79357
 10283,8.4837609845\C,-1.4999048636,2.3454358659,6.4984672594\H,-2.4061
 691058,1.7385803031,6.5087331339\O,-3.1791931085,2.3604882051,4.221891
 7442\C,-2.6783857842,3.7719768259,2.0532198587\H,-3.6626417191,4.17514
 59933,2.3338212722\H,-2.8320799439,2.7341484132,1.7152307856\C,-2.0369
 720172,4.6198395638,0.9703539212\H,-1.9016453112,5.6433095044,1.347123
 2242\H,-1.032257676,4.220782212,0.7410148949\C,-1.2124485685,3.0988623
 588,5.3564474044\C,-2.1783786789,3.0240627014,4.2165610664\O,1.0208279
 407,2.6075281282,9.7553956588\C,0.5175145755,3.1694359942,7.5279640562
 \C,1.4834283303,3.2338853262,8.6670935611\O,-1.8069358595,3.7804494723
 ,3.176863035\C,-0.057412282,3.8852541017,5.2967924944\H,0.1513707224,4
 .4646816782,4.3982173364\C,0.809411004,3.9161918429,6.3836154904\H,1.7
 21250597,4.5143133947,6.3682493834\O,2.5519434835,3.7811245211,8.62354
 93156\C,-4.4622544895,-0.1404588932,12.7311431989\H,-5.1088845163,-0.7
 611137057,13.3503867765\C,-3.1341647674,0.0775659218,13.0806748724\H,-
 2.702743499,-0.3605063639,13.9814645803\O,-0.4430457833,0.7103377476,1
 3.7362929528\C,1.1523815343,2.0237342102,12.100389802\H,1.1591397233,2
 .7593001523,12.9180169776\H,1.6329842591,1.114491175,12.4862430517\C,-
 2.3226170832,0.8740159299,12.26852941\C,-0.9032619195,1.0799509177,12.
 690014875\C,1.8971570248,2.5635868204,10.8681658898\H,2.7576411693,1.9
 260103398,10.6176734573\H,2.2914216357,3.5717439838,11.0544131389\O,-7
 .0786029861,-0.5440100251,11.9822493221\C,-4.9766945481,0.4471474907,1
 1.5709236606\C,-6.398080694,0.2507604465,11.1477296493\O,-0.1914065486
 ,1.7288350623,11.7610454185\C,-2.8375682458,1.4655610478,11.1101126539
 \H,-2.191149584,2.0963681353,10.5000439251\C,-4.1668867367,1.251614776
 1,10.7636435744\H,-4.60265307,1.7004065952,9.8701016115\O,-6.885409296
 3,0.7455472068,10.1681347608\C,-8.9990408399,-1.7546691513,12.66990765
 41\H,-8.3899731289,-2.6767198146,12.6582023562\H,-8.9117406966,-1.3205
 511628,13.6757416889\C,-8.4431838228,-0.7734333303,11.654509498\H,-8.5
 127972164,-1.1710769466,10.6288695329\H,-9.0030793922,0.1731462476,11.
 6783717\O,-10.3587165771,-2.0000428999,12.4384732887\H,-10.4482625428,
 -2.4949581205,11.6171771764\\Version=ES64L-G16RevC.01\HF=-1602.0439488
 ,-1602.0436518,-1602.0428147,-1602.0416675,-1602.040516,-1602.0397234,
 -1602.039574,-1602.0401996,-1602.0414638,-1602.0430379,-1602.0444708,-
 1602.0453761,-1602.0454237,-1602.0444024,-1602.0423498,-1602.0396818,-
 1602.0369856,-1602.0348927,-1602.0338971\RMSD=5.610e-09,4.545e-09,7.07
 3e-09,9.797e-09,5.428e-09,3.483e-09,4.918e-09,5.710e-09,3.870e-09,4.14
 7e-09,9.095e-09,5.532e-09,9.121e-09,4.010e-09,8.971e-09,5.707e-09,3.82
 1e-09,8.544e-09,9.059e-09\PG=C01 [X(C22H22O10)]\\@
 The archive entry for this job was punched.


 NOTHING RESEMBLES A NEW PHENOMENON AS MUCH AS A MISTAKE.

                               -- ENRICO FERMI (?)
 Job cpu time:       1 days 19 hours 14 minutes 27.3 seconds.
 Elapsed time:       0 days  1 hours 13 minutes  3.3 seconds.
 File lengths (MBytes):  RWF=    205 Int=      0 D2E=      0 Chk=    102 Scr=      1
 Normal termination of Gaussian 16 at Tue Oct 27 16:34:29 2020.
