 Entering Gaussian System, Link 0=g16
 Initial command:
 /nopt/nrel/apps/gaussian/g16B/g16/l1.exe "/dev/shm/Gau-43987.inp" -scrdir="/dev/shm/"
 Default linda workers: r6i0n0
 Default is to use  36 SMP processors on each worker.
 Entering Link 1 = /nopt/nrel/apps/gaussian/g16B/g16/l1.exe PID=     43988.
  
 Copyright (c) 1988-2017, Gaussian, Inc.  All Rights Reserved.
  
 This is part of the Gaussian(R) 16 program.  It is based on
 the Gaussian(R) 09 system (copyright 2009, Gaussian, Inc.),
 the Gaussian(R) 03 system (copyright 2003, Gaussian, Inc.),
 the Gaussian(R) 98 system (copyright 1998, Gaussian, Inc.),
 the Gaussian(R) 94 system (copyright 1995, Gaussian, Inc.),
 the Gaussian 92(TM) system (copyright 1992, Gaussian, Inc.),
 the Gaussian 90(TM) system (copyright 1990, Gaussian, Inc.),
 the Gaussian 88(TM) system (copyright 1988, Gaussian, Inc.),
 the Gaussian 86(TM) system (copyright 1986, Carnegie Mellon
 University), and the Gaussian 82(TM) system (copyright 1983,
 Carnegie Mellon University). Gaussian is a federally registered
 trademark of Gaussian, Inc.
  
 This software contains proprietary and confidential information,
 including trade secrets, belonging to Gaussian, Inc.
  
 This software is provided under written license and may be
 used, copied, transmitted, or stored only in accord with that
 written license.
  
 The following legend is applicable only to US Government
 contracts under FAR:
  
                    RESTRICTED RIGHTS LEGEND
  
 Use, reproduction and disclosure by the US Government is
 subject to restrictions as set forth in subparagraphs (a)
 and (c) of the Commercial Computer Software - Restricted
 Rights clause in FAR 52.227-19.
  
 Gaussian, Inc.
 340 Quinnipiac St., Bldg. 40, Wallingford CT 06492
  
  
 ---------------------------------------------------------------
 Warning -- This program may not be used in any manner that
 competes with the business of Gaussian, Inc. or will provide
 assistance to any competitor of Gaussian, Inc.  The licensee
 of this program is prohibited from giving any competitor of
 Gaussian, Inc. access to this program.  By using this program,
 the user acknowledges that Gaussian, Inc. is engaged in the
 business of creating and licensing software in the field of
 computational chemistry and represents and warrants to the
 licensee that it is not a competitor of Gaussian, Inc. and that
 it will not use this program in any manner prohibited above.
 ---------------------------------------------------------------
  

 Cite this work as:
 Gaussian 16, Revision B.01,
 M. J. Frisch, G. W. Trucks, H. B. Schlegel, G. E. Scuseria, 
 M. A. Robb, J. R. Cheeseman, G. Scalmani, V. Barone, 
 G. A. Petersson, H. Nakatsuji, X. Li, M. Caricato, A. V. Marenich, 
 J. Bloino, B. G. Janesko, R. Gomperts, B. Mennucci, H. P. Hratchian, 
 J. V. Ortiz, A. F. Izmaylov, J. L. Sonnenberg, D. Williams-Young, 
 F. Ding, F. Lipparini, F. Egidi, J. Goings, B. Peng, A. Petrone, 
 T. Henderson, D. Ranasinghe, V. G. Zakrzewski, J. Gao, N. Rega, 
 G. Zheng, W. Liang, M. Hada, M. Ehara, K. Toyota, R. Fukuda, 
 J. Hasegawa, M. Ishida, T. Nakajima, Y. Honda, O. Kitao, H. Nakai, 
 T. Vreven, K. Throssell, J. A. Montgomery, Jr., J. E. Peralta, 
 F. Ogliaro, M. J. Bearpark, J. J. Heyd, E. N. Brothers, K. N. Kudin, 
 V. N. Staroverov, T. A. Keith, R. Kobayashi, J. Normand, 
 K. Raghavachari, A. P. Rendell, J. C. Burant, S. S. Iyengar, 
 J. Tomasi, M. Cossi, J. M. Millam, M. Klene, C. Adamo, R. Cammi, 
 J. W. Ochterski, R. L. Martin, K. Morokuma, O. Farkas, 
 J. B. Foresman, and D. J. Fox, Gaussian, Inc., Wallingford CT, 2016.
 
 ******************************************
 Gaussian 16:  ES64L-G16RevB.01 20-Dec-2017
                 1-Jul-2019 
 ******************************************
 %RWF=/dev/shm/,5GB,/tmp/scratch/925440/,-1
 %NoSave
 %OldChk=pet_mono_671.chk
 %Chk=/dev/shm/pet_mono_671_tzvp.chk
 SetLPE:    new flags="-opt 'Tsnet.Node.lindarsharg: ssh'  -nodelist 'r6i0n0.ib0.cm.hpc.nrel.gov' -env GAUSS_MDEF=9663676416 -env GAUSS_EXEDIR="/nopt/nrel/apps/gaussian/g16B/g16/bsd:/nopt/nrel/apps/gaussian/g16B/g16/local:/nopt/nrel/apps/gaussian/g16B/g16/extras:/nopt/nrel/apps/gaussian/g16B/g16""
 Will use up to    1 processors via Linda.
 Copying data from "pet_mono_671.chk" to current chk file "/dev/shm/pet_mono_671_tzvp.chk"
 IOpt=  2 FromEx=T IUOpen= 4 IOptOp= 5 NList=   0 IFRang= 0 IUIn= 4 IUOut= 2.
 Default route: CacheSize=180224 MaxDisk=256GB
 ----------------------------------------------------------------------
 # geom=allcheck guess=read m062x/Def2TZVP nosymm scf=xqc opt=ReadFC fr
 eq=NoRaman
 ----------------------------------------------------------------------
 1/4=180224,10=3,18=20,19=15,26=3,29=7,38=1/1,3;
 2/4=180224,9=110,12=2,15=1,40=1/2;
 3/4=180224,5=44,7=101,11=2,14=-4,25=1,30=1,71=1,74=-55,116=-2/1,2,3;
 4/4=180224,5=1/1;
 5/4=180224,5=2,8=3,13=1,38=6/2,8;
 6/4=180224,7=2,8=2,9=2,10=2,28=1/1;
 7/4=180224,30=1/1,2,3,16;
 1/4=180224,18=20,19=15,26=3/3(2);
 2/4=180224,9=110,15=1/2;
 99/4=180224/99;
 2/4=180224,9=110,15=1/2;
 3/4=180224,5=44,7=101,11=2,14=-2,25=1,30=1,71=1,74=-55/1,2,3;
 4/4=180224,5=5,16=3,69=1/1;
 5/4=180224,5=2,8=3,13=1,38=5/2,8;
 7/4=180224,30=1/1,2,3,16;
 1/4=180224,18=20,19=15,26=3/3(-5);
 2/4=180224,9=110,15=1/2;
 6/4=180224,7=2,8=2,9=2,10=2,19=2,28=1/1;
 99/4=180224,9=1/99;
 Structure from the checkpoint file:  "/dev/shm/pet_mono_671_tzvp.chk"
 --------------------------
 narrow results from confab
 --------------------------
 Charge =  0 Multiplicity = 1
 Redundant internal coordinates found in file.  (old form).
 O,0,0.3387214312,4.3077392607,-0.8423078064
 H,0,0.9466630505,3.6021979632,-0.5850542523
 C,0,-0.5201923268,2.5386287059,5.0089785788
 H,0,-0.658471421,1.5504295616,5.4485849936
 C,0,0.1913337313,2.716858405,3.8294373557
 H,0,0.6380069226,1.8751429027,3.2994365048
 O,0,1.6141952408,3.2079569374,1.4437988447
 C,0,1.9342313248,5.6496222216,0.4150502834
 H,0,2.7696183745,4.9379363278,0.3427373434
 H,0,2.3352067141,6.6681315332,0.4920602687
 C,0,1.0105007162,5.5311155017,-0.7852455769
 H,0,0.2423707219,6.3173326677,-0.7302896949
 H,0,1.6170492754,5.7280824777,-1.6909498066
 C,0,0.3441214794,4.0012743146,3.2981765597
 C,0,1.1207284345,4.1393396411,2.0291229355
 O,0,-2.2982657734,4.526904183,7.4681594541
 C,0,-1.0786369994,3.6449445804,5.6567177438
 C,0,-1.8317003347,3.4000602039,6.9237982134
 O,0,1.2250189625,5.4090480346,1.6280986416
 C,0,-0.215935051,5.1077355808,3.9437039853
 H,0,-0.0898701538,6.0999163941,3.512156004
 C,0,-0.9285900381,4.9292377457,5.1250309338
 H,0,-1.3745733013,5.7782015651,5.6416659463
 O,0,-1.9833250279,2.3070470143,7.4095756098
 C,0,-4.5144547438,4.1471647956,8.3798635932
 H,0,-4.9367168352,5.0194089966,7.8582831758
 H,0,-5.037905468,4.0617177695,9.3523689071
 C,0,-3.0464617567,4.4029823658,8.6753152753
 H,0,-2.6176240619,3.5899831113,9.2792743339
 H,0,-2.9222530488,5.3526361906,9.2108772851
 O,0,-4.723657536,3.0385427119,7.5562767559
 H,0,-4.1161325022,2.3336803348,7.8162976104
 Recover connectivity data from disk.

 GradGradGradGradGradGradGradGradGradGradGradGradGradGradGradGradGradGrad
 Berny optimization.
 Initialization pass.
 Force constant matrix read from checkpoint file:
 "/dev/shm/pet_mono_671_tzvp.chk"
                           ----------------------------
                           !    Initial Parameters    !
                           ! (Angstroms and Degrees)  !
 --------------------------                            --------------------------
 ! Name  Definition              Value          Derivative Info.                !
 --------------------------------------------------------------------------------
 ! R1    R(1,2)                  0.9662         D2E/DX2 =    0.5517             !
 ! R2    R(1,11)                 1.3969         D2E/DX2 =    0.4407             !
 ! R3    R(3,4)                  1.0904         D2E/DX2 =    0.3603             !
 ! R4    R(3,5)                  1.389          D2E/DX2 =    0.4851             !
 ! R5    R(3,17)                 1.3983         D2E/DX2 =    0.4688             !
 ! R6    R(5,6)                  1.0904         D2E/DX2 =    0.3584             !
 ! R7    R(5,14)                 1.3983         D2E/DX2 =    0.4735             !
 ! R8    R(7,15)                 1.2056         D2E/DX2 =    1.0531             !
 ! R9    R(8,9)                  1.0998         D2E/DX2 =    0.3478             !
 ! R10   R(8,10)                 1.0973         D2E/DX2 =    0.3456             !
 ! R11   R(8,11)                 1.5192         D2E/DX2 =    0.3195             !
 ! R12   R(8,19)                 1.4256         D2E/DX2 =    0.4403             !
 ! R13   R(11,12)                1.1005         D2E/DX2 =    0.3484             !
 ! R14   R(11,13)                1.1077         D2E/DX2 =    0.3439             !
 ! R15   R(14,15)                1.4942         D2E/DX2 =    0.336              !
 ! R16   R(14,20)                1.3981         D2E/DX2 =    0.4711             !
 ! R17   R(15,19)                1.3356         D2E/DX2 =    0.5656             !
 ! R18   R(16,18)                1.3356         D2E/DX2 =    0.5946             !
 ! R19   R(16,28)                1.4256         D2E/DX2 =    0.4345             !
 ! R20   R(17,18)                1.4942         D2E/DX2 =    0.3389             !
 ! R21   R(17,22)                1.3981         D2E/DX2 =    0.4754             !
 ! R22   R(18,24)                1.2057         D2E/DX2 =    1.0453             !
 ! R23   R(20,21)                1.0893         D2E/DX2 =    0.3584             !
 ! R24   R(20,22)                1.3911         D2E/DX2 =    0.4884             !
 ! R25   R(22,23)                1.0893         D2E/DX2 =    0.3577             !
 ! R26   R(25,26)                1.1005         D2E/DX2 =    0.3489             !
 ! R27   R(25,27)                1.1077         D2E/DX2 =    0.3432             !
 ! R28   R(25,28)                1.5191         D2E/DX2 =    0.3457             !
 ! R29   R(25,31)                1.3968         D2E/DX2 =    0.4371             !
 ! R30   R(28,29)                1.0998         D2E/DX2 =    0.3487             !
 ! R31   R(28,30)                1.0973         D2E/DX2 =    0.3461             !
 ! R32   R(31,32)                0.9662         D2E/DX2 =    0.553              !
 ! A1    A(2,1,11)             109.0295         D2E/DX2 =    0.1604             !
 ! A2    A(4,3,5)              121.5757         D2E/DX2 =    0.16               !
 ! A3    A(4,3,17)             118.6608         D2E/DX2 =    0.1599             !
 ! A4    A(5,3,17)             119.7635         D2E/DX2 =    0.2501             !
 ! A5    A(3,5,6)              121.5718         D2E/DX2 =    0.1602             !
 ! A6    A(3,5,14)             119.7664         D2E/DX2 =    0.2499             !
 ! A7    A(6,5,14)             118.6618         D2E/DX2 =    0.1601             !
 ! A8    A(9,8,10)             109.1282         D2E/DX2 =    0.1582             !
 ! A9    A(9,8,11)             111.0644         D2E/DX2 =    0.1551             !
 ! A10   A(9,8,19)             108.9426         D2E/DX2 =    0.165              !
 ! A11   A(10,8,11)            110.4896         D2E/DX2 =    0.169              !
 ! A12   A(10,8,19)            106.1831         D2E/DX2 =    0.1606             !
 ! A13   A(11,8,19)            110.8932         D2E/DX2 =    0.2608             !
 ! A14   A(1,11,8)             113.1418         D2E/DX2 =    0.2764             !
 ! A15   A(1,11,12)            106.9806         D2E/DX2 =    0.1649             !
 ! A16   A(1,11,13)            112.6856         D2E/DX2 =    0.16               !
 ! A17   A(8,11,12)            109.2203         D2E/DX2 =    0.155              !
 ! A18   A(8,11,13)            107.4088         D2E/DX2 =    0.1529             !
 ! A19   A(12,11,13)           107.2165         D2E/DX2 =    0.1592             !
 ! A20   A(5,14,15)            117.6675         D2E/DX2 =    0.2493             !
 ! A21   A(5,14,20)            120.5144         D2E/DX2 =    0.2503             !
 ! A22   A(15,14,20)           121.8181         D2E/DX2 =    0.2491             !
 ! A23   A(7,15,14)            123.6196         D2E/DX2 =    0.2535             !
 ! A24   A(7,15,19)            123.8258         D2E/DX2 =    0.2677             !
 ! A25   A(14,15,19)           112.5466         D2E/DX2 =    0.2588             !
 ! A26   A(18,16,28)           117.0729         D2E/DX2 =    0.4053             !
 ! A27   A(3,17,18)            117.6732         D2E/DX2 =    0.2486             !
 ! A28   A(3,17,22)            120.5141         D2E/DX2 =    0.2505             !
 ! A29   A(18,17,22)           121.8127         D2E/DX2 =    0.2501             !
 ! A30   A(16,18,17)           112.5458         D2E/DX2 =    0.266              !
 ! A31   A(16,18,24)           123.8292         D2E/DX2 =    0.3096             !
 ! A32   A(17,18,24)           123.6166         D2E/DX2 =    0.2648             !
 ! A33   A(8,19,15)            117.0495         D2E/DX2 =    0.3414             !
 ! A34   A(14,20,21)           119.4444         D2E/DX2 =    0.1598             !
 ! A35   A(14,20,22)           119.7195         D2E/DX2 =    0.2504             !
 ! A36   A(21,20,22)           120.8359         D2E/DX2 =    0.16               !
 ! A37   A(17,22,20)           119.7219         D2E/DX2 =    0.25               !
 ! A38   A(17,22,23)           119.448          D2E/DX2 =    0.1601             !
 ! A39   A(20,22,23)           120.83           D2E/DX2 =    0.1601             !
 ! A40   A(26,25,27)           107.2119         D2E/DX2 =    0.1596             !
 ! A41   A(26,25,28)           109.2375         D2E/DX2 =    0.1616             !
 ! A42   A(26,25,31)           106.9859         D2E/DX2 =    0.1615             !
 ! A43   A(27,25,28)           107.3904         D2E/DX2 =    0.1584             !
 ! A44   A(27,25,31)           112.6837         D2E/DX2 =    0.1575             !
 ! A45   A(28,25,31)           113.1448         D2E/DX2 =    0.271              !
 ! A46   A(16,28,25)           110.9229         D2E/DX2 =    0.2676             !
 ! A47   A(16,28,29)           108.9418         D2E/DX2 =    0.1641             !
 ! A48   A(16,28,30)           106.1791         D2E/DX2 =    0.1538             !
 ! A49   A(25,28,29)           111.0454         D2E/DX2 =    0.1567             !
 ! A50   A(25,28,30)           110.49           D2E/DX2 =    0.1537             !
 ! A51   A(29,28,30)           109.122          D2E/DX2 =    0.1592             !
 ! A52   A(25,31,32)           109.0357         D2E/DX2 =    0.1633             !
 ! D1    D(2,1,11,8)           -40.1839         D2E/DX2 =    0.0152             !
 ! D2    D(2,1,11,12)         -160.5045         D2E/DX2 =    0.0145             !
 ! D3    D(2,1,11,13)           81.9101         D2E/DX2 =    0.0163             !
 ! D4    D(4,3,5,6)             -0.0031         D2E/DX2 =    0.023              !
 ! D5    D(4,3,5,14)           179.9242         D2E/DX2 =    0.023              !
 ! D6    D(17,3,5,6)          -179.9263         D2E/DX2 =    0.023              !
 ! D7    D(17,3,5,14)            0.001          D2E/DX2 =    0.023              !
 ! D8    D(4,3,17,18)            0.2142         D2E/DX2 =    0.0219             !
 ! D9    D(4,3,17,22)         -179.8053         D2E/DX2 =    0.0219             !
 ! D10   D(5,3,17,18)         -179.8604         D2E/DX2 =    0.022              !
 ! D11   D(5,3,17,22)            0.1201         D2E/DX2 =    0.0219             !
 ! D12   D(3,5,14,15)          179.8684         D2E/DX2 =    0.0221             !
 ! D13   D(3,5,14,20)           -0.1202         D2E/DX2 =    0.0221             !
 ! D14   D(6,5,14,15)           -0.2022         D2E/DX2 =    0.0221             !
 ! D15   D(6,5,14,20)          179.8093         D2E/DX2 =    0.022              !
 ! D16   D(9,8,11,1)            66.2658         D2E/DX2 =    0.0085             !
 ! D17   D(9,8,11,12)         -174.6983         D2E/DX2 =    0.0095             !
 ! D18   D(9,8,11,13)          -58.7336         D2E/DX2 =    0.0074             !
 ! D19   D(10,8,11,1)         -172.4834         D2E/DX2 =    0.0085             !
 ! D20   D(10,8,11,12)         -53.4475         D2E/DX2 =    0.0066             !
 ! D21   D(10,8,11,13)          62.5172         D2E/DX2 =    0.0066             !
 ! D22   D(19,8,11,1)          -55.0244         D2E/DX2 =    0.0088             !
 ! D23   D(19,8,11,12)          64.0115         D2E/DX2 =    0.0065             !
 ! D24   D(19,8,11,13)         179.9762         D2E/DX2 =    0.0088             !
 ! D25   D(9,8,19,15)          -35.7405         D2E/DX2 =    0.0152             !
 ! D26   D(10,8,19,15)        -153.1495         D2E/DX2 =    0.0239             !
 ! D27   D(11,8,19,15)          86.7901         D2E/DX2 =    0.0415             !
 ! D28   D(5,14,15,7)            0.2169         D2E/DX2 =    0.018              !
 ! D29   D(5,14,15,19)        -178.7837         D2E/DX2 =    0.0169             !
 ! D30   D(20,14,15,7)        -179.7947         D2E/DX2 =    0.0175             !
 ! D31   D(20,14,15,19)          1.2047         D2E/DX2 =    0.0173             !
 ! D32   D(5,14,20,21)        -179.7343         D2E/DX2 =    0.022              !
 ! D33   D(5,14,20,22)           0.118          D2E/DX2 =    0.0221             !
 ! D34   D(15,14,20,21)          0.2776         D2E/DX2 =    0.022              !
 ! D35   D(15,14,20,22)       -179.87           D2E/DX2 =    0.022              !
 ! D36   D(7,15,19,8)            1.7874         D2E/DX2 =    0.0336             !
 ! D37   D(14,15,19,8)        -179.2144         D2E/DX2 =    0.0284             !
 ! D38   D(28,16,18,17)        179.31           D2E/DX2 =    0.0319             !
 ! D39   D(28,16,18,24)         -1.7121         D2E/DX2 =    0.0397             !
 ! D40   D(18,16,28,25)        -86.8086         D2E/DX2 =    0.0475             !
 ! D41   D(18,16,28,29)         35.7172         D2E/DX2 =    0.0166             !
 ! D42   D(18,16,28,30)        153.1164         D2E/DX2 =    0.0259             !
 ! D43   D(3,17,18,16)         178.8046         D2E/DX2 =    0.0177             !
 ! D44   D(3,17,18,24)          -0.1758         D2E/DX2 =    0.019              !
 ! D45   D(22,17,18,16)         -1.1757         D2E/DX2 =    0.0186             !
 ! D46   D(22,17,18,24)        179.8439         D2E/DX2 =    0.0182             !
 ! D47   D(3,17,22,20)          -0.1221         D2E/DX2 =    0.0221             !
 ! D48   D(3,17,22,23)         179.7315         D2E/DX2 =    0.022              !
 ! D49   D(18,17,22,20)        179.8576         D2E/DX2 =    0.0221             !
 ! D50   D(18,17,22,23)         -0.2888         D2E/DX2 =    0.0221             !
 ! D51   D(14,20,22,17)          0.003          D2E/DX2 =    0.0232             !
 ! D52   D(14,20,22,23)       -179.8486         D2E/DX2 =    0.0231             !
 ! D53   D(21,20,22,17)        179.8533         D2E/DX2 =    0.0231             !
 ! D54   D(21,20,22,23)          0.0017         D2E/DX2 =    0.0231             !
 ! D55   D(26,25,28,16)        -64.0075         D2E/DX2 =    0.007              !
 ! D56   D(26,25,28,29)        174.6959         D2E/DX2 =    0.0109             !
 ! D57   D(26,25,28,30)         53.4653         D2E/DX2 =    0.0069             !
 ! D58   D(27,25,28,16)       -179.9657         D2E/DX2 =    0.0116             !
 ! D59   D(27,25,28,29)         58.7377         D2E/DX2 =    0.0069             !
 ! D60   D(27,25,28,30)        -62.4929         D2E/DX2 =    0.0067             !
 ! D61   D(31,25,28,16)         55.0488         D2E/DX2 =    0.0156             !
 ! D62   D(31,25,28,29)        -66.2478         D2E/DX2 =    0.01               !
 ! D63   D(31,25,28,30)        172.5216         D2E/DX2 =    0.0076             !
 ! D64   D(26,25,31,32)        160.4051         D2E/DX2 =    0.0198             !
 ! D65   D(27,25,31,32)        -82.0128         D2E/DX2 =    0.0189             !
 ! D66   D(28,25,31,32)         40.0577         D2E/DX2 =    0.016              !
 --------------------------------------------------------------------------------
 Trust Radius=3.00D-01 FncErr=1.00D-07 GrdErr=1.00D-06 EigMax=2.50D+02 EigMin=1.00D-04
 Number of steps in this run=    160 maximum allowed number of steps=    192.
 GradGradGradGradGradGradGradGradGradGradGradGradGradGradGradGradGradGrad

                          Input orientation:                          
 ---------------------------------------------------------------------
 Center     Atomic      Atomic             Coordinates (Angstroms)
 Number     Number       Type             X           Y           Z
 ---------------------------------------------------------------------
      1          8           0        0.338721    4.307739   -0.842308
      2          1           0        0.946663    3.602198   -0.585054
      3          6           0       -0.520192    2.538629    5.008979
      4          1           0       -0.658471    1.550430    5.448585
      5          6           0        0.191334    2.716858    3.829437
      6          1           0        0.638007    1.875143    3.299437
      7          8           0        1.614195    3.207957    1.443799
      8          6           0        1.934231    5.649622    0.415050
      9          1           0        2.769618    4.937936    0.342737
     10          1           0        2.335207    6.668132    0.492060
     11          6           0        1.010501    5.531116   -0.785246
     12          1           0        0.242371    6.317333   -0.730290
     13          1           0        1.617049    5.728082   -1.690950
     14          6           0        0.344121    4.001274    3.298177
     15          6           0        1.120728    4.139340    2.029123
     16          8           0       -2.298266    4.526904    7.468159
     17          6           0       -1.078637    3.644945    5.656718
     18          6           0       -1.831700    3.400060    6.923798
     19          8           0        1.225019    5.409048    1.628099
     20          6           0       -0.215935    5.107736    3.943704
     21          1           0       -0.089870    6.099916    3.512156
     22          6           0       -0.928590    4.929238    5.125031
     23          1           0       -1.374573    5.778202    5.641666
     24          8           0       -1.983325    2.307047    7.409576
     25          6           0       -4.514455    4.147165    8.379864
     26          1           0       -4.936717    5.019409    7.858283
     27          1           0       -5.037905    4.061718    9.352369
     28          6           0       -3.046462    4.402982    8.675315
     29          1           0       -2.617624    3.589983    9.279274
     30          1           0       -2.922253    5.352636    9.210877
     31          8           0       -4.723658    3.038543    7.556277
     32          1           0       -4.116133    2.333680    7.816298
 ---------------------------------------------------------------------
                    Distance matrix (angstroms):
                    1          2          3          4          5
     1  O    0.000000
     2  H    0.966210   0.000000
     3  C    6.172928   5.880140   0.000000
     4  H    6.940640   6.571987   1.090373   0.000000
     5  C    4.937391   4.565313   1.389011   2.168955   0.000000
     6  H    4.812602   4.262306   2.168911   2.530837   1.090368
     7  O    2.839479   2.171928   4.208814   4.893948   2.820813
     8  C    2.434595   2.483434   6.066849   6.990133   4.826679
     9  H    2.776822   2.442982   6.193007   7.021160   4.872147
    10  H    3.367186   3.533862   6.753418   7.727879   5.598825
    11  C    1.396851   1.940328   6.698584   7.582346   5.466843
    12  H    2.015018   2.808750   6.913704   7.855786   5.810089
    13  H    2.090859   2.488334   7.722011   8.579262   6.447853
    14  C    4.151814   3.949911   2.411061   3.411171   1.398323
    15  C    2.980773   2.674461   3.759579   4.643353   2.475552
    16  O    8.721560   8.731489   3.627996   3.953101   4.765991
    17  C    6.684724   6.562270   1.398342   2.146358   2.411042
    18  C    8.114617   8.008934   2.475611   2.640805   3.759588
    19  O    2.846280   2.870581   4.766070   5.747398   3.627986
    20  C    4.884009   4.912019   2.797801   3.887793   2.428007
    21  H    4.728313   4.909188   3.886956   4.977037   3.409520
    22  C    6.132004   6.154891   2.428017   3.404996   2.797752
    23  H    6.865825   6.992508   3.409559   4.292335   3.886909
    24  O    8.802741   8.612569   2.820860   2.484591   4.208857
    25  C   10.422454  10.511448   5.468490   5.495820   6.700493
    26  H   10.199853  10.388099   5.811927   6.011975   6.915941
    27  H   11.528230  11.609418   6.449385   6.381657   7.723753
    28  C   10.102162  10.116360   4.826995   4.924565   6.067031
    29  H   10.568897  10.488530   4.872370   4.761537   6.193005
    30  H   10.620372  10.676742   5.598615   5.808298   6.752899
    31  O    9.888112   9.937380   4.940421   4.814830   6.176565
    32  H    9.935496   9.890589   4.566599   4.263211   5.881849
                    6          7          8          9         10
     6  H    0.000000
     7  O    2.484498   0.000000
     8  C    4.924081   2.668797   0.000000
     9  H    4.760939   2.353756   1.099817   0.000000
    10  H    5.808148   3.660392   1.097303   1.790136   0.000000
    11  C    5.494499   3.275691   1.519221   2.172257   2.163137
    12  H    6.010680   4.034449   2.149426   3.072638   2.448910
    13  H    6.380253   4.022150   2.131196   2.467515   2.482937
    14  C    2.146347   2.383518   3.682108   3.936368   4.353256
    15  C    2.640701   1.205648   2.355413   2.490079   3.198798
    16  O    5.747329   7.303417   8.301860   8.753516   8.644066
    17  C    3.411135   5.019063   6.369551   6.687248   6.889679
    18  C    4.643363   6.476225   7.848985   8.176036   8.331306
    19  O    3.953029   2.242817   1.425603   2.063949   2.026917
    20  C    3.404989   3.634290   4.167524   4.680739   4.566947
    21  H    4.292291   3.942762   3.727173   4.424035   3.914696
    22  C    3.887739   4.793750   5.558653   6.045424   5.927946
    23  H    4.976986   5.758557   6.187264   6.779308   6.408813
    24  O    4.893993   7.024549   8.685818   8.913599   9.247745
    25  C    7.584239   9.303304  10.357663  10.875589  10.746654
    26  H    7.857928   9.345663  10.149326  10.764649  10.481431
    27  H    8.581089  10.369418  11.445864  11.954022  11.817836
    28  C    6.990376   8.685887   9.725913  10.175697  10.052807
    29  H    7.021273   8.913412  10.175263  10.521457  10.546121
    30  H    7.727454   9.246974  10.051876  10.545771  10.265923
    31  O    6.944180   8.806785  10.106549  10.573175  10.625659
    32  H    6.573746   8.614508  10.118342  10.490463  10.679499
                   11         12         13         14         15
    11  C    0.000000
    12  H    1.100537   0.000000
    13  H    1.107699   1.777590   0.000000
    14  C    4.411214   4.647905   5.430800   0.000000
    15  C    3.141633   3.623468   4.075461   1.494215   0.000000
    16  O    8.948468   8.767841  10.033036   4.964600   6.436058
    17  C    7.030009   7.048445   8.099037   2.777396   4.270958
    18  C    8.488160   8.449693   9.566998   4.270924   5.763785
    19  O    2.425933   2.711563   3.357313   2.355200   1.335611
    20  C    4.903709   4.849679   5.957683   1.398079   2.527861
    21  H    4.472361   4.260986   5.488547   2.153703   2.740218
    22  C    6.249296   6.130476   7.319565   2.412117   3.795826
    23  H    6.859652   6.595983   7.919569   3.406365   4.686456
    24  O    9.301221   9.343100  10.367533   5.019065   6.476242
    25  C   10.790722  10.503900  11.896047   7.032111   8.490422
    26  H   10.504372  10.112919  11.603530   7.051129   8.452590
    27  H   11.895948  11.602979  13.000772   8.100809   9.568946
    28  C   10.355377  10.146258  11.443936   6.369540   7.849003
    29  H   10.873171  10.761477  11.951977   6.686900   8.175681
    30  H   10.743411  10.477227  11.815078   6.888789   8.330389
    31  O   10.424706  10.201916  11.530368   6.688845   8.118992
    32  H   10.511542  10.387983  11.609440   6.564157   8.011024
                   16         17         18         19         20
    16  O    0.000000
    17  C    2.355137   0.000000
    18  C    1.335586   1.494177   0.000000
    19  O    6.877356   4.964742   6.436148   0.000000
    20  C    4.134641   2.412142   3.795763   2.743933   0.000000
    21  H    4.795971   3.406419   4.686416   2.399147   1.089288
    22  C    2.743745   1.398075   2.527757   4.134826   1.391141
    23  H    2.398965   2.153739   2.740143   4.796131   2.162185
    24  O    2.242852   2.383472   1.205673   7.303517   4.793724
    25  C    2.426293   4.412776   3.142525   8.950991   6.251358
    26  H    2.712228   4.649820   3.624456   8.771203   6.133312
    27  H    3.357420   5.432066   4.076211  10.035132   7.321148
    28  C    1.425615   3.682239   2.355697   8.301866   5.558480
    29  H    2.063964   3.936295   2.490384   8.753022   6.044832
    30  H    2.026884   4.352836   3.198842   8.643008   5.926824
    31  O    2.847018   4.154783   2.982305   8.726359   6.136107
    32  H    2.869855   3.950896   2.674388   8.733819   6.156615
                   21         22         23         24         25
    21  H    0.000000
    22  C    2.162245   0.000000
    23  H    2.507743   1.089290   0.000000
    24  O    5.758551   3.634212   3.942714   0.000000
    25  C    6.861834   4.905507   4.474021   3.276295   0.000000
    26  H    6.599109   4.852204   4.263569   4.034944   1.100528
    27  H    7.921199   5.958981   5.489593   4.022907   1.107731
    28  C    6.187021   4.167355   3.726858   2.669326   1.519124
    29  H    6.778566   4.680190   4.423310   2.354577   2.171948
    30  H    6.407515   4.565972   3.913526   3.660859   2.163065
    31  O    6.870146   4.887558   4.731578   2.840076   1.396819
    32  H    6.994352   4.913274   4.910183   2.171405   1.940359
                   26         27         28         29         30
    26  H    0.000000
    27  H    1.777556   0.000000
    28  C    2.149555   2.130894   0.000000
    29  H    3.072567   2.466909   1.099835   0.000000
    30  H    2.449207   2.482433   1.097313   1.790090   0.000000
    31  O    2.015052   2.090834   2.434528   2.776362   3.367163
    32  H    2.808605   2.489035   2.482764   2.442156   3.533312
                   31         32
    31  O    0.000000
    32  H    0.966193   0.000000
 Symmetry turned off by external request.
 Stoichiometry    C12H14O6
 Framework group  C1[X(C12H14O6)]
 Deg. of freedom    90
 Full point group                 C1      NOp   1
 Rotational constants (GHZ):           1.2393058           0.1423162           0.1388805
 Standard basis: def2TZVP (5D, 7F)
   642 basis functions,  1030 primitive gaussians,   732 cartesian basis functions
    67 alpha electrons       67 beta electrons
       nuclear repulsion energy      1287.8356662747 Hartrees.
 NAtoms=   32 NActive=   32 NUniq=   32 SFac= 1.00D+00 NAtFMM=   60 NAOKFM=F Big=F
 Integral buffers will be    131072 words long.
 Raffenetti 2 integral format.
 Two-electron integral symmetry is turned off.
 One-electron integrals computed using PRISM.
   1 Symmetry operations used in ECPInt.
 ECPInt:  NShTT=   32385 NPrTT=   99228 LenC2=   26388 LenP2D=   58117.
 LDataN:  DoStor=T MaxTD1= 6 Len=  172
 NBasis=   642 RedAO= T EigKep=  7.54D-06  NBF=   642
 NBsUse=   642 1.00D-06 EigRej= -1.00D+00 NBFU=   642
 Initial guess from the checkpoint file:  "/dev/shm/pet_mono_671_tzvp.chk"
 B after Tr=     0.000000    0.000000    0.000000
         Rot=    1.000000    0.000000    0.000000    0.000000 Ang=   0.00 deg.
 Requested convergence on RMS density matrix=1.00D-08 within  32 cycles.
 Requested convergence on MAX density matrix=1.00D-06.
 Requested convergence on             energy=1.00D-06.
 No special actions if energy rises.
 SCF Done:  E(RM062X) =  -917.069528640     A.U. after   12 cycles
            NFock= 12  Conv=0.52D-08     -V/T= 2.0047
 QCSCF skips out because SCF is already converged.

 **********************************************************************

            Population analysis using the SCF Density.

 **********************************************************************

 Alpha  occ. eigenvalues --  -19.68676 -19.68674 -19.62894 -19.62892 -19.62394
 Alpha  occ. eigenvalues --  -19.62390 -10.68984 -10.68983 -10.60809 -10.60807
 Alpha  occ. eigenvalues --  -10.59440 -10.59439 -10.57675 -10.57673 -10.56811
 Alpha  occ. eigenvalues --  -10.56731 -10.56529 -10.56448  -1.25629  -1.25625
 Alpha  occ. eigenvalues --   -1.16076  -1.16072  -1.15090  -1.15089  -0.98920
 Alpha  occ. eigenvalues --   -0.90819  -0.87910  -0.86342  -0.85684  -0.78347
 Alpha  occ. eigenvalues --   -0.75530  -0.72011  -0.71112  -0.67365  -0.66304
 Alpha  occ. eigenvalues --   -0.64173  -0.62025  -0.60067  -0.59732  -0.59399
 Alpha  occ. eigenvalues --   -0.59139  -0.55948  -0.54718  -0.54681  -0.53625
 Alpha  occ. eigenvalues --   -0.53046  -0.52382  -0.51425  -0.50954  -0.50623
 Alpha  occ. eigenvalues --   -0.49804  -0.47993  -0.45334  -0.45221  -0.43799
 Alpha  occ. eigenvalues --   -0.43665  -0.43585  -0.43263  -0.41861  -0.39016
 Alpha  occ. eigenvalues --   -0.38881  -0.37355  -0.37070  -0.35145  -0.35132
 Alpha  occ. eigenvalues --   -0.33237  -0.32926
 Alpha virt. eigenvalues --   -0.05176   0.00321   0.03949   0.06585   0.07130
 Alpha virt. eigenvalues --    0.08884   0.09524   0.10011   0.10810   0.11240
 Alpha virt. eigenvalues --    0.11423   0.11485   0.11637   0.12693   0.13641
 Alpha virt. eigenvalues --    0.13645   0.14327   0.14568   0.15015   0.15227
 Alpha virt. eigenvalues --    0.16283   0.17761   0.18230   0.19044   0.19809
 Alpha virt. eigenvalues --    0.20728   0.21241   0.22187   0.22676   0.23594
 Alpha virt. eigenvalues --    0.24169   0.24230   0.25044   0.26235   0.26857
 Alpha virt. eigenvalues --    0.27331   0.27356   0.27487   0.28164   0.30176
 Alpha virt. eigenvalues --    0.30198   0.31140   0.31594   0.32739   0.33452
 Alpha virt. eigenvalues --    0.34152   0.35118   0.35323   0.36125   0.36668
 Alpha virt. eigenvalues --    0.37221   0.37601   0.37863   0.38147   0.39118
 Alpha virt. eigenvalues --    0.39247   0.39376   0.39521   0.40161   0.40379
 Alpha virt. eigenvalues --    0.41085   0.41503   0.42412   0.42853   0.43158
 Alpha virt. eigenvalues --    0.43670   0.43715   0.45324   0.46232   0.46464
 Alpha virt. eigenvalues --    0.46724   0.46744   0.47018   0.47669   0.48680
 Alpha virt. eigenvalues --    0.48861   0.49164   0.49733   0.50851   0.50979
 Alpha virt. eigenvalues --    0.51705   0.52582   0.53277   0.54244   0.54658
 Alpha virt. eigenvalues --    0.55174   0.55181   0.56834   0.57233   0.57668
 Alpha virt. eigenvalues --    0.60502   0.60822   0.61398   0.62805   0.63362
 Alpha virt. eigenvalues --    0.64021   0.65176   0.66195   0.66271   0.67144
 Alpha virt. eigenvalues --    0.69421   0.69699   0.70510   0.70829   0.71123
 Alpha virt. eigenvalues --    0.71453   0.72169   0.72660   0.73959   0.74255
 Alpha virt. eigenvalues --    0.75049   0.76069   0.76688   0.77154   0.78534
 Alpha virt. eigenvalues --    0.78553   0.78704   0.80560   0.80721   0.80947
 Alpha virt. eigenvalues --    0.82742   0.83629   0.84116   0.86786   0.88216
 Alpha virt. eigenvalues --    0.88229   0.89059   0.89251   0.89742   0.90160
 Alpha virt. eigenvalues --    0.90359   0.91094   0.91354   0.92100   0.92354
 Alpha virt. eigenvalues --    0.94478   0.95384   0.98271   0.99128   1.00178
 Alpha virt. eigenvalues --    1.00616   1.00698   1.01316   1.01862   1.03091
 Alpha virt. eigenvalues --    1.03803   1.06641   1.07182   1.09641   1.10045
 Alpha virt. eigenvalues --    1.11120   1.11611   1.12958   1.13823   1.14658
 Alpha virt. eigenvalues --    1.15478   1.16892   1.17512   1.17648   1.20669
 Alpha virt. eigenvalues --    1.21705   1.22794   1.24588   1.25740   1.26477
 Alpha virt. eigenvalues --    1.26870   1.27474   1.29876   1.30721   1.32776
 Alpha virt. eigenvalues --    1.32852   1.33281   1.34310   1.35709   1.37872
 Alpha virt. eigenvalues --    1.37966   1.41361   1.43106   1.43248   1.44571
 Alpha virt. eigenvalues --    1.46523   1.49309   1.51252   1.51385   1.51778
 Alpha virt. eigenvalues --    1.52509   1.53605   1.54449   1.54533   1.54899
 Alpha virt. eigenvalues --    1.55060   1.55411   1.57546   1.58791   1.59290
 Alpha virt. eigenvalues --    1.59824   1.60416   1.60917   1.62514   1.62521
 Alpha virt. eigenvalues --    1.62873   1.63611   1.64829   1.65019   1.66814
 Alpha virt. eigenvalues --    1.67031   1.68515   1.69978   1.71979   1.72237
 Alpha virt. eigenvalues --    1.74053   1.74267   1.74677   1.75681   1.76021
 Alpha virt. eigenvalues --    1.76228   1.78750   1.78763   1.80989   1.82684
 Alpha virt. eigenvalues --    1.83962   1.85858   1.85970   1.87152   1.88453
 Alpha virt. eigenvalues --    1.89321   1.89578   1.89651   1.90500   1.91020
 Alpha virt. eigenvalues --    1.92254   1.93140   1.93654   1.94266   1.97227
 Alpha virt. eigenvalues --    1.97472   1.99242   2.00544   2.00579   2.02324
 Alpha virt. eigenvalues --    2.02812   2.04461   2.04751   2.06113   2.06187
 Alpha virt. eigenvalues --    2.07755   2.09269   2.11007   2.14883   2.15068
 Alpha virt. eigenvalues --    2.16810   2.17083   2.18751   2.18781   2.20278
 Alpha virt. eigenvalues --    2.20321   2.22845   2.24487   2.25865   2.26634
 Alpha virt. eigenvalues --    2.28428   2.28732   2.29853   2.30295   2.32347
 Alpha virt. eigenvalues --    2.33249   2.33261   2.33293   2.34022   2.34109
 Alpha virt. eigenvalues --    2.35030   2.36600   2.37117   2.40976   2.41279
 Alpha virt. eigenvalues --    2.41561   2.42271   2.42343   2.42965   2.45206
 Alpha virt. eigenvalues --    2.46922   2.48648   2.49614   2.50188   2.50446
 Alpha virt. eigenvalues --    2.50880   2.53928   2.54141   2.54369   2.56263
 Alpha virt. eigenvalues --    2.56837   2.57816   2.59035   2.59086   2.59283
 Alpha virt. eigenvalues --    2.61070   2.62129   2.63543   2.64798   2.65961
 Alpha virt. eigenvalues --    2.66165   2.66963   2.67166   2.67955   2.68427
 Alpha virt. eigenvalues --    2.69793   2.70245   2.70993   2.71552   2.73352
 Alpha virt. eigenvalues --    2.74112   2.75290   2.75819   2.77410   2.78079
 Alpha virt. eigenvalues --    2.78256   2.79655   2.82447   2.82719   2.84189
 Alpha virt. eigenvalues --    2.84500   2.85259   2.87904   2.88472   2.89151
 Alpha virt. eigenvalues --    2.90462   2.90764   2.90982   2.91226   2.93170
 Alpha virt. eigenvalues --    2.94985   2.95668   2.96320   2.98511   2.98677
 Alpha virt. eigenvalues --    2.99918   3.00319   3.00716   3.02294   3.03133
 Alpha virt. eigenvalues --    3.03247   3.05101   3.05964   3.06835   3.06917
 Alpha virt. eigenvalues --    3.09738   3.10144   3.10395   3.10771   3.12469
 Alpha virt. eigenvalues --    3.12793   3.12826   3.13481   3.14652   3.14877
 Alpha virt. eigenvalues --    3.15726   3.15990   3.17977   3.18350   3.19748
 Alpha virt. eigenvalues --    3.20473   3.20953   3.22011   3.23008   3.23376
 Alpha virt. eigenvalues --    3.23751   3.24545   3.25519   3.25791   3.26324
 Alpha virt. eigenvalues --    3.27387   3.29379   3.29661   3.31190   3.31438
 Alpha virt. eigenvalues --    3.32417   3.33704   3.34476   3.34877   3.35186
 Alpha virt. eigenvalues --    3.36424   3.37189   3.37802   3.38105   3.39503
 Alpha virt. eigenvalues --    3.39552   3.39758   3.41095   3.41962   3.42454
 Alpha virt. eigenvalues --    3.45184   3.45820   3.46284   3.46610   3.47953
 Alpha virt. eigenvalues --    3.48745   3.49449   3.50355   3.51315   3.52538
 Alpha virt. eigenvalues --    3.53675   3.53730   3.55528   3.55745   3.57262
 Alpha virt. eigenvalues --    3.57977   3.59436   3.61285   3.63614   3.64907
 Alpha virt. eigenvalues --    3.65980   3.66707   3.70157   3.70787   3.76408
 Alpha virt. eigenvalues --    3.76653   3.78723   3.80112   3.80221   3.81823
 Alpha virt. eigenvalues --    3.83861   3.85995   3.86964   3.87770   3.89348
 Alpha virt. eigenvalues --    3.89916   3.92823   3.93503   3.94180   3.94527
 Alpha virt. eigenvalues --    3.96946   3.99282   3.99375   3.99650   4.00751
 Alpha virt. eigenvalues --    4.05596   4.06100   4.11924   4.13676   4.14387
 Alpha virt. eigenvalues --    4.14995   4.17437   4.18826   4.19184   4.19854
 Alpha virt. eigenvalues --    4.21977   4.23591   4.23830   4.27363   4.29775
 Alpha virt. eigenvalues --    4.31960   4.32558   4.33272   4.37387   4.38110
 Alpha virt. eigenvalues --    4.42915   4.42991   4.44313   4.47554   4.48025
 Alpha virt. eigenvalues --    4.49916   4.55018   4.58130   4.59660   4.60533
 Alpha virt. eigenvalues --    4.64002   4.64280   4.65042   4.67423   4.69861
 Alpha virt. eigenvalues --    4.74167   4.76501   4.80875   4.87516   4.89451
 Alpha virt. eigenvalues --    4.90767   4.92227   5.03500   5.03572   5.12804
 Alpha virt. eigenvalues --    5.17541   5.17799   5.19918   5.23672   5.26609
 Alpha virt. eigenvalues --    5.27519   5.28726   5.28988   5.31720   5.32237
 Alpha virt. eigenvalues --    5.35257   5.35261   5.37424   5.43564   5.46615
 Alpha virt. eigenvalues --    5.48327   5.49630   5.49972   5.50758   5.51084
 Alpha virt. eigenvalues --    5.58692   5.65522   5.69122   5.69736   5.70847
 Alpha virt. eigenvalues --    5.77005   5.77135   5.78457   5.78624   5.86521
 Alpha virt. eigenvalues --    5.90300   5.93314   5.93675   5.98668   5.99333
 Alpha virt. eigenvalues --    6.10875   6.13994   6.16797   6.17890   6.19696
 Alpha virt. eigenvalues --    6.26429   6.26582   6.31011   6.37893   6.38234
 Alpha virt. eigenvalues --    6.39709   6.41628   6.47384   6.47920   6.52197
 Alpha virt. eigenvalues --    6.57007   6.64343   6.64849   6.69665   6.70515
 Alpha virt. eigenvalues --    6.71049   6.74570   6.76754   6.77514   6.79301
 Alpha virt. eigenvalues --    6.79625   6.88860   6.91760   6.92243   6.93738
 Alpha virt. eigenvalues --    6.96180   6.96443   7.04554   7.06710   7.11828
 Alpha virt. eigenvalues --    7.13901   7.16376   7.16853   7.29642   7.33299
 Alpha virt. eigenvalues --    7.41008   7.44043  22.31998  22.53988  22.55111
 Alpha virt. eigenvalues --   22.58974  22.59360  22.77474  22.79636  22.83367
 Alpha virt. eigenvalues --   22.96831  23.35280  23.50828  23.63447  43.94877
 Alpha virt. eigenvalues --   43.95232  44.08114  44.11790  44.36059  44.43692
          Condensed to atoms (all electrons):
               1          2          3          4          5          6
     1  O    8.018697   0.302969   0.000009   0.000000   0.000023  -0.000067
     2  H    0.302969   0.393000  -0.000035  -0.000000   0.000231   0.000102
     3  C    0.000009  -0.000035   5.038640   0.401848   0.457657  -0.034458
     4  H    0.000000  -0.000000   0.401848   0.458904  -0.034450  -0.002231
     5  C    0.000023   0.000231   0.457657  -0.034450   5.038690   0.401839
     6  H   -0.000067   0.000102  -0.034458  -0.002231   0.401839   0.458913
     7  O   -0.020376   0.013784   0.001695  -0.000050   0.026974   0.013802
     8  C   -0.055303   0.011620  -0.000189  -0.000000  -0.001205  -0.000033
     9  H   -0.003614   0.002924  -0.000028  -0.000000  -0.000144   0.000022
    10  H    0.006011   0.000464  -0.000005   0.000000   0.000085   0.000001
    11  C    0.267610  -0.043720   0.000023   0.000000   0.000005  -0.000006
    12  H   -0.038721   0.009971  -0.000008  -0.000000   0.000041   0.000004
    13  H   -0.045289  -0.007544   0.000000  -0.000000   0.000002  -0.000002
    14  C   -0.001324   0.000293  -0.022042   0.004323   0.423188  -0.019430
    15  C    0.034778  -0.016668  -0.002622  -0.000229  -0.047168  -0.011573
    16  O    0.000000  -0.000000   0.006378   0.000660  -0.000268   0.000003
    17  C   -0.000010   0.000009   0.423137  -0.019455  -0.022049   0.004325
    18  C   -0.000000   0.000000  -0.047084  -0.011552  -0.002642  -0.000229
    19  O    0.002049  -0.000774  -0.000267   0.000003   0.006379   0.000660
    20  C   -0.000442  -0.000139  -0.045253  -0.000925  -0.051894   0.007352
    21  H   -0.000096   0.000012  -0.001330   0.000051   0.006449  -0.000171
    22  C    0.000074  -0.000022  -0.051875   0.007347  -0.045230  -0.000926
    23  H    0.000000  -0.000000   0.006448  -0.000171  -0.001330   0.000051
    24  O    0.000000  -0.000000   0.026995   0.013800   0.001691  -0.000050
    25  C    0.000000   0.000000   0.000005  -0.000006   0.000023   0.000000
    26  H   -0.000000   0.000000   0.000041   0.000004  -0.000008  -0.000000
    27  H    0.000000  -0.000000   0.000002  -0.000002   0.000000  -0.000000
    28  C   -0.000000  -0.000000  -0.001200  -0.000032  -0.000190  -0.000000
    29  H    0.000000   0.000000  -0.000144   0.000022  -0.000028  -0.000000
    30  H   -0.000000  -0.000000   0.000085   0.000001  -0.000005   0.000000
    31  O    0.000000   0.000000   0.000021  -0.000067   0.000009   0.000000
    32  H    0.000000  -0.000000   0.000231   0.000101  -0.000035  -0.000000
               7          8          9         10         11         12
     1  O   -0.020376  -0.055303  -0.003614   0.006011   0.267610  -0.038721
     2  H    0.013784   0.011620   0.002924   0.000464  -0.043720   0.009971
     3  C    0.001695  -0.000189  -0.000028  -0.000005   0.000023  -0.000008
     4  H   -0.000050  -0.000000  -0.000000   0.000000   0.000000  -0.000000
     5  C    0.026974  -0.001205  -0.000144   0.000085   0.000005   0.000041
     6  H    0.013802  -0.000033   0.000022   0.000001  -0.000006   0.000004
     7  O    7.958540   0.019736   0.003949   0.001670  -0.010194   0.000072
     8  C    0.019736   5.124879   0.444039   0.388151   0.312535  -0.032401
     9  H    0.003949   0.444039   0.503026  -0.018885  -0.058652   0.007801
    10  H    0.001670   0.388151  -0.018885   0.536710  -0.036350  -0.002798
    11  C   -0.010194   0.312535  -0.058652  -0.036350   4.790642   0.398842
    12  H    0.000072  -0.032401   0.007801  -0.002798   0.398842   0.579989
    13  H   -0.000409  -0.073566  -0.004833   0.003313   0.433936  -0.043699
    14  C   -0.138459   0.011041  -0.001841   0.002829  -0.002333  -0.000772
    15  C    0.596977  -0.073489  -0.023820   0.002747  -0.000768  -0.008331
    16  O    0.000000   0.000000   0.000000  -0.000000  -0.000000   0.000000
    17  C   -0.000141   0.000081   0.000008   0.000002  -0.000006   0.000003
    18  C   -0.000021   0.000000  -0.000000   0.000000   0.000000  -0.000000
    19  O   -0.083547   0.156867  -0.033884  -0.029226  -0.025525   0.002403
    20  C    0.004926  -0.000751   0.000753  -0.000719   0.000453   0.000175
    21  H    0.000352   0.000157   0.000224  -0.000197  -0.000103   0.000213
    22  C    0.000191  -0.000474  -0.000007  -0.000034   0.000018  -0.000008
    23  H    0.000004  -0.000004  -0.000001   0.000000   0.000000  -0.000001
    24  O    0.000000  -0.000000  -0.000000  -0.000000   0.000000   0.000000
    25  C    0.000000   0.000000  -0.000000  -0.000000  -0.000000  -0.000000
    26  H    0.000000  -0.000000   0.000000  -0.000000  -0.000000   0.000000
    27  H    0.000000  -0.000000  -0.000000  -0.000000   0.000000   0.000000
    28  C   -0.000000  -0.000000   0.000000   0.000000   0.000000  -0.000000
    29  H   -0.000000   0.000000   0.000000  -0.000000  -0.000000   0.000000
    30  H   -0.000000   0.000000  -0.000000   0.000000  -0.000000  -0.000000
    31  O    0.000000  -0.000000   0.000000  -0.000000   0.000000  -0.000000
    32  H   -0.000000  -0.000000   0.000000  -0.000000   0.000000   0.000000
              13         14         15         16         17         18
     1  O   -0.045289  -0.001324   0.034778   0.000000  -0.000010  -0.000000
     2  H   -0.007544   0.000293  -0.016668  -0.000000   0.000009   0.000000
     3  C    0.000000  -0.022042  -0.002622   0.006378   0.423137  -0.047084
     4  H   -0.000000   0.004323  -0.000229   0.000660  -0.019455  -0.011552
     5  C    0.000002   0.423188  -0.047168  -0.000268  -0.022049  -0.002642
     6  H   -0.000002  -0.019430  -0.011573   0.000003   0.004325  -0.000229
     7  O   -0.000409  -0.138459   0.596977   0.000000  -0.000141  -0.000021
     8  C   -0.073566   0.011041  -0.073489   0.000000   0.000081   0.000000
     9  H   -0.004833  -0.001841  -0.023820   0.000000   0.000008  -0.000000
    10  H    0.003313   0.002829   0.002747  -0.000000   0.000002   0.000000
    11  C    0.433936  -0.002333  -0.000768  -0.000000  -0.000006   0.000000
    12  H   -0.043699  -0.000772  -0.008331   0.000000   0.000003  -0.000000
    13  H    0.611027   0.000008   0.004812   0.000000  -0.000000  -0.000000
    14  C    0.000008   5.253125   0.290927   0.000335  -0.061444  -0.001424
    15  C    0.004812   0.290927   4.525126  -0.000007  -0.001425  -0.000993
    16  O    0.000000   0.000335  -0.000007   7.983615  -0.154795   0.386171
    17  C   -0.000000  -0.061444  -0.001425  -0.154795   5.253610   0.290636
    18  C   -0.000000  -0.001424  -0.000993   0.386171   0.290636   4.525195
    19  O    0.005485  -0.154706   0.386084   0.000000   0.000336  -0.000007
    20  C   -0.000020   0.423040  -0.052370   0.000036  -0.023860   0.007453
    21  H   -0.000003  -0.021106  -0.012498  -0.000075   0.005372  -0.000057
    22  C    0.000002  -0.023861   0.007456   0.030072   0.423173  -0.052325
    23  H    0.000000   0.005371  -0.000057   0.015998  -0.021069  -0.012501
    24  O    0.000000  -0.000140  -0.000021  -0.083563  -0.138549   0.596985
    25  C    0.000000  -0.000006   0.000000  -0.025460  -0.002340  -0.000767
    26  H    0.000000   0.000003  -0.000000   0.002390  -0.000770  -0.008334
    27  H   -0.000000  -0.000000  -0.000000   0.005481   0.000009   0.004822
    28  C   -0.000000   0.000082   0.000000   0.156867   0.011045  -0.073632
    29  H    0.000000   0.000008  -0.000000  -0.033920  -0.001844  -0.023805
    30  H   -0.000000   0.000002   0.000000  -0.029258   0.002832   0.002750
    31  O    0.000000  -0.000010  -0.000000   0.002057  -0.001272   0.034732
    32  H   -0.000000   0.000009   0.000000  -0.000778   0.000292  -0.016680
              19         20         21         22         23         24
     1  O    0.002049  -0.000442  -0.000096   0.000074   0.000000   0.000000
     2  H   -0.000774  -0.000139   0.000012  -0.000022  -0.000000  -0.000000
     3  C   -0.000267  -0.045253  -0.001330  -0.051875   0.006448   0.026995
     4  H    0.000003  -0.000925   0.000051   0.007347  -0.000171   0.013800
     5  C    0.006379  -0.051894   0.006449  -0.045230  -0.001330   0.001691
     6  H    0.000660   0.007352  -0.000171  -0.000926   0.000051  -0.000050
     7  O   -0.083547   0.004926   0.000352   0.000191   0.000004   0.000000
     8  C    0.156867  -0.000751   0.000157  -0.000474  -0.000004  -0.000000
     9  H   -0.033884   0.000753   0.000224  -0.000007  -0.000001  -0.000000
    10  H   -0.029226  -0.000719  -0.000197  -0.000034   0.000000  -0.000000
    11  C   -0.025525   0.000453  -0.000103   0.000018   0.000000   0.000000
    12  H    0.002403   0.000175   0.000213  -0.000008  -0.000001   0.000000
    13  H    0.005485  -0.000020  -0.000003   0.000002   0.000000   0.000000
    14  C   -0.154706   0.423040  -0.021106  -0.023861   0.005371  -0.000140
    15  C    0.386084  -0.052370  -0.012498   0.007456  -0.000057  -0.000021
    16  O    0.000000   0.000036  -0.000075   0.030072   0.015998  -0.083563
    17  C    0.000336  -0.023860   0.005372   0.423173  -0.021069  -0.138549
    18  C   -0.000007   0.007453  -0.000057  -0.052325  -0.012501   0.596985
    19  O    7.983592   0.030082   0.016002   0.000037  -0.000075   0.000000
    20  C    0.030082   5.057539   0.404065   0.439373  -0.037093   0.000191
    21  H    0.016002   0.404065   0.474784  -0.037073  -0.003396   0.000004
    22  C    0.000037   0.439373  -0.037073   5.057261   0.404055   0.004925
    23  H   -0.000075  -0.037093  -0.003396   0.404055   0.474775   0.000352
    24  O    0.000000   0.000191   0.000004   0.004925   0.000352   7.958584
    25  C   -0.000000   0.000018   0.000000   0.000455  -0.000102  -0.010184
    26  H    0.000000  -0.000008  -0.000001   0.000174   0.000211   0.000072
    27  H    0.000000   0.000002   0.000000  -0.000020  -0.000003  -0.000407
    28  C    0.000000  -0.000475  -0.000004  -0.000753   0.000158   0.019783
    29  H   -0.000000  -0.000007  -0.000001   0.000751   0.000224   0.003958
    30  H   -0.000000  -0.000034   0.000000  -0.000720  -0.000197   0.001667
    31  O    0.000000   0.000073   0.000000  -0.000438  -0.000095  -0.020366
    32  H   -0.000000  -0.000022  -0.000000  -0.000139   0.000012   0.013815
              25         26         27         28         29         30
     1  O    0.000000  -0.000000   0.000000  -0.000000   0.000000  -0.000000
     2  H    0.000000   0.000000  -0.000000  -0.000000   0.000000  -0.000000
     3  C    0.000005   0.000041   0.000002  -0.001200  -0.000144   0.000085
     4  H   -0.000006   0.000004  -0.000002  -0.000032   0.000022   0.000001
     5  C    0.000023  -0.000008   0.000000  -0.000190  -0.000028  -0.000005
     6  H    0.000000  -0.000000  -0.000000  -0.000000  -0.000000   0.000000
     7  O    0.000000   0.000000   0.000000  -0.000000  -0.000000  -0.000000
     8  C    0.000000  -0.000000  -0.000000  -0.000000   0.000000   0.000000
     9  H   -0.000000   0.000000  -0.000000   0.000000   0.000000  -0.000000
    10  H   -0.000000  -0.000000  -0.000000   0.000000  -0.000000   0.000000
    11  C   -0.000000  -0.000000   0.000000   0.000000  -0.000000  -0.000000
    12  H   -0.000000   0.000000   0.000000  -0.000000   0.000000  -0.000000
    13  H    0.000000   0.000000  -0.000000  -0.000000   0.000000  -0.000000
    14  C   -0.000006   0.000003  -0.000000   0.000082   0.000008   0.000002
    15  C    0.000000  -0.000000  -0.000000   0.000000  -0.000000   0.000000
    16  O   -0.025460   0.002390   0.005481   0.156867  -0.033920  -0.029258
    17  C   -0.002340  -0.000770   0.000009   0.011045  -0.001844   0.002832
    18  C   -0.000767  -0.008334   0.004822  -0.073632  -0.023805   0.002750
    19  O   -0.000000   0.000000   0.000000   0.000000  -0.000000  -0.000000
    20  C    0.000018  -0.000008   0.000002  -0.000475  -0.000007  -0.000034
    21  H    0.000000  -0.000001   0.000000  -0.000004  -0.000001   0.000000
    22  C    0.000455   0.000174  -0.000020  -0.000753   0.000751  -0.000720
    23  H   -0.000102   0.000211  -0.000003   0.000158   0.000224  -0.000197
    24  O   -0.010184   0.000072  -0.000407   0.019783   0.003958   0.001667
    25  C    4.790462   0.398859   0.433855   0.312529  -0.058710  -0.036374
    26  H    0.398859   0.580045  -0.043752  -0.032385   0.007806  -0.002789
    27  H    0.433855  -0.043752   0.611145  -0.073476  -0.004856   0.003304
    28  C    0.312529  -0.032385  -0.073476   5.125054   0.444078   0.388170
    29  H   -0.058710   0.007806  -0.004856   0.444078   0.502989  -0.018874
    30  H   -0.036374  -0.002789   0.003304   0.388170  -0.018874   0.536723
    31  O    0.267644  -0.038741  -0.045310  -0.055264  -0.003624   0.006012
    32  H   -0.043799   0.009969  -0.007518   0.011689   0.002918   0.000468
              31         32
     1  O    0.000000   0.000000
     2  H    0.000000  -0.000000
     3  C    0.000021   0.000231
     4  H   -0.000067   0.000101
     5  C    0.000009  -0.000035
     6  H    0.000000  -0.000000
     7  O    0.000000  -0.000000
     8  C   -0.000000  -0.000000
     9  H    0.000000   0.000000
    10  H   -0.000000  -0.000000
    11  C    0.000000   0.000000
    12  H   -0.000000   0.000000
    13  H    0.000000  -0.000000
    14  C   -0.000010   0.000009
    15  C   -0.000000   0.000000
    16  O    0.002057  -0.000778
    17  C   -0.001272   0.000292
    18  C    0.034732  -0.016680
    19  O    0.000000  -0.000000
    20  C    0.000073  -0.000022
    21  H    0.000000  -0.000000
    22  C   -0.000438  -0.000139
    23  H   -0.000095   0.000012
    24  O   -0.020366   0.013815
    25  C    0.267644  -0.043799
    26  H   -0.038741   0.009969
    27  H   -0.045310  -0.007518
    28  C   -0.055264   0.011689
    29  H   -0.003624   0.002918
    30  H    0.006012   0.000468
    31  O    8.018683   0.303008
    32  H    0.303008   0.392910
 Mulliken charges:
               1
     1  O   -0.466978
     2  H    0.333525
     3  C   -0.156674
     4  H    0.182105
     5  C   -0.156642
     6  H    0.182102
     7  O   -0.389476
     8  C   -0.231692
     9  H    0.182962
    10  H    0.146231
    11  C   -0.026405
    12  H    0.127224
    13  H    0.116779
    14  C    0.034317
    15  C    0.403132
    16  O   -0.261937
    17  C    0.034158
    18  C    0.403310
    19  O   -0.261967
    20  C   -0.161518
    21  H    0.168424
    22  C   -0.161458
    23  H    0.168436
    24  O   -0.389544
    25  C   -0.026101
    26  H    0.127214
    27  H    0.116724
    28  C   -0.232043
    29  H    0.183059
    30  H    0.146236
    31  O   -0.467052
    32  H    0.333549
 Sum of Mulliken charges =  -0.00000
 Mulliken charges with hydrogens summed into heavy atoms:
               1
     1  O   -0.133453
     3  C    0.025431
     5  C    0.025459
     7  O   -0.389476
     8  C    0.097501
    11  C    0.217598
    14  C    0.034317
    15  C    0.403132
    16  O   -0.261937
    17  C    0.034158
    18  C    0.403310
    19  O   -0.261967
    20  C    0.006905
    22  C    0.006977
    24  O   -0.389544
    25  C    0.217837
    28  C    0.097252
    31  O   -0.133503
 Electronic spatial extent (au):  <R**2>=          24555.5119
 Charge=             -0.0000 electrons
 Dipole moment (field-independent basis, Debye):
    X=              1.9762    Y=              3.6199    Z=              1.7305  Tot=              4.4726
 Quadrupole moment (field-independent basis, Debye-Ang):
   XX=           -110.7045   YY=            -69.9144   ZZ=            -80.0796
   XY=              5.1123   XZ=             -5.2634   YZ=             20.5968
 Traceless Quadrupole moment (field-independent basis, Debye-Ang):
   XX=            -23.8050   YY=             16.9851   ZZ=              6.8199
   XY=              5.1123   XZ=             -5.2634   YZ=             20.5968
 Octapole moment (field-independent basis, Debye-Ang**2):
  XXX=            298.0484  YYY=          -1030.4255  ZZZ=          -1029.2339  XYY=             92.2279
  XXY=           -413.6272  XXZ=           -477.0148  XZZ=             -5.7313  YZZ=           -222.1821
  YYZ=           -306.9262  XYZ=            -69.4958
 Hexadecapole moment (field-independent basis, Debye-Ang**3):
 XXXX=          -3318.5463 YYYY=          -9643.8807 ZZZZ=         -14197.3942 XXXY=            874.0055
 XXXZ=           3014.9493 YYYX=            803.0690 YYYZ=          -4218.7219 ZZZX=           1555.6084
 ZZZY=          -2950.9656 XXYY=          -2161.5821 XXZZ=          -3356.0855 YYZZ=          -3585.0203
 XXYZ=          -1590.4386 YYXZ=            431.5242 ZZXY=           -446.3527
 N-N= 1.287835666275D+03 E-N=-4.721392226856D+03  KE= 9.127794716798D+02
   1 Symmetry operations used in ECPInt.
 ECPInt:  NShTT=   32385 NPrTT=   99228 LenC2=   26388 LenP2D=   58117.
 LDataN:  DoStor=T MaxTD1= 7 Len=  274
 Calling FoFJK, ICntrl=      2127 FMM=F ISym2X=0 I1Cent= 0 IOpClX= 0 NMat=1 NMatS=1 NMatT=0.
 -------------------------------------------------------------------
 Center     Atomic                   Forces (Hartrees/Bohr)
 Number     Number              X              Y              Z
 -------------------------------------------------------------------
      1        8          -0.000235559   -0.004033062   -0.001722993
      2        1          -0.001771022    0.000649055   -0.000002166
      3        6          -0.000123171    0.000691194   -0.000040309
      4        1           0.000951418    0.005432555   -0.002740306
      5        6          -0.000189308    0.000675723    0.000048763
      6        1          -0.002641004    0.004528825    0.003231134
      7        8          -0.000359788    0.000575006    0.001609549
      8        6           0.006904926   -0.000209607   -0.003149707
      9        1          -0.004208501    0.003639991    0.000246889
     10        1          -0.002440889   -0.004959641   -0.000296612
     11        6           0.002394505    0.011565488   -0.002300991
     12        1           0.003166243   -0.004661307   -0.000248078
     13        1          -0.003239876   -0.002183271    0.004417851
     14        6          -0.002078426   -0.000687478    0.003770824
     15        6           0.000231970   -0.001686810    0.001022672
     16        8           0.001073935    0.001888601   -0.002309567
     17        6           0.002353182    0.000473750   -0.003653884
     18        6           0.001238346   -0.001483328   -0.000570534
     19        8          -0.001720304    0.001156680    0.002364673
     20        6           0.000242346   -0.000729859   -0.000333967
     21        1          -0.000988903   -0.005392175    0.002839782
     22        6          -0.000061417   -0.000818076    0.000214259
     23        1           0.002694863   -0.004462828   -0.003294571
     24        8           0.001163515    0.000975517   -0.000915130
     25        6          -0.002376175    0.010383456    0.005627128
     26        1           0.001910121   -0.004968640    0.001852721
     27        1           0.002571410   -0.000743654   -0.005278435
     28        6           0.000613659   -0.001815443    0.007349298
     29        1          -0.002272150    0.004124784   -0.002971886
     30        1          -0.000768185   -0.004540782   -0.003066585
     31        8          -0.001068922   -0.004241894   -0.000327590
     32        1          -0.000966839    0.000857232   -0.001372233
 -------------------------------------------------------------------
 Cartesian Forces:  Max     0.011565488 RMS     0.003119571

 GradGradGradGradGradGradGradGradGradGradGradGradGradGradGradGradGradGrad
 Berny optimization.
 FormGI is forming the generalized inverse of G from B-inverse, IUseBI=4.
 Internal  Forces:  Max     0.006869677 RMS     0.002347658
 Search for a local minimum.
 Step number   1 out of a maximum of  160
 All quantities printed in internal units (Hartrees-Bohrs-Radians)
 Mixed Optimization -- RFO/linear search
 Second derivative matrix not updated -- first step.
 ITU=  0
     Eigenvalues ---    0.00261   0.00441   0.00693   0.00771   0.00825
     Eigenvalues ---    0.01390   0.01707   0.01768   0.01859   0.01902
     Eigenvalues ---    0.02200   0.02226   0.02240   0.02247   0.02257
     Eigenvalues ---    0.02270   0.02274   0.03194   0.03854   0.05070
     Eigenvalues ---    0.05341   0.05495   0.05791   0.05844   0.05939
     Eigenvalues ---    0.06039   0.06368   0.06912   0.07496   0.11565
     Eigenvalues ---    0.11658   0.11704   0.11844   0.13180   0.14105
     Eigenvalues ---    0.14413   0.14872   0.15921   0.15995   0.16000
     Eigenvalues ---    0.16002   0.16024   0.16263   0.21366   0.22011
     Eigenvalues ---    0.22098   0.22989   0.23757   0.24098   0.24484
     Eigenvalues ---    0.24937   0.25109   0.25415   0.26136   0.27623
     Eigenvalues ---    0.28026   0.29853   0.32518   0.33432   0.34260
     Eigenvalues ---    0.34299   0.34519   0.34556   0.34580   0.34789
     Eigenvalues ---    0.34902   0.34906   0.35629   0.35796   0.35814
     Eigenvalues ---    0.35950   0.36933   0.39272   0.40058   0.43105
     Eigenvalues ---    0.43430   0.43740   0.44411   0.46291   0.47011
     Eigenvalues ---    0.47611   0.48159   0.49915   0.52548   0.55175
     Eigenvalues ---    0.55318   0.59695   0.67585   1.04772   1.05627
 RFO step:  Lambda=-2.32070013D-03 EMin= 2.60722146D-03
 Linear search not attempted -- first point.
 Iteration  1 RMS(Cart)=  0.01962736 RMS(Int)=  0.00026358
 Iteration  2 RMS(Cart)=  0.00037217 RMS(Int)=  0.00000675
 Iteration  3 RMS(Cart)=  0.00000031 RMS(Int)=  0.00000675
 Variable       Old X    -DE/DX   Delta X   Delta X   Delta X     New X
                                 (Linear)    (Quad)   (Total)
    R1        1.82587  -0.00159   0.00000  -0.00274  -0.00274   1.82313
    R2        2.63967   0.00400   0.00000   0.01005   0.01005   2.64972
    R3        2.06051  -0.00615   0.00000  -0.01664  -0.01664   2.04387
    R4        2.62485  -0.00687   0.00000  -0.01395  -0.01394   2.61091
    R5        2.64248  -0.00663   0.00000  -0.01447  -0.01447   2.62801
    R6        2.06050  -0.00615   0.00000  -0.01682  -0.01682   2.04368
    R7        2.64245  -0.00664   0.00000  -0.01321  -0.01321   2.62924
    R8        2.27834  -0.00137   0.00000  -0.00084  -0.00084   2.27750
    R9        2.07835  -0.00557   0.00000  -0.01627  -0.01627   2.06208
   R10        2.07360  -0.00552   0.00000  -0.01577  -0.01577   2.05783
   R11        2.87091  -0.00041   0.00000  -0.00644  -0.00644   2.86447
   R12        2.69400   0.00285   0.00000   0.00561   0.00561   2.69961
   R13        2.07971  -0.00555   0.00000  -0.01582  -0.01582   2.06390
   R14        2.09325  -0.00577   0.00000  -0.01632  -0.01632   2.07693
   R15        2.82366  -0.00233   0.00000  -0.00586  -0.00586   2.81780
   R16        2.64199  -0.00669   0.00000  -0.01362  -0.01362   2.62837
   R17        2.52394   0.00104   0.00000  -0.00092  -0.00092   2.52302
   R18        2.52389   0.00104   0.00000  -0.00021  -0.00021   2.52368
   R19        2.69402   0.00285   0.00000   0.00458   0.00458   2.69860
   R20        2.82359  -0.00232   0.00000  -0.00707  -0.00707   2.81651
   R21        2.64198  -0.00671   0.00000  -0.01302  -0.01302   2.62896
   R22        2.27839  -0.00140   0.00000  -0.00101  -0.00101   2.27739
   R23        2.05846  -0.00615   0.00000  -0.01730  -0.01730   2.04115
   R24        2.62887  -0.00667   0.00000  -0.01285  -0.01285   2.61602
   R25        2.05846  -0.00614   0.00000  -0.01709  -0.01709   2.04137
   R26        2.07970  -0.00555   0.00000  -0.01582  -0.01582   2.06388
   R27        2.09331  -0.00579   0.00000  -0.01680  -0.01680   2.07651
   R28        2.87073  -0.00038   0.00000  -0.00580  -0.00580   2.86493
   R29        2.63961   0.00399   0.00000   0.01039   0.01039   2.64999
   R30        2.07839  -0.00557   0.00000  -0.01637  -0.01637   2.06202
   R31        2.07362  -0.00551   0.00000  -0.01560  -0.01560   2.05802
   R32        1.82584  -0.00160   0.00000  -0.00269  -0.00269   1.82315
    A1        1.90292   0.00155   0.00000   0.00886   0.00886   1.91178
    A2        2.12190  -0.00040   0.00000  -0.00233  -0.00233   2.11957
    A3        2.07102   0.00030   0.00000   0.00231   0.00231   2.07333
    A4        2.09027   0.00010   0.00000   0.00002   0.00002   2.09029
    A5        2.12183  -0.00040   0.00000  -0.00302  -0.00302   2.11880
    A6        2.09032   0.00009   0.00000   0.00109   0.00109   2.09141
    A7        2.07104   0.00031   0.00000   0.00194   0.00194   2.07298
    A8        1.90465   0.00044   0.00000   0.00140   0.00140   1.90605
    A9        1.93844   0.00019   0.00000   0.00229   0.00228   1.94071
   A10        1.90141  -0.00084   0.00000   0.00063   0.00061   1.90202
   A11        1.92841  -0.00166   0.00000  -0.00384  -0.00383   1.92458
   A12        1.85324  -0.00102   0.00000  -0.00633  -0.00633   1.84692
   A13        1.93545   0.00283   0.00000   0.00550   0.00549   1.94094
   A14        1.97470   0.00272   0.00000   0.00367   0.00367   1.97836
   A15        1.86716  -0.00143   0.00000  -0.00192  -0.00194   1.86522
   A16        1.96673  -0.00155   0.00000  -0.01138  -0.01138   1.95535
   A17        1.90625   0.00017   0.00000   0.00497   0.00496   1.91121
   A18        1.87464  -0.00050   0.00000  -0.00037  -0.00037   1.87427
   A19        1.87128   0.00054   0.00000   0.00568   0.00566   1.87695
   A20        2.05368   0.00005   0.00000  -0.00044  -0.00044   2.05324
   A21        2.10337  -0.00016   0.00000  -0.00092  -0.00092   2.10246
   A22        2.12613   0.00011   0.00000   0.00136   0.00136   2.12748
   A23        2.15757  -0.00077   0.00000  -0.00368  -0.00368   2.15389
   A24        2.16117   0.00124   0.00000   0.00218   0.00218   2.16335
   A25        1.96431  -0.00047   0.00000   0.00152   0.00152   1.96583
   A26        2.04331   0.00091   0.00000  -0.00615  -0.00615   2.03716
   A27        2.05378   0.00003   0.00000   0.00047   0.00047   2.05425
   A28        2.10337  -0.00016   0.00000  -0.00058  -0.00058   2.10278
   A29        2.12603   0.00013   0.00000   0.00012   0.00012   2.12615
   A30        1.96429  -0.00049   0.00000  -0.00027  -0.00028   1.96401
   A31        2.16123   0.00126   0.00000   0.00233   0.00232   2.16354
   A32        2.15752  -0.00077   0.00000  -0.00192  -0.00193   2.15559
   A33        2.04290   0.00090   0.00000  -0.00417  -0.00417   2.03873
   A34        2.08470   0.00051   0.00000   0.00359   0.00359   2.08829
   A35        2.08950   0.00007   0.00000  -0.00022  -0.00022   2.08928
   A36        2.10899  -0.00058   0.00000  -0.00337  -0.00337   2.10562
   A37        2.08954   0.00006   0.00000   0.00062   0.00062   2.09016
   A38        2.08476   0.00052   0.00000   0.00308   0.00308   2.08784
   A39        2.10888  -0.00058   0.00000  -0.00370  -0.00370   2.10518
   A40        1.87120   0.00054   0.00000   0.00624   0.00619   1.87739
   A41        1.90655   0.00014   0.00000   0.00729   0.00728   1.91383
   A42        1.86726  -0.00143   0.00000  -0.00344  -0.00344   1.86381
   A43        1.87432  -0.00048   0.00000   0.00214   0.00211   1.87643
   A44        1.96670  -0.00159   0.00000  -0.01178  -0.01179   1.95492
   A45        1.97475   0.00277   0.00000   0.00045   0.00045   1.97520
   A46        1.93597   0.00282   0.00000   0.00155   0.00155   1.93752
   A47        1.90139  -0.00083   0.00000   0.00209   0.00209   1.90348
   A48        1.85318  -0.00102   0.00000  -0.00483  -0.00483   1.84834
   A49        1.93811   0.00021   0.00000   0.00115   0.00115   1.93926
   A50        1.92841  -0.00168   0.00000  -0.00152  -0.00152   1.92690
   A51        1.90454   0.00044   0.00000   0.00136   0.00136   1.90590
   A52        1.90303   0.00154   0.00000   0.00818   0.00818   1.91121
    D1       -0.70134   0.00055   0.00000   0.05479   0.05479  -0.64656
    D2       -2.80133  -0.00035   0.00000   0.04769   0.04770  -2.75363
    D3        1.42960   0.00077   0.00000   0.04838   0.04837   1.47797
    D4       -0.00005  -0.00000   0.00000   0.00071   0.00071   0.00065
    D5        3.14027  -0.00001   0.00000   0.00055   0.00055   3.14082
    D6       -3.14031   0.00000   0.00000   0.00151   0.00151  -3.13880
    D7        0.00002  -0.00000   0.00000   0.00135   0.00135   0.00137
    D8        0.00374  -0.00001   0.00000   0.00017   0.00017   0.00391
    D9       -3.13819   0.00002   0.00000   0.00020   0.00020  -3.13799
   D10       -3.13916  -0.00001   0.00000  -0.00061  -0.00062  -3.13977
   D11        0.00210   0.00002   0.00000  -0.00058  -0.00058   0.00152
   D12        3.13930   0.00002   0.00000   0.00132   0.00132   3.14062
   D13       -0.00210  -0.00001   0.00000  -0.00122  -0.00122  -0.00332
   D14       -0.00353   0.00002   0.00000   0.00117   0.00116  -0.00236
   D15        3.13826  -0.00002   0.00000  -0.00138  -0.00138   3.13689
   D16        1.15656   0.00033   0.00000  -0.01648  -0.01648   1.14008
   D17       -3.04906   0.00038   0.00000  -0.01318  -0.01317  -3.06223
   D18       -1.02510   0.00083   0.00000  -0.00410  -0.00409  -1.02919
   D19       -3.01040  -0.00012   0.00000  -0.01577  -0.01577  -3.02618
   D20       -0.93283  -0.00007   0.00000  -0.01247  -0.01247  -0.94530
   D21        1.09113   0.00038   0.00000  -0.00339  -0.00339   1.08774
   D22       -0.96036  -0.00066   0.00000  -0.02259  -0.02260  -0.98296
   D23        1.11721  -0.00061   0.00000  -0.01929  -0.01930   1.09792
   D24        3.14118  -0.00016   0.00000  -0.01022  -0.01022   3.13096
   D25       -0.62379   0.00065   0.00000   0.02728   0.02728  -0.59651
   D26       -2.67296   0.00111   0.00000   0.02872   0.02872  -2.64425
   D27        1.51477   0.00216   0.00000   0.03415   0.03415   1.54893
   D28        0.00379  -0.00023   0.00000   0.00263   0.00263   0.00642
   D29       -3.12036   0.00016   0.00000   0.00117   0.00117  -3.11919
   D30       -3.13801  -0.00019   0.00000   0.00521   0.00521  -3.13280
   D31        0.02103   0.00020   0.00000   0.00375   0.00375   0.02478
   D32       -3.13696   0.00002   0.00000   0.00125   0.00125  -3.13571
   D33        0.00206   0.00002   0.00000   0.00030   0.00030   0.00236
   D34        0.00485  -0.00002   0.00000  -0.00140  -0.00140   0.00344
   D35       -3.13932  -0.00002   0.00000  -0.00235  -0.00235   3.14151
   D36        0.03120   0.00076   0.00000  -0.01800  -0.01800   0.01320
   D37       -3.12788   0.00035   0.00000  -0.01660  -0.01660   3.13871
   D38        3.12955  -0.00037   0.00000   0.00201   0.00200   3.13155
   D39       -0.02988  -0.00079   0.00000   0.01031   0.01032  -0.01957
   D40       -1.51510  -0.00220   0.00000  -0.03757  -0.03757  -1.55266
   D41        0.62338  -0.00067   0.00000  -0.03371  -0.03370   0.58968
   D42        2.67239  -0.00113   0.00000  -0.03365  -0.03366   2.63873
   D43        3.12073  -0.00017   0.00000   0.00826   0.00825   3.12898
   D44       -0.00307   0.00022   0.00000  -0.00007  -0.00007  -0.00314
   D45       -0.02052  -0.00020   0.00000   0.00822   0.00822  -0.01230
   D46        3.13887   0.00018   0.00000  -0.00011  -0.00011   3.13876
   D47       -0.00213  -0.00001   0.00000  -0.00034  -0.00034  -0.00248
   D48        3.13691  -0.00002   0.00000  -0.00103  -0.00104   3.13587
   D49        3.13911   0.00002   0.00000  -0.00031  -0.00031   3.13880
   D50       -0.00504   0.00001   0.00000  -0.00100  -0.00100  -0.00604
   D51        0.00005  -0.00000   0.00000   0.00048   0.00048   0.00053
   D52       -3.13895   0.00000   0.00000   0.00117   0.00117  -3.13778
   D53        3.13903  -0.00000   0.00000  -0.00047  -0.00047   3.13856
   D54        0.00003   0.00000   0.00000   0.00022   0.00022   0.00025
   D55       -1.11714   0.00062   0.00000   0.01696   0.01697  -1.10017
   D56        3.04902  -0.00039   0.00000   0.01246   0.01247   3.06149
   D57        0.93315   0.00006   0.00000   0.01100   0.01101   0.94416
   D58       -3.14099   0.00017   0.00000   0.00467   0.00466  -3.13633
   D59        1.02517  -0.00083   0.00000   0.00017   0.00016   1.02533
   D60       -1.09071  -0.00039   0.00000  -0.00129  -0.00130  -1.09201
   D61        0.96078   0.00068   0.00000   0.01790   0.01790   0.97869
   D62       -1.15624  -0.00033   0.00000   0.01340   0.01340  -1.14284
   D63        3.01107   0.00012   0.00000   0.01193   0.01194   3.02301
   D64        2.79960   0.00037   0.00000  -0.02137  -0.02138   2.77822
   D65       -1.43139  -0.00077   0.00000  -0.02255  -0.02255  -1.45395
   D66        0.69914  -0.00051   0.00000  -0.02839  -0.02838   0.67076
         Item               Value     Threshold  Converged?
 Maximum Force            0.006870     0.000450     NO 
 RMS     Force            0.002348     0.000300     NO 
 Maximum Displacement     0.082149     0.001800     NO 
 RMS     Displacement     0.019731     0.001200     NO 
 Predicted change in Energy=-1.189989D-03
 GradGradGradGradGradGradGradGradGradGradGradGradGradGradGradGradGradGrad

                          Input orientation:                          
 ---------------------------------------------------------------------
 Center     Atomic      Atomic             Coordinates (Angstroms)
 Number     Number       Type             X           Y           Z
 ---------------------------------------------------------------------
      1          8           0        0.341136    4.322022   -0.885779
      2          1           0        0.920130    3.608464   -0.591910
      3          6           0       -0.503605    2.547735    5.019523
      4          1           0       -0.628957    1.567647    5.459418
      5          6           0        0.199779    2.725352    3.843679
      6          1           0        0.648045    1.889811    3.323577
      7          8           0        1.604200    3.203166    1.457917
      8          6           0        1.928589    5.637222    0.417659
      9          1           0        2.748116    4.919832    0.350906
     10          1           0        2.338479    6.642200    0.506180
     11          6           0        1.019932    5.545355   -0.792131
     12          1           0        0.258836    6.326693   -0.736702
     13          1           0        1.635113    5.744623   -1.680832
     14          6           0        0.339584    4.001323    3.306870
     15          6           0        1.109255    4.137092    2.036992
     16          8           0       -2.300993    4.526436    7.457634
     17          6           0       -1.069030    3.645975    5.658399
     18          6           0       -1.815769    3.402010    6.924990
     19          8           0        1.204408    5.404074    1.626803
     20          6           0       -0.227397    5.100216    3.943650
     21          1           0       -0.115383    6.084193    3.512460
     22          6           0       -0.933117    4.922040    5.121194
     23          1           0       -1.382486    5.764648    5.626176
     24          8           0       -1.954617    2.310065    7.415643
     25          6           0       -4.514628    4.158876    8.382288
     26          1           0       -4.930793    5.025299    7.863711
     27          1           0       -5.030466    4.071399    9.348577
     28          6           0       -3.044721    4.394051    8.669509
     29          1           0       -2.623838    3.577621    9.258542
     30          1           0       -2.908150    5.331150    9.207317
     31          8           0       -4.745150    3.045938    7.560877
     32          1           0       -4.133501    2.338473    7.797863
 ---------------------------------------------------------------------
                    Distance matrix (angstroms):
                    1          2          3          4          5
     1  O    0.000000
     2  H    0.964758   0.000000
     3  C    6.223687   5.885606   0.000000
     4  H    6.984926   6.571391   1.081569   0.000000
     5  C    4.993707   4.579655   1.381632   2.153531   0.000000
     6  H    4.871193   4.284721   2.152997   2.509251   1.081470
     7  O    2.887921   2.198639   4.190164   4.865585   2.809371
     8  C    2.438997   2.480338   6.052904   6.965760   4.817196
     9  H    2.771339   2.439287   6.164132   6.981308   4.848631
    10  H    3.363057   3.524354   6.724013   7.687088   5.572669
    11  C    1.402169   1.949768   6.714330   7.590973   5.487787
    12  H    2.011891   2.801257   6.927913   7.863117   5.826923
    13  H    2.080931   2.502024   7.725863   8.576497   6.457274
    14  C    4.204897   3.961295   2.399389   3.390326   1.391334
    15  C    3.027672   2.688185   3.744712   4.619137   2.466632
    16  O    8.754152   8.718570   3.618045   3.942462   4.749572
    17  C    6.728438   6.559308   1.390683   2.133706   2.398047
    18  C    8.155169   8.001972   2.466245   2.630839   3.743632
    19  O    2.868648   2.868399   4.752529   5.724363   3.619305
    20  C    4.924653   4.910544   2.783694   3.864950   2.415047
    21  H    4.760060   4.903813   3.863741   4.945057   3.389815
    22  C    6.169884   6.148135   2.414983   3.385093   2.782253
    23  H    6.888948   6.972501   3.389541   4.267368   3.862406
    24  O    8.844890   8.606446   2.811283   2.476969   4.191994
    25  C   10.464327  10.505987   5.476520   5.509634   6.699223
    26  H   10.239210  10.379703   5.816160   6.020114   6.911814
    27  H   11.561098  11.594705   6.446296   6.384952   7.711758
    28  C   10.137690  10.105002   4.815449   4.912144   6.049791
    29  H   10.594926  10.468622   4.850292   4.738447   6.166029
    30  H   10.651140  10.660592   5.573764   5.779742   6.724434
    31  O    9.942068   9.943831   4.969647   4.852270   6.194567
    32  H    9.968074   9.876252   4.575927   4.283028   5.878993
                    6          7          8          9         10
     6  H    0.000000
     7  O    2.473826   0.000000
     8  C    4.911948   2.666832   0.000000
     9  H    4.735831   2.341145   1.091206   0.000000
    10  H    5.777585   3.643066   1.088957   1.777207   0.000000
    11  C    5.517278   3.299991   1.515813   2.164356   2.151104
    12  H    6.026879   4.047566   2.143828   3.059194   2.443198
    13  H    6.393589   4.038775   2.121633   2.459068   2.466453
    14  C    2.133989   2.378011   3.680848   3.922041   4.337474
    15  C    2.630263   1.205203   2.354556   2.478191   3.182757
    16  O    5.721804   7.279985   8.287608   8.726617   8.621129
    17  C    3.388783   4.998628   6.357368   6.660540   6.865409
    18  C    4.618149   6.451714   7.833374   8.145638   8.304079
    19  O    3.941906   2.243291   1.428574   2.060446   2.018631
    20  C    3.384905   3.623867   4.167645   4.668407   4.558249
    21  H    4.267475   3.934264   3.735692   4.421628   3.920527
    22  C    3.863406   4.776202   5.551944   6.025540   5.912753
    23  H    4.943620   5.732004   6.173176   6.753078   6.389839
    24  O    4.867799   6.996950   8.667240   8.879025   9.216222
    25  C    7.575777   9.289798  10.350645  10.854934  10.731498
    26  H    7.846498   9.330622  10.142448  10.743324  10.468521
    27  H    8.561860  10.345779  11.429853  11.924105  11.793997
    28  C    6.963241   8.662432   9.714541  10.150496  10.033591
    29  H    6.984105   8.880668  10.155183  10.488345  10.517607
    30  H    7.688155   9.216442  10.037221  10.516584  10.244791
    31  O    6.955422   8.808240  10.113313  10.566182  10.624484
    32  H    6.563819   8.594407  10.104360  10.463137  10.657262
                   11         12         13         14         15
    11  C    0.000000
    12  H    1.092167   0.000000
    13  H    1.099065   1.767576   0.000000
    14  C    4.432688   4.665227   5.440097   0.000000
    15  C    3.161506   3.634687   4.084470   1.491113   0.000000
    16  O    8.951277   8.771590  10.024393   4.947447   6.415976
    17  C    7.041359   7.060226   8.098210   2.764082   4.254493
    18  C    8.496417   8.459273   9.563294   4.253883   5.743574
    19  O    2.430069   2.707672   3.352898   2.353350   1.335123
    20  C    4.917480   4.862753   5.959782   1.390871   2.519840
    21  H    4.484283   4.272497   5.490886   2.141871   2.732756
    22  C    6.258621   6.140745   7.317103   2.399845   3.781499
    23  H    6.856703   6.595154   7.905610   3.384379   4.662613
    24  O    9.310350   9.353792  10.364758   5.000573   6.454087
    25  C   10.803872  10.518620  11.899591   7.024817   8.478875
    26  H   10.516900  10.128819  11.607189   7.042031   8.439298
    27  H   11.900161  11.609304  12.995287   8.083599   9.547763
    28  C   10.361927  10.155068  11.439162   6.353397   7.830187
    29  H   10.870375  10.759745  11.937522   6.662116   8.148606
    30  H   10.745449  10.483531  11.805252   6.865237   8.305353
    31  O   10.452560  10.230008  11.549885   6.698049   8.122684
    32  H   10.518079  10.394101  11.607085   6.553059   7.994321
                   16         17         18         19         20
    16  O    0.000000
    17  C    2.351636   0.000000
    18  C    1.335472   1.490434   0.000000
    19  O    6.859787   4.951080   6.418763   0.000000
    20  C    4.120328   2.400734   3.780902   2.740470   0.000000
    21  H    4.771571   3.385174   4.661629   2.400024   1.080131
    22  C    2.736154   1.391187   2.518580   4.124577   1.384340
    23  H    2.393963   2.141977   2.730698   4.776716   2.146298
    24  O    2.243667   2.378409   1.205141   7.284436   4.777339
    25  C    2.426987   4.422080   3.159177   8.938370   6.242433
    26  H    2.707325   4.656088   3.635882   8.756893   6.123269
    27  H    3.351530   5.430597   4.081193  10.013764   7.303504
    28  C    1.428040   3.678282   2.353256   8.287035   5.547046
    29  H    2.061006   3.922133   2.475737   8.731256   6.025719
    30  H    2.019305   4.337856   3.181806   8.624537   5.911510
    31  O    2.859448   4.182503   3.018677   8.727616   6.141212
    32  H    2.874200   3.959527   2.695348   8.716259   6.143275
                   21         22         23         24         25
    21  H    0.000000
    22  C    2.146465   0.000000
    23  H    2.485046   1.080245   0.000000
    24  O    5.732510   3.623586   3.932387   0.000000
    25  C    6.839256   4.903506   4.470455   3.302448   0.000000
    26  H    6.575927   4.849069   4.259540   4.053503   1.092156
    27  H    7.891112   5.948330   5.480066   4.037249   1.098843
    28  C    6.167070   4.162713   3.728731   2.665240   1.516057
    29  H    6.752237   4.667295   4.417931   2.334701   2.163508
    30  H    6.387332   4.556811   3.916649   3.639543   2.153060
    31  O    6.859696   4.899328   4.737295   2.889581   1.402315
    32  H    6.967092   4.907325   4.901325   2.212337   1.949533
                   26         27         28         29         30
    26  H    0.000000
    27  H    1.767679   0.000000
    28  C    2.145938   2.123304   0.000000
    29  H    3.059962   2.458411   1.091174   0.000000
    30  H    2.447428   2.472075   1.089056   1.777166   0.000000
    31  O    2.010981   2.080588   2.436787   2.768523   3.362667
    32  H    2.803399   2.492448   2.484071   2.438884   3.527628
                   31         32
    31  O    0.000000
    32  H    0.964771   0.000000
 Symmetry turned off by external request.
 Stoichiometry    C12H14O6
 Framework group  C1[X(C12H14O6)]
 Deg. of freedom    90
 Full point group                 C1      NOp   1
 Rotational constants (GHZ):           1.2366583           0.1422657           0.1388111
 Standard basis: def2TZVP (5D, 7F)
   642 basis functions,  1030 primitive gaussians,   732 cartesian basis functions
    67 alpha electrons       67 beta electrons
       nuclear repulsion energy      1288.5950209751 Hartrees.
 NAtoms=   32 NActive=   32 NUniq=   32 SFac= 1.00D+00 NAtFMM=   60 NAOKFM=F Big=F
 Integral buffers will be    131072 words long.
 Raffenetti 2 integral format.
 Two-electron integral symmetry is turned off.
