 Entering Gaussian System, Link 0=g16
 Initial command:
 /nopt/nrel/apps/gaussian/g16B/g16/l1.exe "/dev/shm/Gau-3711.inp" -scrdir="/dev/shm/"
 Default linda workers: r6i0n0
 Default is to use  36 SMP processors on each worker.
 Entering Link 1 = /nopt/nrel/apps/gaussian/g16B/g16/l1.exe PID=      3712.
...
 
 ******************************************
 Gaussian 16:  ES64L-G16RevB.01 20-Dec-2017
                 1-Jul-2019 
 ******************************************
 Route card not found.
 Error termination via Lnk1e in /nopt/nrel/apps/gaussian/g16B/g16/l1.exe at Mon Jul  1 10:10:51 2019.
 Job cpu time:       0 days  0 hours  0 minutes  0.9 seconds.
 Elapsed time:       0 days  0 hours  0 minutes  0.0 seconds.
 File lengths (MBytes):  RWF=      0 Int=      0 D2E=      0 Chk=      0 Scr=      0
