 Entering Gaussian System, Link 0=g16
 Initial command:
 /nopt/nrel/apps/gaussian/g16C_1/g16/l1.exe "/dev/shm/Gau-89272.inp" -scrdir="/dev/shm/"
 Default is to use a total of  36 processors:
                               36 via shared-memory
                                1 via Linda
 Entering Link 1 = /nopt/nrel/apps/gaussian/g16C_1/g16/l1.exe PID=     89273.
  
 Copyright (c) 1988-2019, Gaussian, Inc.  All Rights Reserved.
...
 ******************************************
 Gaussian 16:  ES64L-G16RevC.01  3-Jul-2019
                 3-Nov-2020 
 ******************************************
 %RWF=/dev/shm/,5GB,/scratch/hmayes/prop_acetate_8_4982488/,-1
 %NoSave
 %OldChk=prop_acetate_8.chk
 %Chk=/dev/shm/prop_acetate_8.chk
 %CPU=0-35
 SetSPE:  set environment variable "MP_BIND" = "yes"
 SetSPE:  set environment variable "MP_BLIST" = "0,1,2,3,4,5,6,7,8,9,10,11,12,13,14,15,16,17,18,19,20,21,22,23,24,25,26,27,28,29,30,31,32,33,34,35"
 Will use up to   36 processors via shared memory.
 %Mem=72948012KB
 Copying data from "prop_acetate_8.chk" to current chk file "/dev/shm/prop_acetate_8.chk"
 IOpt=  2 FromEx=T IUOpen= 4 IOptOp= 5 NList=   0 IFRang= 0 IUIn= 4 IUOut= 2.
 Default route: CacheSize=180224 MaxDisk=256GB
 ----------------------------------------------------------------------
 # geom=allcheck guess=read m062x/Def2TZVP nosymm scf=xqc opt=ReadFC fr
 eq=NoRaman SCRF=(Solvent=AceticAcid,Read) CPHF=Grid=Fine
 ----------------------------------------------------------------------
 1/4=180224,10=3,18=20,19=15,26=3,29=7,38=1,40=2/1,3;
 2/4=180224,9=110,12=2,15=1,40=1/2;
 3/4=180224,5=44,7=101,11=2,14=-4,25=1,30=1,70=2203,71=1,72=81,74=-55,116=-2/1,2,3;
 4/4=180224,5=1/1;
 5/4=180224,5=2,8=3,13=1,38=6,53=81/2,8;
 6/4=180224,7=2,8=2,9=2,10=2,28=1/1;
 7/4=180224,30=1/1,2,3,16;
 1/4=180224,18=20,19=15,26=3/3(2);
 2/4=180224,9=110,15=1/2;
 99/4=180224/99;
 2/4=180224,9=110,15=1/2;
 3/4=180224,5=44,7=101,11=2,14=-2,25=1,30=1,70=2205,71=1,72=81,74=-55/1,2,3;
 4/4=180224,5=5,16=3,69=1/1;
 5/4=180224,5=2,8=3,13=1,38=5,53=81/2,8;
 7/4=180224,30=1/1,2,3,16;
 1/4=180224,18=20,19=15,26=3/3(-5);
 2/4=180224,9=110,15=1/2;
 6/4=180224,7=2,8=2,9=2,10=2,19=2,28=1/1;
 99/4=180224,9=1/99;
 Structure from the checkpoint file:  "/dev/shm/prop_acetate_8.chk"
 --------------------
 For bde calculations
 --------------------
 Charge =  0 Multiplicity = 1
 Redundant internal coordinates found in file.  (old form).
 C,0,-12.2691069346,-0.6694828648,0.8031229194
 H,0,-12.2921385278,-1.7588292133,0.8204432897
 H,0,-12.8123255591,-0.2985690778,-0.0599207763
 H,0,-12.7320126243,-0.3136072257,1.7227716878
 C,0,-10.8445781212,-0.2033314432,0.7427419533
 O,0,-10.3630460431,0.4510979633,-0.1469251248
 O,0,-10.1498019557,-0.6069763366,1.8096459844
 C,0,-8.7656464744,-0.2236863819,1.8550455045
 H,0,-8.7038586514,0.8650227778,1.7989793488
 H,0,-8.260878849,-0.6398124676,0.9825913594
 C,0,-8.1811171496,-0.7457399753,3.1477536306
 H,0,-8.2882652815,-1.8325353177,3.1710942684
 H,0,-7.1100134622,-0.5329336999,3.1307929349
 C,0,-8.8213609633,-0.1216132549,4.3808545596
 H,0,-8.3639620994,-0.5019172498,5.293896224
 H,0,-8.7019200418,0.9635794562,4.3703051967
 H,0,-9.8879672617,-0.3426656887,4.4198070398
 Recover connectivity data from disk.

 GradGradGradGradGradGradGradGradGradGradGradGradGradGradGradGradGradGrad
 Berny optimization.
 Initialization pass.
 Force constant matrix read from checkpoint file:
 "/dev/shm/prop_acetate_8.chk"
                           ----------------------------
                           !    Initial Parameters    !
                           ! (Angstroms and Degrees)  !
 --------------------------                            --------------------------
 ! Name  Definition              Value          Derivative Info.                !
 --------------------------------------------------------------------------------
 ! R1    R(1,2)                  1.0897         D2E/DX2 =    0.3482             !
 ! R2    R(1,3)                  1.0851         D2E/DX2 =    0.3585             !
 ! R3    R(1,4)                  1.0893         D2E/DX2 =    0.349              !
 ! R4    R(1,5)                  1.5001         D2E/DX2 =    0.3045             !
 ! R5    R(5,6)                  1.2048         D2E/DX2 =    0.8579             !
 ! R6    R(5,7)                  1.3356         D2E/DX2 =    0.4333             !
 ! R7    R(7,8)                  1.437          D2E/DX2 =    0.3225             !
 ! R8    R(8,9)                  1.0919         D2E/DX2 =    0.3394             !
 ! R9    R(8,10)                 1.0905         D2E/DX2 =    0.3421             !
 ! R10   R(8,11)                 1.5117         D2E/DX2 =    0.3073             !
 ! R11   R(11,12)                1.0923         D2E/DX2 =    0.3385             !
 ! R12   R(11,13)                1.0922         D2E/DX2 =    0.339              !
 ! R13   R(11,14)                1.5231         D2E/DX2 =    0.2973             !
 ! R14   R(14,15)                1.0897         D2E/DX2 =    0.3457             !
 ! R15   R(14,16)                1.0918         D2E/DX2 =    0.3409             !
 ! R16   R(14,17)                1.09           D2E/DX2 =    0.3456             !
 ! A1    A(2,1,3)              110.1059         D2E/DX2 =    0.0528             !
 ! A2    A(2,1,4)              107.7084         D2E/DX2 =    0.0514             !
 ! A3    A(2,1,5)              109.351          D2E/DX2 =    0.0995             !
 ! A4    A(3,1,4)              110.3068         D2E/DX2 =    0.0531             !
 ! A5    A(3,1,5)              109.7038         D2E/DX2 =    0.1048             !
 ! A6    A(4,1,5)              109.6334         D2E/DX2 =    0.1                !
 ! A7    A(1,5,6)              125.3132         D2E/DX2 =    0.1606             !
 ! A8    A(1,5,7)              111.5874         D2E/DX2 =    0.1735             !
 ! A9    A(6,5,7)              123.0992         D2E/DX2 =    0.2181             !
 ! A10   A(5,7,8)              116.4677         D2E/DX2 =    0.3078             !
 ! A11   A(7,8,9)              108.5929         D2E/DX2 =    0.063              !
 ! A12   A(7,8,10)             108.5912         D2E/DX2 =    0.0646             !
 ! A13   A(7,8,11)             107.9001         D2E/DX2 =    0.1733             !
 ! A14   A(9,8,10)             108.2529         D2E/DX2 =    0.0294             !
 ! A15   A(9,8,11)             111.491          D2E/DX2 =    0.0678             !
 ! A16   A(10,8,11)            111.9251         D2E/DX2 =    0.0677             !
 ! A17   A(8,11,12)            108.9011         D2E/DX2 =    0.0505             !
 ! A18   A(8,11,13)            107.3758         D2E/DX2 =    0.0479             !
 ! A19   A(8,11,14)            112.8455         D2E/DX2 =    0.1398             !
 ! A20   A(12,11,13)           106.8816         D2E/DX2 =    0.0179             !
 ! A21   A(12,11,14)           110.4359         D2E/DX2 =    0.0473             !
 ! A22   A(13,11,14)           110.1797         D2E/DX2 =    0.0462             !
 ! A23   A(11,14,15)           111.0313         D2E/DX2 =    0.1                !
 ! A24   A(11,14,16)           110.7            D2E/DX2 =    0.1028             !
 ! A25   A(11,14,17)           110.926          D2E/DX2 =    0.1023             !
 ! A26   A(15,14,16)           108.0025         D2E/DX2 =    0.05               !
 ! A27   A(15,14,17)           108.0606         D2E/DX2 =    0.0503             !
 ! A28   A(16,14,17)           107.9977         D2E/DX2 =    0.0503             !
 ! D1    D(2,1,5,6)            118.8607         D2E/DX2 =    0.0154             !
 ! D2    D(2,1,5,7)            -60.9714         D2E/DX2 =    0.0174             !
 ! D3    D(3,1,5,6)             -1.9879         D2E/DX2 =    0.0185             !
 ! D4    D(3,1,5,7)            178.1801         D2E/DX2 =    0.0173             !
 ! D5    D(4,1,5,6)           -123.2626         D2E/DX2 =    0.0154             !
 ! D6    D(4,1,5,7)             56.9053         D2E/DX2 =    0.0175             !
 ! D7    D(1,5,7,8)            179.6358         D2E/DX2 =    0.0168             !
 ! D8    D(6,5,7,8)             -0.2006         D2E/DX2 =    0.0169             !
 ! D9    D(5,7,8,9)             57.5692         D2E/DX2 =    0.023              !
 ! D10   D(5,7,8,10)           -59.9345         D2E/DX2 =    0.0223             !
 ! D11   D(5,7,8,11)           178.5564         D2E/DX2 =    0.0173             !
 ! D12   D(7,8,11,12)           59.3642         D2E/DX2 =    0.0171             !
 ! D13   D(7,8,11,13)          174.7534         D2E/DX2 =    0.0172             !
 ! D14   D(7,8,11,14)          -63.6417         D2E/DX2 =    0.0172             !
 ! D15   D(9,8,11,12)          178.5254         D2E/DX2 =    0.0161             !
 ! D16   D(9,8,11,13)          -66.0854         D2E/DX2 =    0.0163             !
 ! D17   D(9,8,11,14)           55.5195         D2E/DX2 =    0.0154             !
 ! D18   D(10,8,11,12)         -60.0526         D2E/DX2 =    0.0161             !
 ! D19   D(10,8,11,13)          55.3366         D2E/DX2 =    0.0157             !
 ! D20   D(10,8,11,14)         176.9415         D2E/DX2 =    0.0162             !
 ! D21   D(8,11,14,15)        -178.7605         D2E/DX2 =    0.0137             !
 ! D22   D(8,11,14,16)         -58.8098         D2E/DX2 =    0.0133             !
 ! D23   D(8,11,14,17)          61.0656         D2E/DX2 =    0.0135             !
 ! D24   D(12,11,14,15)         59.0923         D2E/DX2 =    0.0141             !
 ! D25   D(12,11,14,16)        179.0429         D2E/DX2 =    0.0141             !
 ! D26   D(12,11,14,17)        -61.0816         D2E/DX2 =    0.0148             !
 ! D27   D(13,11,14,15)        -58.7546         D2E/DX2 =    0.0142             !
 ! D28   D(13,11,14,16)         61.1961         D2E/DX2 =    0.0148             !
 ! D29   D(13,11,14,17)       -178.9285         D2E/DX2 =    0.014              !
 --------------------------------------------------------------------------------
 Trust Radius=3.00D-01 FncErr=1.00D-07 GrdErr=1.00D-06 EigMax=2.50D+02 EigMin=1.00D-04
 Number of steps in this run=     83 maximum allowed number of steps=    102.
 GradGradGradGradGradGradGradGradGradGradGradGradGradGradGradGradGradGrad

                          Input orientation:                          
 ---------------------------------------------------------------------
 Center     Atomic      Atomic             Coordinates (Angstroms)
 Number     Number       Type             X           Y           Z
 ---------------------------------------------------------------------
      1          6           0      -12.269107   -0.669483    0.803123
      2          1           0      -12.292139   -1.758829    0.820443
      3          1           0      -12.812326   -0.298569   -0.059921
      4          1           0      -12.732013   -0.313607    1.722772
      5          6           0      -10.844578   -0.203331    0.742742
      6          8           0      -10.363046    0.451098   -0.146925
      7          8           0      -10.149802   -0.606976    1.809646
      8          6           0       -8.765646   -0.223686    1.855046
      9          1           0       -8.703859    0.865023    1.798979
     10          1           0       -8.260879   -0.639812    0.982591
     11          6           0       -8.181117   -0.745740    3.147754
     12          1           0       -8.288265   -1.832535    3.171094
     13          1           0       -7.110013   -0.532934    3.130793
     14          6           0       -8.821361   -0.121613    4.380855
     15          1           0       -8.363962   -0.501917    5.293896
     16          1           0       -8.701920    0.963579    4.370305
     17          1           0       -9.887967   -0.342666    4.419807
 ---------------------------------------------------------------------
                    Distance matrix (angstroms):
                    1          2          3          4          5
     1  C    0.000000
     2  H    1.089727   0.000000
     3  H    1.085130   1.782693   0.000000
     4  H    1.089350   1.759646   1.784564   0.000000
     5  C    1.500075   2.126274   2.127291   2.129561   0.000000
     6  O    2.406525   3.088847   2.562916   3.113285   1.204848
     7  O    2.347009   2.625813   3.267939   2.600274   1.335637
     8  C    3.685039   3.982865   4.477534   3.969590   2.357878
     9  H    4.007173   4.551690   4.657140   4.197738   2.615282
    10  H    4.012354   4.186830   4.681767   4.543711   2.631263
    11  C    4.713255   4.831482   5.651303   4.788315   3.629368
    12  H    4.775676   4.643489   5.767116   4.914435   3.884062
    13  H    5.661531   5.804736   6.538497   5.799785   4.445042
    14  C    4.998728   5.234816   5.973240   4.732384   4.163646
    15  H    5.953594   6.084585   6.963666   5.645198   5.191880
    16  H    5.302500   5.736087   6.173763   4.988215   4.371714
    17  H    4.342469   4.554226   5.349932   3.919622   3.802016
                    6          7          8          9         10
     6  O    0.000000
     7  O    2.234539   0.000000
     8  C    2.648567   1.436962   0.000000
     9  H    2.590517   2.063407   1.091901   0.000000
    10  H    2.623928   2.062311   1.090471   1.768403   0.000000
    11  C    4.128940   2.384430   1.511724   2.164950   2.169219
    12  H    4.530888   2.611677   2.132668   3.054871   2.492566
    13  H    4.721650   3.315302   2.112886   2.503668   2.439402
    14  C    4.817217   2.934527   2.528485   2.766467   3.482939
    15  H    5.874275   3.916665   3.473393   3.768090   4.314741
    16  H    4.840180   3.334664   2.782120   2.573215   3.773856
    17  H    4.659485   2.636543   2.802100   3.119193   3.814468
                   11         12         13         14         15
    11  C    0.000000
    12  H    1.092314   0.000000
    13  H    1.092171   1.754670   0.000000
    14  C    1.523149   2.162167   2.158830   0.000000
    15  H    2.167674   2.506504   2.500473   1.089720   0.000000
    16  H    2.165096   3.070419   2.511993   1.091797   1.764913
    17  H    2.166547   2.517547   3.068352   1.089968   1.764082
                   16         17
    16  H    0.000000
    17  H    1.765059   0.000000
 Symmetry turned off by external request.
 Stoichiometry    C5H10O2
 Framework group  C1[X(C5H10O2)]
 Deg. of freedom    45
 Full point group                 C1      NOp   1
 Rotational constants (GHZ):           5.7060679           1.3936216           1.2161699
 Standard basis: def2TZVP (5D, 7F)
   277 basis functions,   437 primitive gaussians,   312 cartesian basis functions
    28 alpha electrons       28 beta electrons
       nuclear repulsion energy       314.7540934937 Hartrees.
 NAtoms=   17 NActive=   17 NUniq=   17 SFac= 1.00D+00 NAtFMM=   60 NAOKFM=F Big=F
 Integral buffers will be    131072 words long.
 Raffenetti 2 integral format.
 Two-electron integral symmetry is turned off.
 Using the following non-standard input for PCM:
 PDENS=7.0
 --- end of non-standard input.
 ------------------------------------------------------------------------------
 Polarizable Continuum Model (PCM)
 =================================
 Model                : PCM.
 Atomic radii         : UFF (Universal Force Field).
 Polarization charges : Total charges.
 Charge compensation  : None.
 Solution method      : On-the-fly selection.
 Cavity type          : Scaled VdW (van der Waals Surface) (Alpha=1.100).
 Cavity algorithm     : GePol (No added spheres)
                        Default sphere list used, NSphG=   17.
                        Lebedev-Laikov grids with approx.  7.0 points / Ang**2.
                        Smoothing algorithm: York/Karplus (Gamma=1.0000).
                        Polarization charges: spherical gaussians, with
                                              point-specific exponents (IZeta= 3).
                        Self-potential: point-specific (ISelfS= 7).
                        Self-field    : sphere-specific E.n sum rule (ISelfD= 2).
 1st derivatives      : Analytical E(r).r(x)/FMM algorithm (CHGder, D1EAlg=3).
                        Cavity 1st derivative terms included.
 Solvent              : AceticAcid, Eps=   6.252800 Eps(inf)=   1.882384
 ------------------------------------------------------------------------------
 Spheres list:
 ISph  on   Nord     Re0    Alpha      Xe            Ye            Ze
    1   C      1    1.9255  1.100    -12.269107     -0.669483      0.803123
    2   H      2    1.4430  1.100    -12.292139     -1.758829      0.820443
    3   H      3    1.4430  1.100    -12.812326     -0.298569     -0.059921
    4   H      4    1.4430  1.100    -12.732013     -0.313607      1.722772
    5   C      5    1.9255  1.100    -10.844578     -0.203331      0.742742
    6   O      6    1.7500  1.100    -10.363046      0.451098     -0.146925
    7   O      7    1.7500  1.100    -10.149802     -0.606976      1.809646
    8   C      8    1.9255  1.100     -8.765646     -0.223686      1.855046
    9   H      9    1.4430  1.100     -8.703859      0.865023      1.798979
   10   H     10    1.4430  1.100     -8.260879     -0.639812      0.982591
   11   C     11    1.9255  1.100     -8.181117     -0.745740      3.147754
   12   H     12    1.4430  1.100     -8.288265     -1.832535      3.171094
   13   H     13    1.4430  1.100     -7.110013     -0.532934      3.130793
   14   C     14    1.9255  1.100     -8.821361     -0.121613      4.380855
   15   H     15    1.4430  1.100     -8.363962     -0.501917      5.293896
   16   H     16    1.4430  1.100     -8.701920      0.963579      4.370305
   17   H     17    1.4430  1.100     -9.887967     -0.342666      4.419807
 ------------------------------------------------------------------------------
 One-electron integrals computed using PRISM.
   1 Symmetry operations used in ECPInt.
 ECPInt:  NShTT=    6903 NPrTT=   20284 LenC2=    6718 LenP2D=   15798.
 LDataN:  DoStor=T MaxTD1= 6 Len=  172
 NBasis=   277 RedAO= T EigKep=  2.62D-04  NBF=   277
 NBsUse=   277 1.00D-06 EigRej= -1.00D+00 NBFU=   277
 Initial guess from the checkpoint file:  "/dev/shm/prop_acetate_8.chk"
 B after Tr=     0.000000    0.000000    0.000000
         Rot=    1.000000    0.000000    0.000000    0.000000 Ang=   0.00 deg.
 Requested convergence on RMS density matrix=1.00D-08 within  32 cycles.
 Requested convergence on MAX density matrix=1.00D-06.
 Requested convergence on             energy=1.00D-06.
 No special actions if energy rises.
 Inv3:  Mode=1 IEnd=    13167075.
 Iteration    1 A*A^-1 deviation from unit magnitude is 4.00D-15 for    124.
 Iteration    1 A*A^-1 deviation from orthogonality  is 1.90D-15 for   1669    753.
 Iteration    1 A^-1*A deviation from unit magnitude is 3.77D-15 for    124.
 Iteration    1 A^-1*A deviation from orthogonality  is 7.58D-14 for   1917   1886.
 Error on total polarization charges =  0.00982
 SCF Done:  E(RM062X) =  -347.005665914     A.U. after    1 cycles
            NFock=  1  Conv=0.19D-08     -V/T= 2.0047
 QCSCF skips out because SCF is already converged.

 **********************************************************************

            Population analysis using the SCF Density.

 **********************************************************************

 Alpha  occ. eigenvalues --  -19.67161 -19.61824 -10.67488 -10.59057 -10.54259
 Alpha  occ. eigenvalues --  -10.53585 -10.52258  -1.24033  -1.14528  -0.90226
 Alpha  occ. eigenvalues --   -0.84972  -0.78215  -0.69347  -0.65240  -0.58332
 Alpha  occ. eigenvalues --   -0.58120  -0.55996  -0.52086  -0.50491  -0.48766
 Alpha  occ. eigenvalues --   -0.47277  -0.45553  -0.44281  -0.41673  -0.40755
 Alpha  occ. eigenvalues --   -0.40065  -0.37623  -0.36014
 Alpha virt. eigenvalues --    0.05127   0.06509   0.08814   0.10512   0.11557
 Alpha virt. eigenvalues --    0.13493   0.13941   0.15009   0.15190   0.15978
 Alpha virt. eigenvalues --    0.16480   0.17874   0.18723   0.20167   0.22128
 Alpha virt. eigenvalues --    0.23556   0.24460   0.24620   0.26037   0.26586
 Alpha virt. eigenvalues --    0.28953   0.29536   0.30824   0.32789   0.35441
 Alpha virt. eigenvalues --    0.35976   0.40857   0.41098   0.42494   0.42897
 Alpha virt. eigenvalues --    0.43754   0.44701   0.45554   0.46581   0.47061
 Alpha virt. eigenvalues --    0.47820   0.49059   0.49495   0.50339   0.50559
 Alpha virt. eigenvalues --    0.52133   0.53243   0.55030   0.56883   0.57441
 Alpha virt. eigenvalues --    0.59624   0.62847   0.62952   0.64165   0.65403
 Alpha virt. eigenvalues --    0.69855   0.70937   0.74492   0.77183   0.80174
 Alpha virt. eigenvalues --    0.81763   0.83493   0.87103   0.88556   0.89363
 Alpha virt. eigenvalues --    0.90362   0.91595   0.93510   0.96353   0.98991
 Alpha virt. eigenvalues --    1.02030   1.04394   1.05024   1.07919   1.08181
 Alpha virt. eigenvalues --    1.11362   1.13699   1.16409   1.16739   1.20938
 Alpha virt. eigenvalues --    1.22370   1.25100   1.29607   1.37435   1.40982
 Alpha virt. eigenvalues --    1.46999   1.48878   1.53767   1.54014   1.54450
 Alpha virt. eigenvalues --    1.57165   1.57767   1.57945   1.59717   1.60318
 Alpha virt. eigenvalues --    1.61673   1.62848   1.64281   1.65142   1.65848
 Alpha virt. eigenvalues --    1.65941   1.69488   1.73668   1.74252   1.77266
 Alpha virt. eigenvalues --    1.81078   1.83564   1.87489   1.90262   1.90858
 Alpha virt. eigenvalues --    1.91737   1.95001   1.96025   1.99830   2.02589
 Alpha virt. eigenvalues --    2.02818   2.03934   2.09886   2.10675   2.14193
 Alpha virt. eigenvalues --    2.14690   2.18856   2.22502   2.23042   2.27472
 Alpha virt. eigenvalues --    2.29868   2.31079   2.34146   2.34269   2.35400
 Alpha virt. eigenvalues --    2.36804   2.38959   2.39692   2.42168   2.43653
 Alpha virt. eigenvalues --    2.47244   2.48670   2.52604   2.53546   2.56219
 Alpha virt. eigenvalues --    2.58482   2.58810   2.61396   2.62325   2.63987
 Alpha virt. eigenvalues --    2.65514   2.65998   2.68920   2.69867   2.72905
 Alpha virt. eigenvalues --    2.74128   2.75556   2.75926   2.80742   2.85018
 Alpha virt. eigenvalues --    2.87972   2.91489   2.95704   2.97149   2.99132
 Alpha virt. eigenvalues --    2.99887   3.02467   3.06096   3.06715   3.08134
 Alpha virt. eigenvalues --    3.10433   3.11377   3.14042   3.15670   3.16695
 Alpha virt. eigenvalues --    3.17152   3.21774   3.22268   3.25265   3.26472
 Alpha virt. eigenvalues --    3.27549   3.29904   3.30647   3.34040   3.38185
 Alpha virt. eigenvalues --    3.38478   3.39289   3.41440   3.41707   3.44331
 Alpha virt. eigenvalues --    3.45540   3.49092   3.52250   3.53313   3.55071
 Alpha virt. eigenvalues --    3.57417   3.62057   3.66576   3.69476   3.75138
 Alpha virt. eigenvalues --    3.80928   3.81582   3.84039   3.86436   3.88515
 Alpha virt. eigenvalues --    3.89412   3.93817   3.96832   3.98916   4.01999
 Alpha virt. eigenvalues --    4.09742   4.16576   4.26424   4.32625   4.33613
 Alpha virt. eigenvalues --    4.35928   4.37889   4.41453   4.46244   4.51456
 Alpha virt. eigenvalues --    4.55251   4.56621   4.59975   4.61240   4.72737
 Alpha virt. eigenvalues --    4.74872   4.79195   4.84958   5.18507   5.23303
 Alpha virt. eigenvalues --    5.32353   5.44818   5.52071   5.64696   5.68227
 Alpha virt. eigenvalues --    5.82633   5.98736   6.05260   6.14825   6.18363
 Alpha virt. eigenvalues --    6.35088   6.38191   6.51457   6.65667   6.67047
 Alpha virt. eigenvalues --    6.75682   6.84169   6.88382   7.01208   7.10015
 Alpha virt. eigenvalues --    7.27187   7.36298  22.43499  22.44131  22.53727
 Alpha virt. eigenvalues --   22.59360  23.43250  44.00074  44.32207
          Condensed to atoms (all electrons):
               1          2          3          4          5          6
     1  C    5.080053   0.390707   0.416616   0.392370   0.326611  -0.078507
     2  H    0.390707   0.502631  -0.017890  -0.022839  -0.026745   0.001634
     3  H    0.416616  -0.017890   0.503013  -0.018473  -0.051189   0.006052
     4  H    0.392370  -0.022839  -0.018473   0.504269  -0.028596   0.001875
     5  C    0.326611  -0.026745  -0.051189  -0.028596   4.460760   0.641503
     6  O   -0.078507   0.001634   0.006052   0.001875   0.641503   7.909624
     7  O   -0.082793   0.002951   0.005456   0.002555   0.337464  -0.092717
     8  C    0.002300   0.000041  -0.000328   0.000224  -0.050987  -0.011642
     9  H    0.000185   0.000044   0.000017  -0.000144  -0.012408   0.007963
    10  H    0.001249  -0.000143  -0.000000   0.000015  -0.003474   0.005011
    11  C    0.001472  -0.000250  -0.000045  -0.000256   0.006334   0.006730
    12  H   -0.000200   0.000033   0.000006   0.000014  -0.000843  -0.000133
    13  H    0.000034   0.000000  -0.000001  -0.000001  -0.000123   0.000084
    14  C    0.000112   0.000033  -0.000006  -0.000019   0.000455  -0.000425
    15  H   -0.000003  -0.000002  -0.000000  -0.000000   0.000052   0.000004
    16  H    0.000002   0.000000   0.000001   0.000012  -0.000282  -0.000021
    17  H   -0.000017  -0.000010   0.000010   0.000067  -0.000176   0.000058
               7          8          9         10         11         12
     1  C   -0.082793   0.002300   0.000185   0.001249   0.001472  -0.000200
     2  H    0.002951   0.000041   0.000044  -0.000143  -0.000250   0.000033
     3  H    0.005456  -0.000328   0.000017  -0.000000  -0.000045   0.000006
     4  H    0.002555   0.000224  -0.000144   0.000015  -0.000256   0.000014
     5  C    0.337464  -0.050987  -0.012408  -0.003474   0.006334  -0.000843
     6  O   -0.092717  -0.011642   0.007963   0.005011   0.006730  -0.000133
     7  O    8.030428   0.173278  -0.042522  -0.033349  -0.036443  -0.001398
     8  C    0.173278   5.039328   0.432601   0.427684   0.253813  -0.034880
     9  H   -0.042522   0.432601   0.523037  -0.034543  -0.026375   0.006919
    10  H   -0.033349   0.427684  -0.034543   0.523630  -0.041203  -0.005661
    11  C   -0.036443   0.253813  -0.026375  -0.041203   5.088174   0.426733
    12  H   -0.001398  -0.034880   0.006919  -0.005661   0.426733   0.541259
    13  H    0.004737  -0.050583  -0.000916  -0.003544   0.429598  -0.022587
    14  C    0.000494  -0.051476  -0.017632   0.009943   0.257763  -0.051865
    15  H    0.000330   0.009841  -0.000318  -0.000168  -0.042906  -0.004180
    16  H   -0.000881   0.001048   0.003110   0.000110  -0.040172   0.007108
    17  H    0.007775  -0.013124   0.001283  -0.000198  -0.038442  -0.002775
              13         14         15         16         17
     1  C    0.000034   0.000112  -0.000003   0.000002  -0.000017
     2  H    0.000000   0.000033  -0.000002   0.000000  -0.000010
     3  H   -0.000001  -0.000006  -0.000000   0.000001   0.000010
     4  H   -0.000001  -0.000019  -0.000000   0.000012   0.000067
     5  C   -0.000123   0.000455   0.000052  -0.000282  -0.000176
     6  O    0.000084  -0.000425   0.000004  -0.000021   0.000058
     7  O    0.004737   0.000494   0.000330  -0.000881   0.007775
     8  C   -0.050583  -0.051476   0.009841   0.001048  -0.013124
     9  H   -0.000916  -0.017632  -0.000318   0.003110   0.001283
    10  H   -0.003544   0.009943  -0.000168   0.000110  -0.000198
    11  C    0.429598   0.257763  -0.042906  -0.040172  -0.038442
    12  H   -0.022587  -0.051865  -0.004180   0.007108  -0.002775
    13  H    0.541640  -0.036831  -0.004792  -0.004458   0.006736
    14  C   -0.036831   5.089056   0.416058   0.403552   0.415765
    15  H   -0.004792   0.416058   0.524768  -0.022545  -0.023804
    16  H   -0.004458   0.403552  -0.022545   0.542271  -0.028436
    17  H    0.006736   0.415765  -0.023804  -0.028436   0.528163
 Mulliken charges:
               1
     1  C   -0.450192
     2  H    0.169802
     3  H    0.156761
     4  H    0.168926
     5  C    0.401643
     6  O   -0.397095
     7  O   -0.275365
     8  C   -0.127139
     9  H    0.159696
    10  H    0.154640
    11  C   -0.244528
    12  H    0.142451
    13  H    0.141006
    14  C   -0.434979
    15  H    0.147664
    16  H    0.139581
    17  H    0.147124
 Sum of Mulliken charges =  -0.00000
 Mulliken charges with hydrogens summed into heavy atoms:
               1
     1  C    0.045298
     5  C    0.401643
     6  O   -0.397095
     7  O   -0.275365
     8  C    0.187198
    11  C    0.038930
    14  C   -0.000609
 Electronic spatial extent (au):  <R**2>=          21334.2382
 Charge=              0.0000 electrons
 Dipole moment (field-independent basis, Debye):
    X=             -0.1248    Y=             -1.3354    Z=              2.1980  Tot=              2.5749
 Quadrupole moment (field-independent basis, Debye-Ang):
   XX=            -33.8725   YY=            -43.3223   ZZ=            -41.7005
   XY=             14.2352   XZ=            -20.1401   YZ=              0.8636
 Traceless Quadrupole moment (field-independent basis, Debye-Ang):
   XX=              5.7593   YY=             -3.6906   ZZ=             -2.0687
   XY=             14.2352   XZ=            -20.1401   YZ=              0.8636
 Octapole moment (field-independent basis, Debye-Ang**2):
  XXX=           1032.5383  YYY=             39.6781  ZZZ=           -246.4946  XYY=            427.6687
  XXY=           -140.6356  XXZ=            109.6876  XZZ=            420.0436  YZZ=             13.9043
  YYZ=            -82.9177  XYZ=             -9.6752
 Hexadecapole moment (field-independent basis, Debye-Ang**3):
 XXXX=         -21044.6388 YYYY=           -130.8934 ZZZZ=          -1606.8659 XXXY=           1286.1286
 XXXZ=            334.3685 YYYX=           -392.7570 YYYZ=             98.4267 ZZZX=           2272.8877
 ZZZY=             88.2051 XXYY=          -4340.8112 XXZZ=          -4573.7195 YYZZ=           -292.1482
 XXYZ=            136.0390 YYXZ=            756.5726 ZZXY=           -146.0122
 N-N= 3.147540934937D+02 E-N=-1.439942857417D+03  KE= 3.453757395656D+02
   1 Symmetry operations used in ECPInt.
 ECPInt:  NShTT=    6903 NPrTT=   20284 LenC2=    6718 LenP2D=   15798.
 LDataN:  DoStor=T MaxTD1= 7 Len=  274
 D1PCM: PCM CHGder 1st derivatives, ID1Alg=3 FixD1E=F DoIter=F DoCFld=F I1PDM=0.
 Calling FoFJK, ICntrl=      2127 FMM=F ISym2X=0 I1Cent= 0 IOpClX= 0 NMat=1 NMatS=1 NMatT=0.
 -------------------------------------------------------------------
 Center     Atomic                   Forces (Hartrees/Bohr)
 Number     Number              X              Y              Z
 -------------------------------------------------------------------
      1        6           0.000008398   -0.000012012    0.000017515
      2        1          -0.000000071    0.000004249   -0.000004288
      3        1           0.000000349    0.000000132   -0.000005507
      4        1           0.000004373    0.000011673   -0.000006039
      5        6           0.000000858    0.000045271   -0.000069233
      6        8          -0.000001775   -0.000019731    0.000030818
      7        8           0.000050047   -0.000015201    0.000039598
      8        6          -0.000058977   -0.000009434    0.000008782
      9        1           0.000011147    0.000003023   -0.000005229
     10        1           0.000005587   -0.000000035   -0.000006523
     11        6           0.000026987   -0.000026290   -0.000032386
     12        1          -0.000009266    0.000000445    0.000005585
     13        1          -0.000011869    0.000003813    0.000004870
     14        6          -0.000033926    0.000030428    0.000047342
     15        1          -0.000004138    0.000000272   -0.000012521
     16        1           0.000002595   -0.000016123   -0.000006738
     17        1           0.000009678   -0.000000480   -0.000006048
 -------------------------------------------------------------------
 Cartesian Forces:  Max     0.000069233 RMS     0.000022073

 GradGradGradGradGradGradGradGradGradGradGradGradGradGradGradGradGradGrad
 Berny optimization.
 FormGI is forming the generalized inverse of G from B-inverse, IUseBI=4.
 Internal  Forces:  Max     0.000051891 RMS     0.000011318
 Search for a local minimum.
 Step number   1 out of a maximum of   83
 All quantities printed in internal units (Hartrees-Bohrs-Radians)
 Mixed Optimization -- En-DIIS/RFO-DIIS
 Second derivative matrix not updated -- first step.
 ITU=  0
     Eigenvalues ---    0.00018   0.00208   0.00337   0.00368   0.02090
     Eigenvalues ---    0.03451   0.03791   0.04466   0.04503   0.04751
     Eigenvalues ---    0.04825   0.05472   0.05485   0.06212   0.07071
     Eigenvalues ---    0.09443   0.10486   0.12089   0.12358   0.12700
     Eigenvalues ---    0.13192   0.13817   0.13937   0.15719   0.21122
     Eigenvalues ---    0.21326   0.24230   0.24323   0.26684   0.30375
     Eigenvalues ---    0.32327   0.33526   0.33679   0.33848   0.34086
     Eigenvalues ---    0.34402   0.34591   0.34759   0.35152   0.35173
     Eigenvalues ---    0.35684   0.36195   0.37459   0.48459   0.89248
 RFO step:  Lambda=-2.52830811D-07 EMin= 1.78565809D-04
 Linear search not attempted -- first point.
 Iteration  1 RMS(Cart)=  0.00563189 RMS(Int)=  0.00003467
 Iteration  2 RMS(Cart)=  0.00003559 RMS(Int)=  0.00000012
 Iteration  3 RMS(Cart)=  0.00000000 RMS(Int)=  0.00000012
 Variable       Old X    -DE/DX   Delta X   Delta X   Delta X     New X
                                 (Linear)    (Quad)   (Total)
    R1        2.05929  -0.00000   0.00000  -0.00016  -0.00016   2.05913
    R2        2.05060   0.00000   0.00000   0.00000   0.00000   2.05060
    R3        2.05857  -0.00000   0.00000   0.00014   0.00014   2.05872
    R4        2.83473  -0.00001   0.00000  -0.00002  -0.00002   2.83471
    R5        2.27683  -0.00004   0.00000  -0.00007  -0.00007   2.27676
    R6        2.52399   0.00002   0.00000   0.00013   0.00013   2.52412
    R7        2.71546  -0.00005   0.00000  -0.00020  -0.00020   2.71526
    R8        2.06339   0.00001   0.00000   0.00004   0.00004   2.06343
    R9        2.06069   0.00001   0.00000   0.00002   0.00002   2.06072
   R10        2.85674  -0.00001   0.00000  -0.00001  -0.00001   2.85673
   R11        2.06417  -0.00000   0.00000  -0.00001  -0.00001   2.06416
   R12        2.06390  -0.00001   0.00000  -0.00003  -0.00003   2.06387
   R13        2.87834   0.00003   0.00000   0.00015   0.00015   2.87848
   R14        2.05927  -0.00001   0.00000  -0.00004  -0.00004   2.05924
   R15        2.06320  -0.00002   0.00000  -0.00005  -0.00005   2.06315
   R16        2.05974  -0.00001   0.00000  -0.00005  -0.00005   2.05969
    A1        1.92171  -0.00000   0.00000   0.00066   0.00066   1.92237
    A2        1.87987   0.00001   0.00000   0.00004   0.00004   1.87991
    A3        1.90853   0.00000   0.00000   0.00089   0.00089   1.90942
    A4        1.92522   0.00000   0.00000  -0.00065  -0.00065   1.92456
    A5        1.91469   0.00000   0.00000   0.00006   0.00006   1.91475
    A6        1.91346  -0.00001   0.00000  -0.00099  -0.00099   1.91247
    A7        2.18713   0.00002   0.00000   0.00021   0.00021   2.18734
    A8        1.94757  -0.00003   0.00000  -0.00018  -0.00018   1.94739
    A9        2.14849   0.00000   0.00000  -0.00003  -0.00003   2.14846
   A10        2.03275  -0.00002   0.00000  -0.00007  -0.00007   2.03268
   A11        1.89530   0.00001   0.00000   0.00009   0.00009   1.89539
   A12        1.89527   0.00001   0.00000   0.00009   0.00009   1.89536
   A13        1.88321  -0.00002   0.00000  -0.00001  -0.00001   1.88320
   A14        1.88937  -0.00001   0.00000  -0.00013  -0.00013   1.88924
   A15        1.94588   0.00000   0.00000  -0.00003  -0.00003   1.94586
   A16        1.95346   0.00001   0.00000  -0.00000  -0.00000   1.95346
   A17        1.90068   0.00001   0.00000   0.00004   0.00004   1.90072
   A18        1.87406   0.00000   0.00000   0.00002   0.00002   1.87408
   A19        1.96953  -0.00001   0.00000  -0.00007  -0.00007   1.96945
   A20        1.86544   0.00000   0.00000   0.00013   0.00013   1.86557
   A21        1.92747  -0.00000   0.00000  -0.00006  -0.00006   1.92741
   A22        1.92300   0.00000   0.00000  -0.00005  -0.00005   1.92295
   A23        1.93786  -0.00001   0.00000  -0.00008  -0.00008   1.93778
   A24        1.93208  -0.00001   0.00000  -0.00008  -0.00008   1.93200
   A25        1.93602  -0.00001   0.00000  -0.00006  -0.00006   1.93596
   A26        1.88500   0.00001   0.00000   0.00007   0.00007   1.88507
   A27        1.88601   0.00001   0.00000   0.00007   0.00007   1.88608
   A28        1.88492   0.00001   0.00000   0.00010   0.00010   1.88501
    D1        2.07451   0.00000   0.00000   0.01467   0.01467   2.08918
    D2       -1.06415   0.00000   0.00000   0.01366   0.01366  -1.05049
    D3       -0.03469   0.00000   0.00000   0.01326   0.01326  -0.02143
    D4        3.10983   0.00000   0.00000   0.01226   0.01226   3.12209
    D5       -2.15134   0.00000   0.00000   0.01466   0.01466  -2.13668
    D6        0.99318   0.00000   0.00000   0.01366   0.01366   1.00684
    D7        3.13524   0.00000   0.00000   0.00195   0.00195   3.13718
    D8       -0.00350   0.00000   0.00000   0.00097   0.00097  -0.00253
    D9        1.00477   0.00000   0.00000   0.00049   0.00049   1.00526
   D10       -1.04605   0.00000   0.00000   0.00054   0.00054  -1.04551
   D11        3.11640  -0.00000   0.00000   0.00050   0.00050   3.11689
   D12        1.03610  -0.00000   0.00000   0.00043   0.00043   1.03653
   D13        3.05002   0.00000   0.00000   0.00061   0.00061   3.05063
   D14       -1.11076   0.00000   0.00000   0.00052   0.00052  -1.11024
   D15        3.11586  -0.00000   0.00000   0.00051   0.00051   3.11637
   D16       -1.15341   0.00001   0.00000   0.00070   0.00070  -1.15271
   D17        0.96900   0.00000   0.00000   0.00061   0.00061   0.96960
   D18       -1.04812  -0.00000   0.00000   0.00033   0.00033  -1.04779
   D19        0.96581   0.00000   0.00000   0.00051   0.00051   0.96632
   D20        3.08821   0.00000   0.00000   0.00042   0.00042   3.08863
   D21       -3.11996   0.00000   0.00000   0.00015   0.00015  -3.11981
   D22       -1.02643   0.00000   0.00000   0.00012   0.00012  -1.02630
   D23        1.06580   0.00000   0.00000   0.00015   0.00015   1.06595
   D24        1.03136   0.00000   0.00000   0.00018   0.00018   1.03154
   D25        3.12489   0.00000   0.00000   0.00016   0.00016   3.12505
   D26       -1.06608   0.00000   0.00000   0.00019   0.00019  -1.06588
   D27       -1.02546  -0.00000   0.00000   0.00009   0.00009  -1.02537
   D28        1.06807  -0.00000   0.00000   0.00007   0.00007   1.06814
   D29       -3.12289  -0.00000   0.00000   0.00010   0.00010  -3.12279
         Item               Value     Threshold  Converged?
 Maximum Force            0.000052     0.000450     YES
 RMS     Force            0.000011     0.000300     YES
 Maximum Displacement     0.028331     0.001800     NO 
 RMS     Displacement     0.005632     0.001200     NO 
 Predicted change in Energy=-1.264152D-07
 GradGradGradGradGradGradGradGradGradGradGradGradGradGradGradGradGradGrad

                          Input orientation:                          
 ---------------------------------------------------------------------
 Center     Atomic      Atomic             Coordinates (Angstroms)
 Number     Number       Type             X           Y           Z
 ---------------------------------------------------------------------
      1          6           0      -12.268995   -0.669038    0.803655
      2          1           0      -12.292960   -1.757953    0.835435
      3          1           0      -12.809497   -0.308570   -0.065502
      4          1           0      -12.734403   -0.300494    1.717121
      5          6           0      -10.844305   -0.203541    0.742284
      6          8           0      -10.363043    0.451169   -0.147270
      7          8           0      -10.149248   -0.607251    1.809068
      8          6           0       -8.765606   -0.222557    1.854873
      9          1           0       -8.704889    0.866298    1.800073
     10          1           0       -8.260340   -0.637047    0.981913
     11          6           0       -8.180490   -0.745500    3.146950
     12          1           0       -8.286061   -1.832474    3.168860
     13          1           0       -7.109738   -0.530978    3.130514
     14          6           0       -8.821967   -0.123948    4.380807
     15          1           0       -8.364034   -0.504706    5.293368
     16          1           0       -8.704239    0.961418    4.371586
     17          1           0       -9.888186   -0.346827    4.419264
 ---------------------------------------------------------------------
                    Distance matrix (angstroms):
                    1          2          3          4          5
     1  C    0.000000
     2  H    1.089643   0.000000
     3  H    1.085133   1.783034   0.000000
     4  H    1.089426   1.759667   1.784222   0.000000
     5  C    1.500065   2.126846   2.127329   2.128891   0.000000
     6  O    2.406610   3.093624   2.563011   3.108745   1.204809
     7  O    2.346913   2.620606   3.268050   2.604915   1.335707
     8  C    3.684853   3.979814   4.477532   3.971952   2.357797
     9  H    4.006614   4.548788   4.659237   4.195863   2.615449
    10  H    4.012744   4.188067   4.679723   4.546541   2.631012
    11  C    4.713041   4.824994   5.651413   4.793805   3.629331
    12  H    4.776143   4.637420   5.765835   4.923643   3.884109
    13  H    5.661384   5.799882   6.538443   5.804107   4.444979
    14  C    4.997514   5.223737   5.975295   4.736407   4.163536
    15  H    5.952583   6.072911   6.965493   5.650785   5.191802
    16  H    5.300566   5.725230   6.176873   4.988069   4.371366
    17  H    4.341049   4.540710   5.352444   3.924879   3.801957
                    6          7          8          9         10
     6  O    0.000000
     7  O    2.234552   0.000000
     8  C    2.648450   1.436856   0.000000
     9  H    2.591129   2.063395   1.091922   0.000000
    10  H    2.623095   2.062291   1.090484   1.768348   0.000000
    11  C    4.128855   2.384334   1.511719   2.164940   2.169222
    12  H    4.530519   2.611833   2.132689   3.054893   2.492478
    13  H    4.721491   3.315216   2.112884   2.503390   2.439594
    14  C    4.817588   2.934126   2.528486   2.766674   3.482984
    15  H    5.874545   3.916357   3.473344   3.768149   4.314732
    16  H    4.840666   3.333957   2.781979   2.573272   3.773860
    17  H    4.659992   2.636114   2.802094   3.119620   3.814380
                   11         12         13         14         15
    11  C    0.000000
    12  H    1.092309   0.000000
    13  H    1.092153   1.754736   0.000000
    14  C    1.523228   2.162192   2.158850   0.000000
    15  H    2.167667   2.506508   2.500378   1.089700   0.000000
    16  H    2.165090   3.070384   2.511959   1.091771   1.764920
    17  H    2.166552   2.517432   3.068316   1.089943   1.764092
                   16         17
    16  H    0.000000
    17  H    1.765080   0.000000
 Symmetry turned off by external request.
 Stoichiometry    C5H10O2
 Framework group  C1[X(C5H10O2)]
 Deg. of freedom    45
 Full point group                 C1      NOp   1
 Rotational constants (GHZ):           5.7049869           1.3939956           1.2161761
 Standard basis: def2TZVP (5D, 7F)
   277 basis functions,   437 primitive gaussians,   312 cartesian basis functions
    28 alpha electrons       28 beta electrons
       nuclear repulsion energy       314.7606686956 Hartrees.
 NAtoms=   17 NActive=   17 NUniq=   17 SFac= 1.00D+00 NAtFMM=   60 NAOKFM=F Big=F
 Integral buffers will be    131072 words long.
 Raffenetti 2 integral format.
 Two-electron integral symmetry is turned off.
 ------------------------------------------------------------------------------
 Polarizable Continuum Model (PCM)
 =================================
 Model                : PCM.
 Atomic radii         : UFF (Universal Force Field).
 Polarization charges : Total charges.
 Charge compensation  : None.
 Solution method      : On-the-fly selection.
 Cavity type          : Scaled VdW (van der Waals Surface) (Alpha=1.100).
 Cavity algorithm     : GePol (No added spheres)
                        Default sphere list used, NSphG=   17.
                        Lebedev-Laikov grids with approx.  7.0 points / Ang**2.
                        Smoothing algorithm: York/Karplus (Gamma=1.0000).
                        Polarization charges: spherical gaussians, with
                                              point-specific exponents (IZeta= 3).
                        Self-potential: point-specific (ISelfS= 7).
                        Self-field    : sphere-specific E.n sum rule (ISelfD= 2).
 1st derivatives      : Analytical E(r).r(x)/FMM algorithm (CHGder, D1EAlg=3).
                        Cavity 1st derivative terms included.
 Solvent              : AceticAcid, Eps=   6.252800 Eps(inf)=   1.882384
 ------------------------------------------------------------------------------
 Spheres list:
 ISph  on   Nord     Re0    Alpha      Xe            Ye            Ze
    1   C      1    1.9255  1.100    -12.268995     -0.669038      0.803655
    2   H      2    1.4430  1.100    -12.292960     -1.757953      0.835435
    3   H      3    1.4430  1.100    -12.809497     -0.308570     -0.065502
    4   H      4    1.4430  1.100    -12.734403     -0.300494      1.717121
    5   C      5    1.9255  1.100    -10.844305     -0.203541      0.742284
    6   O      6    1.7500  1.100    -10.363043      0.451169     -0.147270
    7   O      7    1.7500  1.100    -10.149248     -0.607251      1.809068
    8   C      8    1.9255  1.100     -8.765606     -0.222557      1.854873
    9   H      9    1.4430  1.100     -8.704889      0.866298      1.800073
   10   H     10    1.4430  1.100     -8.260340     -0.637047      0.981913
   11   C     11    1.9255  1.100     -8.180490     -0.745500      3.146950
   12   H     12    1.4430  1.100     -8.286061     -1.832474      3.168860
   13   H     13    1.4430  1.100     -7.109738     -0.530978      3.130514
   14   C     14    1.9255  1.100     -8.821967     -0.123948      4.380807
   15   H     15    1.4430  1.100     -8.364034     -0.504706      5.293368
   16   H     16    1.4430  1.100     -8.704239      0.961418      4.371586
   17   H     17    1.4430  1.100     -9.888186     -0.346827      4.419264
 ------------------------------------------------------------------------------
 One-electron integrals computed using PRISM.
   1 Symmetry operations used in ECPInt.
 ECPInt:  NShTT=    6903 NPrTT=   20284 LenC2=    6718 LenP2D=   15798.
 LDataN:  DoStor=T MaxTD1= 6 Len=  172
 NBasis=   277 RedAO= T EigKep=  2.62D-04  NBF=   277
 NBsUse=   277 1.00D-06 EigRej= -1.00D+00 NBFU=   277
 Initial guess from the checkpoint file:  "/dev/shm/prop_acetate_8.chk"
 B after Tr=     0.000077    0.003297   -0.000487
         Rot=    1.000000   -0.000141   -0.000007   -0.000066 Ang=  -0.02 deg.
 ExpMin= 9.52D-02 ExpMax= 2.70D+04 ExpMxC= 9.22D+02 IAcc=3 IRadAn=         5 AccDes= 0.00D+00
 Harris functional with IExCor= 1009 and IRadAn=       5 diagonalized for initial guess.
 HarFok:  IExCor= 1009 AccDes= 0.00D+00 IRadAn=         5 IDoV= 1 UseB2=F ITyADJ=14
 ICtDFT=  3500011 ScaDFX=  1.000000  1.000000  1.000000  1.000000
 FoFCou: FMM=F IPFlag=           0 FMFlag=      100000 FMFlg1=           0
         NFxFlg=           0 DoJE=T BraDBF=F KetDBF=T FulRan=T
         wScrn=  0.000000 ICntrl=       500 IOpCl=  0 I1Cent=   200000004 NGrid=           0
         NMat0=    1 NMatS0=      1 NMatT0=    0 NMatD0=    1 NMtDS0=    0 NMtDT0=    0
 Symmetry not used in FoFCou.
 Requested convergence on RMS density matrix=1.00D-08 within  32 cycles.
 Requested convergence on MAX density matrix=1.00D-06.
 Requested convergence on             energy=1.00D-06.
 No special actions if energy rises.
 Inv3:  Mode=1 IEnd=    13141947.
 Iteration    1 A*A^-1 deviation from unit magnitude is 3.89D-15 for    122.
 Iteration    1 A*A^-1 deviation from orthogonality  is 1.89D-15 for   1919   1132.
 Iteration    1 A^-1*A deviation from unit magnitude is 3.66D-15 for    122.
 Iteration    1 A^-1*A deviation from orthogonality  is 2.14D-13 for   1922   1886.
 Error on total polarization charges =  0.00982
 SCF Done:  E(RM062X) =  -347.005666057     A.U. after    7 cycles
            NFock=  7  Conv=0.81D-08     -V/T= 2.0047
 QCSCF skips out because SCF is already converged.
   1 Symmetry operations used in ECPInt.
 ECPInt:  NShTT=    6903 NPrTT=   20284 LenC2=    6718 LenP2D=   15798.
 LDataN:  DoStor=T MaxTD1= 7 Len=  274
 D1PCM: PCM CHGder 1st derivatives, ID1Alg=3 FixD1E=F DoIter=F DoCFld=F I1PDM=0.
 Calling FoFJK, ICntrl=      2127 FMM=F ISym2X=0 I1Cent= 0 IOpClX= 0 NMat=1 NMatS=1 NMatT=0.
 -------------------------------------------------------------------
 Center     Atomic                   Forces (Hartrees/Bohr)
 Number     Number              X              Y              Z
 -------------------------------------------------------------------
      1        6           0.000001825    0.000001785   -0.000002206
      2        1          -0.000000916    0.000003330   -0.000000975
      3        1           0.000002218    0.000002529   -0.000003951
      4        1           0.000000089    0.000005110   -0.000003923
      5        6           0.000002501   -0.000000563   -0.000000204
      6        8           0.000003248   -0.000001545   -0.000001648
      7        8           0.000000782    0.000000204   -0.000000167
      8        6           0.000000555   -0.000002059    0.000000907
      9        1           0.000002502   -0.000002178   -0.000000071
     10        1           0.000000920   -0.000003647    0.000001896
     11        6          -0.000001556   -0.000001712    0.000002056
     12        1          -0.000003278   -0.000001511    0.000003051
     13        1          -0.000001176   -0.000003459    0.000003024
     14        6          -0.000001858    0.000000480    0.000000874
     15        1          -0.000003448    0.000000688    0.000001628
     16        1          -0.000000140    0.000000305   -0.000000160
     17        1          -0.000002268    0.000002244   -0.000000131
 -------------------------------------------------------------------
 Cartesian Forces:  Max     0.000005110 RMS     0.000002142

 GradGradGradGradGradGradGradGradGradGradGradGradGradGradGradGradGradGrad
 Berny optimization.
 Using GEDIIS/GDIIS optimizer.
 FormGI is forming the generalized inverse of G from B-inverse, IUseBI=4.
 Internal  Forces:  Max     0.000002049 RMS     0.000000518
 Search for a local minimum.
 Step number   2 out of a maximum of   83
 All quantities printed in internal units (Hartrees-Bohrs-Radians)
 Mixed Optimization -- En-DIIS/RFO-DIIS
 Swapping is turned off.
 Update second derivatives using D2CorX and points    1    2
 DE= -1.43D-07 DEPred=-1.26D-07 R= 1.13D+00
 Trust test= 1.13D+00 RLast= 3.38D-02 DXMaxT set to 3.00D-01
 ITU=  0  0
     Eigenvalues ---    0.00014   0.00208   0.00335   0.00370   0.02086
     Eigenvalues ---    0.03451   0.03806   0.04466   0.04503   0.04767
     Eigenvalues ---    0.04826   0.05470   0.05485   0.06214   0.07079
     Eigenvalues ---    0.09445   0.10490   0.12139   0.12365   0.12727
     Eigenvalues ---    0.13278   0.13820   0.13942   0.15719   0.21319
     Eigenvalues ---    0.21415   0.24235   0.24323   0.26682   0.30411
     Eigenvalues ---    0.32368   0.33597   0.33694   0.33875   0.34102
     Eigenvalues ---    0.34402   0.34591   0.34759   0.35169   0.35179
     Eigenvalues ---    0.35694   0.36197   0.37650   0.48469   0.89320
 En-DIIS/RFO-DIIS/Sim-DIIS IScMMF=       -3 using points:     2    1
 RFO step:  Lambda=-1.79320708D-08.
 DidBck=F Rises=F RFO-DIIS coefs:    1.33097   -0.33097
 Iteration  1 RMS(Cart)=  0.00195130 RMS(Int)=  0.00000416
 Iteration  2 RMS(Cart)=  0.00000428 RMS(Int)=  0.00000005
 Iteration  3 RMS(Cart)=  0.00000000 RMS(Int)=  0.00000005
 Variable       Old X    -DE/DX   Delta X   Delta X   Delta X     New X
                                 (Linear)    (Quad)   (Total)
    R1        2.05913  -0.00000  -0.00005   0.00000  -0.00005   2.05907
    R2        2.05060   0.00000   0.00000  -0.00000   0.00000   2.05060
    R3        2.05872  -0.00000   0.00005   0.00000   0.00005   2.05877
    R4        2.83471   0.00000  -0.00001   0.00001  -0.00000   2.83471
    R5        2.27676  -0.00000  -0.00002   0.00002  -0.00000   2.27676
    R6        2.52412   0.00000   0.00004  -0.00004   0.00000   2.52412
    R7        2.71526  -0.00000  -0.00007   0.00006  -0.00001   2.71526
    R8        2.06343   0.00000   0.00001  -0.00001   0.00001   2.06344
    R9        2.06072  -0.00000   0.00001  -0.00001  -0.00001   2.06071
   R10        2.85673   0.00000  -0.00000   0.00000  -0.00000   2.85673
   R11        2.06416  -0.00000  -0.00000   0.00000  -0.00000   2.06416
   R12        2.06387   0.00000  -0.00001   0.00001   0.00000   2.06387
   R13        2.87848  -0.00000   0.00005  -0.00005   0.00000   2.87849
   R14        2.05924   0.00000  -0.00001   0.00001  -0.00000   2.05924
   R15        2.06315  -0.00000  -0.00002   0.00002  -0.00000   2.06315
   R16        2.05969   0.00000  -0.00002   0.00001  -0.00000   2.05969
    A1        1.92237  -0.00000   0.00022   0.00001   0.00022   1.92259
    A2        1.87991   0.00000   0.00001  -0.00002  -0.00001   1.87991
    A3        1.90942   0.00000   0.00029   0.00001   0.00030   1.90972
    A4        1.92456  -0.00000  -0.00022  -0.00000  -0.00022   1.92434
    A5        1.91475  -0.00000   0.00002  -0.00002   0.00000   1.91476
    A6        1.91247   0.00000  -0.00033   0.00003  -0.00030   1.91217
    A7        2.18734  -0.00000   0.00007  -0.00006   0.00001   2.18734
    A8        1.94739   0.00000  -0.00006   0.00006  -0.00000   1.94739
    A9        2.14846  -0.00000  -0.00001   0.00000  -0.00000   2.14845
   A10        2.03268  -0.00000  -0.00002   0.00001  -0.00001   2.03267
   A11        1.89539  -0.00000   0.00003  -0.00004  -0.00001   1.89538
   A12        1.89536   0.00000   0.00003  -0.00002   0.00001   1.89537
   A13        1.88320   0.00000  -0.00000   0.00001   0.00001   1.88321
   A14        1.88924  -0.00000  -0.00004   0.00004  -0.00001   1.88924
   A15        1.94586   0.00000  -0.00001   0.00001   0.00000   1.94586
   A16        1.95346  -0.00000  -0.00000  -0.00001  -0.00001   1.95345
   A17        1.90072  -0.00000   0.00001  -0.00002  -0.00000   1.90072
   A18        1.87408  -0.00000   0.00001  -0.00002  -0.00001   1.87407
   A19        1.96945   0.00000  -0.00002   0.00004   0.00002   1.96947
   A20        1.86557   0.00000   0.00004  -0.00004   0.00000   1.86557
   A21        1.92741  -0.00000  -0.00002   0.00001  -0.00001   1.92741
   A22        1.92295  -0.00000  -0.00002   0.00001  -0.00000   1.92295
   A23        1.93778  -0.00000  -0.00003   0.00002  -0.00001   1.93777
   A24        1.93200   0.00000  -0.00003   0.00003   0.00000   1.93201
   A25        1.93596  -0.00000  -0.00002   0.00002  -0.00000   1.93596
   A26        1.88507   0.00000   0.00002  -0.00002   0.00000   1.88507
   A27        1.88608   0.00000   0.00002  -0.00002   0.00000   1.88609
   A28        1.88501   0.00000   0.00003  -0.00003   0.00000   1.88502
    D1        2.08918   0.00000   0.00485  -0.00000   0.00485   2.09403
    D2       -1.05049   0.00000   0.00452   0.00000   0.00452  -1.04596
    D3       -0.02143   0.00000   0.00439  -0.00000   0.00439  -0.01704
    D4        3.12209   0.00000   0.00406   0.00000   0.00406   3.12615
    D5       -2.13668   0.00000   0.00485  -0.00000   0.00485  -2.13183
    D6        1.00684   0.00000   0.00452  -0.00000   0.00452   1.01136
    D7        3.13718   0.00000   0.00064  -0.00002   0.00062   3.13781
    D8       -0.00253   0.00000   0.00032  -0.00002   0.00030  -0.00223
    D9        1.00526   0.00000   0.00016   0.00029   0.00045   1.00571
   D10       -1.04551   0.00000   0.00018   0.00028   0.00045  -1.04506
   D11        3.11689   0.00000   0.00016   0.00029   0.00045   3.11734
   D12        1.03653   0.00000   0.00014   0.00000   0.00015   1.03667
   D13        3.05063   0.00000   0.00020  -0.00006   0.00014   3.05077
   D14       -1.11024   0.00000   0.00017  -0.00003   0.00014  -1.11009
   D15        3.11637   0.00000   0.00017  -0.00003   0.00014   3.11651
   D16       -1.15271   0.00000   0.00023  -0.00010   0.00013  -1.15258
   D17        0.96960   0.00000   0.00020  -0.00006   0.00014   0.96974
   D18       -1.04779   0.00000   0.00011   0.00002   0.00013  -1.04766
   D19        0.96632  -0.00000   0.00017  -0.00005   0.00012   0.96644
   D20        3.08863   0.00000   0.00014  -0.00001   0.00013   3.08876
   D21       -3.11981  -0.00000   0.00005  -0.00001   0.00004  -3.11977
   D22       -1.02630  -0.00000   0.00004  -0.00000   0.00004  -1.02626
   D23        1.06595   0.00000   0.00005  -0.00000   0.00005   1.06599
   D24        1.03154  -0.00000   0.00006  -0.00003   0.00004   1.03158
   D25        3.12505  -0.00000   0.00005  -0.00002   0.00003   3.12509
   D26       -1.06588   0.00000   0.00006  -0.00002   0.00004  -1.06584
   D27       -1.02537   0.00000   0.00003   0.00001   0.00004  -1.02533
   D28        1.06814   0.00000   0.00002   0.00001   0.00004   1.06818
   D29       -3.12279   0.00000   0.00003   0.00001   0.00004  -3.12275
         Item               Value     Threshold  Converged?
 Maximum Force            0.000002     0.000450     YES
 RMS     Force            0.000001     0.000300     YES
 Maximum Displacement     0.009605     0.001800     NO 
 RMS     Displacement     0.001951     0.001200     NO 
 Predicted change in Energy=-8.966047D-09
 Optimization completed on the basis of negligible forces.
    -- Stationary point found.
                           ----------------------------
                           !   Optimized Parameters   !
                           ! (Angstroms and Degrees)  !
 --------------------------                            --------------------------
 ! Name  Definition              Value          Derivative Info.                !
 --------------------------------------------------------------------------------
 ! R1    R(1,2)                  1.0896         -DE/DX =    0.0                 !
 ! R2    R(1,3)                  1.0851         -DE/DX =    0.0                 !
 ! R3    R(1,4)                  1.0894         -DE/DX =    0.0                 !
 ! R4    R(1,5)                  1.5001         -DE/DX =    0.0                 !
 ! R5    R(5,6)                  1.2048         -DE/DX =    0.0                 !
 ! R6    R(5,7)                  1.3357         -DE/DX =    0.0                 !
 ! R7    R(7,8)                  1.4369         -DE/DX =    0.0                 !
 ! R8    R(8,9)                  1.0919         -DE/DX =    0.0                 !
 ! R9    R(8,10)                 1.0905         -DE/DX =    0.0                 !
 ! R10   R(8,11)                 1.5117         -DE/DX =    0.0                 !
 ! R11   R(11,12)                1.0923         -DE/DX =    0.0                 !
 ! R12   R(11,13)                1.0922         -DE/DX =    0.0                 !
 ! R13   R(11,14)                1.5232         -DE/DX =    0.0                 !
 ! R14   R(14,15)                1.0897         -DE/DX =    0.0                 !
 ! R15   R(14,16)                1.0918         -DE/DX =    0.0                 !
 ! R16   R(14,17)                1.0899         -DE/DX =    0.0                 !
 ! A1    A(2,1,3)              110.1435         -DE/DX =    0.0                 !
 ! A2    A(2,1,4)              107.711          -DE/DX =    0.0                 !
 ! A3    A(2,1,5)              109.4018         -DE/DX =    0.0                 !
 ! A4    A(3,1,4)              110.2693         -DE/DX =    0.0                 !
 ! A5    A(3,1,5)              109.7074         -DE/DX =    0.0                 !
 ! A6    A(4,1,5)              109.5765         -DE/DX =    0.0                 !
 ! A7    A(1,5,6)              125.3252         -DE/DX =    0.0                 !
 ! A8    A(1,5,7)              111.5771         -DE/DX =    0.0                 !
 ! A9    A(6,5,7)              123.0976         -DE/DX =    0.0                 !
 ! A10   A(5,7,8)              116.4639         -DE/DX =    0.0                 !
 ! A11   A(7,8,9)              108.5981         -DE/DX =    0.0                 !
 ! A12   A(7,8,10)             108.5962         -DE/DX =    0.0                 !
 ! A13   A(7,8,11)             107.8996         -DE/DX =    0.0                 !
 ! A14   A(9,8,10)             108.2456         -DE/DX =    0.0                 !
 ! A15   A(9,8,11)             111.4893         -DE/DX =    0.0                 !
 ! A16   A(10,8,11)            111.9249         -DE/DX =    0.0                 !
 ! A17   A(8,11,12)            108.9033         -DE/DX =    0.0                 !
 ! A18   A(8,11,13)            107.3771         -DE/DX =    0.0                 !
 ! A19   A(8,11,14)            112.8414         -DE/DX =    0.0                 !
 ! A20   A(12,11,13)           106.889          -DE/DX =    0.0                 !
 ! A21   A(12,11,14)           110.4327         -DE/DX =    0.0                 !
 ! A22   A(13,11,14)           110.1768         -DE/DX =    0.0                 !
 ! A23   A(11,14,15)           111.0264         -DE/DX =    0.0                 !
 ! A24   A(11,14,16)           110.6956         -DE/DX =    0.0                 !
 ! A25   A(11,14,17)           110.9224         -DE/DX =    0.0                 !
 ! A26   A(15,14,16)           108.0064         -DE/DX =    0.0                 !
 ! A27   A(15,14,17)           108.0647         -DE/DX =    0.0                 !
 ! A28   A(16,14,17)           108.0032         -DE/DX =    0.0                 !
 ! D1    D(2,1,5,6)            119.701          -DE/DX =    0.0                 !
 ! D2    D(2,1,5,7)            -60.1885         -DE/DX =    0.0                 !
 ! D3    D(3,1,5,6)             -1.228          -DE/DX =    0.0                 !
 ! D4    D(3,1,5,7)            178.8825         -DE/DX =    0.0                 !
 ! D5    D(4,1,5,6)           -122.4226         -DE/DX =    0.0                 !
 ! D6    D(4,1,5,7)             57.6879         -DE/DX =    0.0                 !
 ! D7    D(1,5,7,8)            179.7474         -DE/DX =    0.0                 !
 ! D8    D(6,5,7,8)             -0.145          -DE/DX =    0.0                 !
 ! D9    D(5,7,8,9)             57.5971         -DE/DX =    0.0                 !
 ! D10   D(5,7,8,10)           -59.9035         -DE/DX =    0.0                 !
 ! D11   D(5,7,8,11)           178.5848         -DE/DX =    0.0                 !
 ! D12   D(7,8,11,12)           59.3887         -DE/DX =    0.0                 !
 ! D13   D(7,8,11,13)          174.7884         -DE/DX =    0.0                 !
 ! D14   D(7,8,11,14)          -63.6119         -DE/DX =    0.0                 !
 ! D15   D(9,8,11,12)          178.5549         -DE/DX =    0.0                 !
 ! D16   D(9,8,11,13)          -66.0454         -DE/DX =    0.0                 !
 ! D17   D(9,8,11,14)           55.5543         -DE/DX =    0.0                 !
 ! D18   D(10,8,11,12)         -60.0339         -DE/DX =    0.0                 !
 ! D19   D(10,8,11,13)          55.3659         -DE/DX =    0.0                 !
 ! D20   D(10,8,11,14)         176.9655         -DE/DX =    0.0                 !
 ! D21   D(8,11,14,15)        -178.7521         -DE/DX =    0.0                 !
 ! D22   D(8,11,14,16)         -58.8027         -DE/DX =    0.0                 !
 ! D23   D(8,11,14,17)          61.0744         -DE/DX =    0.0                 !
 ! D24   D(12,11,14,15)         59.1029         -DE/DX =    0.0                 !
 ! D25   D(12,11,14,16)        179.0523         -DE/DX =    0.0                 !
 ! D26   D(12,11,14,17)        -61.0706         -DE/DX =    0.0                 !
 ! D27   D(13,11,14,15)        -58.7494         -DE/DX =    0.0                 !
 ! D28   D(13,11,14,16)         61.2001         -DE/DX =    0.0                 !
 ! D29   D(13,11,14,17)       -178.9229         -DE/DX =    0.0                 !
 --------------------------------------------------------------------------------
 GradGradGradGradGradGradGradGradGradGradGradGradGradGradGradGradGradGrad

                          Input orientation:                          
 ---------------------------------------------------------------------
 Center     Atomic      Atomic             Coordinates (Angstroms)
 Number     Number       Type             X           Y           Z
 ---------------------------------------------------------------------
      1          6           0      -12.268995   -0.669038    0.803655
      2          1           0      -12.292960   -1.757953    0.835435
      3          1           0      -12.809497   -0.308570   -0.065502
      4          1           0      -12.734403   -0.300494    1.717121
      5          6           0      -10.844305   -0.203541    0.742284
      6          8           0      -10.363043    0.451169   -0.147270
      7          8           0      -10.149248   -0.607251    1.809068
      8          6           0       -8.765606   -0.222557    1.854873
      9          1           0       -8.704889    0.866298    1.800073
     10          1           0       -8.260340   -0.637047    0.981913
     11          6           0       -8.180490   -0.745500    3.146950
     12          1           0       -8.286061   -1.832474    3.168860
     13          1           0       -7.109738   -0.530978    3.130514
     14          6           0       -8.821967   -0.123948    4.380807
     15          1           0       -8.364034   -0.504706    5.293368
     16          1           0       -8.704239    0.961418    4.371586
     17          1           0       -9.888186   -0.346827    4.419264
 ---------------------------------------------------------------------
                    Distance matrix (angstroms):
                    1          2          3          4          5
     1  C    0.000000
     2  H    1.089643   0.000000
     3  H    1.085133   1.783034   0.000000
     4  H    1.089426   1.759667   1.784222   0.000000
     5  C    1.500065   2.126846   2.127329   2.128891   0.000000
     6  O    2.406610   3.093624   2.563011   3.108745   1.204809
     7  O    2.346913   2.620606   3.268050   2.604915   1.335707
     8  C    3.684853   3.979814   4.477532   3.971952   2.357797
     9  H    4.006614   4.548788   4.659237   4.195863   2.615449
    10  H    4.012744   4.188067   4.679723   4.546541   2.631012
    11  C    4.713041   4.824994   5.651413   4.793805   3.629331
    12  H    4.776143   4.637420   5.765835   4.923643   3.884109
    13  H    5.661384   5.799882   6.538443   5.804107   4.444979
    14  C    4.997514   5.223737   5.975295   4.736407   4.163536
    15  H    5.952583   6.072911   6.965493   5.650785   5.191802
    16  H    5.300566   5.725230   6.176873   4.988069   4.371366
    17  H    4.341049   4.540710   5.352444   3.924879   3.801957
                    6          7          8          9         10
     6  O    0.000000
     7  O    2.234552   0.000000
     8  C    2.648450   1.436856   0.000000
     9  H    2.591129   2.063395   1.091922   0.000000
    10  H    2.623095   2.062291   1.090484   1.768348   0.000000
    11  C    4.128855   2.384334   1.511719   2.164940   2.169222
    12  H    4.530519   2.611833   2.132689   3.054893   2.492478
    13  H    4.721491   3.315216   2.112884   2.503390   2.439594
    14  C    4.817588   2.934126   2.528486   2.766674   3.482984
    15  H    5.874545   3.916357   3.473344   3.768149   4.314732
    16  H    4.840666   3.333957   2.781979   2.573272   3.773860
    17  H    4.659992   2.636114   2.802094   3.119620   3.814380
                   11         12         13         14         15
    11  C    0.000000
    12  H    1.092309   0.000000
    13  H    1.092153   1.754736   0.000000
    14  C    1.523228   2.162192   2.158850   0.000000
    15  H    2.167667   2.506508   2.500378   1.089700   0.000000
    16  H    2.165090   3.070384   2.511959   1.091771   1.764920
    17  H    2.166552   2.517432   3.068316   1.089943   1.764092
                   16         17
    16  H    0.000000
    17  H    1.765080   0.000000
 Symmetry turned off by external request.
 Stoichiometry    C5H10O2
 Framework group  C1[X(C5H10O2)]
 Deg. of freedom    45
 Full point group                 C1      NOp   1
 Rotational constants (GHZ):           5.7049869           1.3939956           1.2161761

 **********************************************************************

            Population analysis using the SCF Density.

 **********************************************************************

 Alpha  occ. eigenvalues --  -19.67160 -19.61827 -10.67489 -10.59056 -10.54260
 Alpha  occ. eigenvalues --  -10.53584 -10.52258  -1.24034  -1.14530  -0.90225
 Alpha  occ. eigenvalues --   -0.84973  -0.78214  -0.69347  -0.65240  -0.58333
 Alpha  occ. eigenvalues --   -0.58120  -0.55997  -0.52087  -0.50489  -0.48766
 Alpha  occ. eigenvalues --   -0.47276  -0.45557  -0.44281  -0.41673  -0.40755
 Alpha  occ. eigenvalues --   -0.40065  -0.37622  -0.36016
 Alpha virt. eigenvalues --    0.05126   0.06508   0.08815   0.10517   0.11554
 Alpha virt. eigenvalues --    0.13495   0.13949   0.15004   0.15199   0.15980
 Alpha virt. eigenvalues --    0.16472   0.17876   0.18710   0.20149   0.22138
 Alpha virt. eigenvalues --    0.23562   0.24424   0.24651   0.26038   0.26568
 Alpha virt. eigenvalues --    0.28960   0.29542   0.30835   0.32786   0.35436
 Alpha virt. eigenvalues --    0.35977   0.40867   0.41098   0.42493   0.42896
 Alpha virt. eigenvalues --    0.43746   0.44710   0.45549   0.46581   0.47056
 Alpha virt. eigenvalues --    0.47809   0.49061   0.49491   0.50327   0.50572
 Alpha virt. eigenvalues --    0.52133   0.53227   0.55024   0.56853   0.57476
 Alpha virt. eigenvalues --    0.59622   0.62847   0.62888   0.64215   0.65419
 Alpha virt. eigenvalues --    0.69837   0.70964   0.74493   0.77218   0.80151
 Alpha virt. eigenvalues --    0.81773   0.83465   0.87126   0.88541   0.89363
 Alpha virt. eigenvalues --    0.90395   0.91578   0.93506   0.96354   0.98992
 Alpha virt. eigenvalues --    1.02039   1.04450   1.05017   1.07904   1.08153
 Alpha virt. eigenvalues --    1.11344   1.13698   1.16406   1.16742   1.20935
 Alpha virt. eigenvalues --    1.22375   1.25115   1.29603   1.37437   1.40989
 Alpha virt. eigenvalues --    1.47009   1.48879   1.53765   1.54010   1.54443
 Alpha virt. eigenvalues --    1.57155   1.57770   1.57948   1.59714   1.60312
 Alpha virt. eigenvalues --    1.61672   1.62854   1.64331   1.65117   1.65848
 Alpha virt. eigenvalues --    1.65910   1.69489   1.73669   1.74258   1.77281
 Alpha virt. eigenvalues --    1.81079   1.83569   1.87480   1.90261   1.90827
 Alpha virt. eigenvalues --    1.91750   1.95002   1.96025   1.99835   2.02602
 Alpha virt. eigenvalues --    2.02827   2.03929   2.09894   2.10684   2.14199
 Alpha virt. eigenvalues --    2.14690   2.18790   2.22509   2.23146   2.27449
 Alpha virt. eigenvalues --    2.29885   2.31027   2.34154   2.34268   2.35401
 Alpha virt. eigenvalues --    2.36795   2.38971   2.39664   2.42188   2.43665
 Alpha virt. eigenvalues --    2.47271   2.48672   2.52674   2.53472   2.56201
 Alpha virt. eigenvalues --    2.58485   2.58821   2.61408   2.62308   2.63989
 Alpha virt. eigenvalues --    2.65483   2.66012   2.68957   2.69873   2.72901
 Alpha virt. eigenvalues --    2.74067   2.75544   2.75926   2.80784   2.85007
 Alpha virt. eigenvalues --    2.87965   2.91504   2.95692   2.97135   2.99155
 Alpha virt. eigenvalues --    2.99899   3.02460   3.06079   3.06762   3.08121
 Alpha virt. eigenvalues --    3.10409   3.11358   3.14022   3.15701   3.16727
 Alpha virt. eigenvalues --    3.17170   3.21759   3.22256   3.25281   3.26555
 Alpha virt. eigenvalues --    3.27522   3.29904   3.30665   3.34037   3.38147
 Alpha virt. eigenvalues --    3.38476   3.39260   3.41398   3.41766   3.44290
 Alpha virt. eigenvalues --    3.45598   3.49076   3.52234   3.53297   3.55102
 Alpha virt. eigenvalues --    3.57407   3.62036   3.66683   3.69411   3.75137
 Alpha virt. eigenvalues --    3.80923   3.81595   3.84034   3.86409   3.88589
 Alpha virt. eigenvalues --    3.89385   3.93776   3.96822   3.98933   4.01997
 Alpha virt. eigenvalues --    4.09761   4.16572   4.26426   4.32636   4.33604
 Alpha virt. eigenvalues --    4.35939   4.37864   4.41464   4.46241   4.51465
 Alpha virt. eigenvalues --    4.55272   4.56614   4.59978   4.61233   4.72742
 Alpha virt. eigenvalues --    4.74879   4.79198   4.84953   5.18506   5.23306
 Alpha virt. eigenvalues --    5.32358   5.44825   5.52071   5.64697   5.68241
 Alpha virt. eigenvalues --    5.82643   5.98727   6.05267   6.14834   6.18372
 Alpha virt. eigenvalues --    6.35084   6.38196   6.51460   6.65664   6.67055
 Alpha virt. eigenvalues --    6.75681   6.84169   6.88379   7.01216   7.10015
 Alpha virt. eigenvalues --    7.27196   7.36298  22.43507  22.44137  22.53738
 Alpha virt. eigenvalues --   22.59363  23.43242  44.00081  44.32209
          Condensed to atoms (all electrons):
               1          2          3          4          5          6
     1  C    5.080072   0.391108   0.416647   0.391906   0.326705  -0.078506
     2  H    0.391108   0.502818  -0.017947  -0.022840  -0.027300   0.001691
     3  H    0.416647  -0.017947   0.503011  -0.018401  -0.051225   0.006054
     4  H    0.391906  -0.022840  -0.018401   0.504070  -0.028016   0.001819
     5  C    0.326705  -0.027300  -0.051225  -0.028016   4.460732   0.641552
     6  O   -0.078506   0.001691   0.006054   0.001819   0.641552   7.909466
     7  O   -0.082909   0.003080   0.005462   0.002453   0.337423  -0.092720
     8  C    0.002296   0.000059  -0.000331   0.000211  -0.050986  -0.011644
     9  H    0.000181   0.000047   0.000014  -0.000139  -0.012328   0.007956
    10  H    0.001253  -0.000147   0.000003   0.000013  -0.003557   0.005018
    11  C    0.001469  -0.000256  -0.000045  -0.000249   0.006350   0.006733
    12  H   -0.000202   0.000035   0.000006   0.000014  -0.000834  -0.000133
    13  H    0.000033   0.000000  -0.000001  -0.000001  -0.000123   0.000084
    14  C    0.000118   0.000034  -0.000006  -0.000020   0.000441  -0.000424
    15  H   -0.000002  -0.000002  -0.000000  -0.000000   0.000051   0.000004
    16  H    0.000002   0.000000   0.000001   0.000012  -0.000282  -0.000021
    17  H   -0.000024  -0.000009   0.000010   0.000066  -0.000175   0.000057
               7          8          9         10         11         12
     1  C   -0.082909   0.002296   0.000181   0.001253   0.001469  -0.000202
     2  H    0.003080   0.000059   0.000047  -0.000147  -0.000256   0.000035
     3  H    0.005462  -0.000331   0.000014   0.000003  -0.000045   0.000006
     4  H    0.002453   0.000211  -0.000139   0.000013  -0.000249   0.000014
     5  C    0.337423  -0.050986  -0.012328  -0.003557   0.006350  -0.000834
     6  O   -0.092720  -0.011644   0.007956   0.005018   0.006733  -0.000133
     7  O    8.030540   0.173321  -0.042583  -0.033301  -0.036449  -0.001404
     8  C    0.173321   5.039328   0.432520   0.427766   0.253741  -0.034901
     9  H   -0.042583   0.432520   0.523111  -0.034568  -0.026307   0.006917
    10  H   -0.033301   0.427766  -0.034568   0.523678  -0.041271  -0.005662
    11  C   -0.036449   0.253741  -0.026307  -0.041271   5.088264   0.426760
    12  H   -0.001404  -0.034901   0.006917  -0.005662   0.426760   0.541241
    13  H    0.004736  -0.050592  -0.000921  -0.003539   0.429620  -0.022577
    14  C    0.000470  -0.051413  -0.017633   0.009947   0.257707  -0.051864
    15  H    0.000331   0.009841  -0.000317  -0.000168  -0.042905  -0.004176
    16  H   -0.000879   0.001059   0.003107   0.000110  -0.040194   0.007106
    17  H    0.007787  -0.013130   0.001282  -0.000197  -0.038435  -0.002774
              13         14         15         16         17
     1  C    0.000033   0.000118  -0.000002   0.000002  -0.000024
     2  H    0.000000   0.000034  -0.000002   0.000000  -0.000009
     3  H   -0.000001  -0.000006  -0.000000   0.000001   0.000010
     4  H   -0.000001  -0.000020  -0.000000   0.000012   0.000066
     5  C   -0.000123   0.000441   0.000051  -0.000282  -0.000175
     6  O    0.000084  -0.000424   0.000004  -0.000021   0.000057
     7  O    0.004736   0.000470   0.000331  -0.000879   0.007787
     8  C   -0.050592  -0.051413   0.009841   0.001059  -0.013130
     9  H   -0.000921  -0.017633  -0.000317   0.003107   0.001282
    10  H   -0.003539   0.009947  -0.000168   0.000110  -0.000197
    11  C    0.429620   0.257707  -0.042905  -0.040194  -0.038435
    12  H   -0.022577  -0.051864  -0.004176   0.007106  -0.002774
    13  H    0.541631  -0.036839  -0.004791  -0.004453   0.006735
    14  C   -0.036839   5.089076   0.416044   0.403560   0.415764
    15  H   -0.004791   0.416044   0.524785  -0.022544  -0.023801
    16  H   -0.004453   0.403560  -0.022544   0.542272  -0.028429
    17  H    0.006735   0.415764  -0.023801  -0.028429   0.528145
 Mulliken charges:
               1
     1  C   -0.450147
     2  H    0.169628
     3  H    0.156748
     4  H    0.169101
     5  C    0.401570
     6  O   -0.396986
     7  O   -0.275358
     8  C   -0.127146
     9  H    0.159662
    10  H    0.154622
    11  C   -0.244532
    12  H    0.142450
    13  H    0.140996
    14  C   -0.434959
    15  H    0.147650
    16  H    0.139573
    17  H    0.147127
 Sum of Mulliken charges =  -0.00000
 Mulliken charges with hydrogens summed into heavy atoms:
               1
     1  C    0.045331
     5  C    0.401570
     6  O   -0.396986
     7  O   -0.275358
     8  C    0.187139
    11  C    0.038913
    14  C   -0.000609
 Electronic spatial extent (au):  <R**2>=          21333.5474
 Charge=             -0.0000 electrons
 Dipole moment (field-independent basis, Debye):
    X=             -0.1262    Y=             -1.3316    Z=              2.1993  Tot=              2.5741
 Quadrupole moment (field-independent basis, Debye-Ang):
   XX=            -33.8415   YY=            -43.3266   ZZ=            -41.7005
   XY=             14.1951   XZ=            -20.1598   YZ=              0.8684
 Traceless Quadrupole moment (field-independent basis, Debye-Ang):
   XX=              5.7814   YY=             -3.7037   ZZ=             -2.0776
   XY=             14.1951   XZ=            -20.1598   YZ=              0.8684
 Octapole moment (field-independent basis, Debye-Ang**2):
  XXX=           1032.0320  YYY=             39.7007  ZZZ=           -246.5132  XYY=            427.7096
  XXY=           -140.2000  XXZ=            109.9696  XZZ=            420.0262  YZZ=             13.9199
  YYZ=            -82.8799  XYZ=             -9.7294
 Hexadecapole moment (field-independent basis, Debye-Ang**3):
 XXXX=         -21037.0443 YYYY=           -130.8670 ZZZZ=          -1606.8275 XXXY=           1281.3354
 XXXZ=            330.5340 YYYX=           -392.9316 YYYZ=             98.5319 ZZZX=           2273.1859
 ZZZY=             88.4413 XXYY=          -4341.2089 XXZZ=          -4573.3028 YYZZ=           -292.0306
 XXYZ=            136.7499 YYXZ=            756.1506 ZZXY=           -146.1526
 N-N= 3.147606686956D+02 E-N=-1.439956070929D+03  KE= 3.453759401467D+02
 Unable to Open any file for archive entry.
 1\1\GINC-R3I1N24\FOpt\RM062X\def2TZVP\C5H10O2\HMAYES\03-Nov-2020\0\\# 
 geom=allcheck guess=read m062x/Def2TZVP nosymm scf=xqc opt=ReadFC freq
 =NoRaman SCRF=(Solvent=AceticAcid,Read) CPHF=Grid=Fine\\For bde calcul
 ations\\0,1\C,-12.268995047,-0.6690376143,0.8036549156\H,-12.292959544
 9,-1.7579534158,0.8354352967\H,-12.8094970129,-0.3085698291,-0.0655020
 438\H,-12.7344027419,-0.3004938738,1.7171206369\C,-10.8443048721,-0.20
 35412349,0.742284481\O,-10.3630433269,0.4511690087,-0.147269933\O,-10.
 149247986,-0.60725123,1.8090683484\C,-8.7656056233,-0.2225566427,1.854
 8730109\H,-8.7048891309,0.8662980233,1.8000727596\H,-8.2603402872,-0.6
[...]
   yx         0.427116D+01      0.632920D+00      0.704218D+00
   yy         0.688115D+02      0.101968D+02      0.113455D+02
   zx         0.357923D+01      0.530387D+00      0.590135D+00
   zy         0.353938D+01      0.524482D+00      0.583565D+00
   zz         0.835106D+02      0.123750D+02      0.137690D+02

 ----------------------------------------------------------------------
 Unable to Open any file for archive entry.
 1\1\GINC-R3I1N24\Freq\RM062X\def2TZVP\C5H10O2\HMAYES\03-Nov-2020\0\\#N
  Geom=AllCheck Guess=TCheck SCRF=Check GenChk RM062X/def2TZVP Freq\\Fo
 r bde calculations\\0,1\C,-12.268995047,-0.6690376143,0.8036549156\H,-
 12.2929595449,-1.7579534158,0.8354352967\H,-12.8094970129,-0.308569829
 1,-0.0655020438\H,-12.7344027419,-0.3004938738,1.7171206369\C,-10.8443
 048721,-0.2035412349,0.742284481\O,-10.3630433269,0.4511690087,-0.1472
 69933\O,-10.149247986,-0.60725123,1.8090683484\C,-8.7656056233,-0.2225
 566427,1.8548730109\H,-8.7048891309,0.8662980233,1.8000727596\H,-8.260
 3402872,-0.6370471962,0.9819131988\C,-8.1804897893,-0.7455000889,3.146
 9501122\H,-8.2860610734,-1.8324744831,3.1688601846\H,-7.1097381814,-0.
 5309783983,3.1305137813\C,-8.8219666798,-0.1239480651,4.3808070138\H,-
 8.364034396,-0.5047063317,5.2933683245\H,-8.7042386331,0.9614180966,4.
 3715856129\H,-9.8881856739,-0.3468267247,4.4192642996\\Version=ES64L-G
 16RevC.01\HF=-347.0056661\RMSD=3.283e-09\RMSF=2.141e-06\ZeroPoint=0.14
 75289\Thermal=0.1561928\ETot=-346.8494733\HTot=-346.8485291\GTot=-346.
 8927458\Dipole=-0.0496664,-0.523901,0.8652579\DipoleDeriv=-0.3190613,-
 0.1217782,0.0234883,-0.1449339,-0.0379298,0.0248982,0.0593778,0.031764
 ,-0.008311,0.0527424,0.027523,-0.0029395,-0.004466,-0.0369237,0.007967
 3,-0.0243557,-0.0001131,0.1142353,0.016573,-0.0031868,-0.0406689,0.021
 8717,0.075875,0.0531082,-0.0770406,0.0419361,-0.0075104,0.0443549,-0.0
 123795,0.018625,0.026532,0.0903335,-0.060494,0.0345355,-0.0525765,-0.0
 065215,1.6935033,0.2788884,0.2878606,0.0468249,0.8052717,-0.8669222,0.
 644931,-0.7181415,1.9657845,-0.8372356,-0.2768416,0.2601252,-0.0745251
 ,-0.7443555,0.5306502,-0.0807884,0.4075962,-1.2187795,-1.5556868,0.048
 5768,-0.7939915,0.0079631,-0.483559,0.3041737,-0.6838924,0.3087903,-1.
 2757366,0.963779,0.0325794,0.3458056,0.1301346,0.3694125,0.0521238,0.1
 312957,-0.0041528,0.414124,-0.032231,0.0436961,-0.0611426,-0.0439111,-
 0.1248938,-0.0004676,-0.0052151,0.0011974,0.0566195,-0.0471014,0.00883
 2,-0.037523,0.0194414,0.0339986,-0.0833547,0.0780686,-0.0597674,-0.103
 0293,0.0736193,0.0028149,-0.03339,0.0213549,0.1204816,0.037371,-0.0491
 945,0.0258126,0.0904598,0.0800285,-0.0295537,0.0174303,0.0168309,-0.16
 20987,-0.006427,-0.0073305,-0.0194069,-0.0001591,-0.1522036,-0.0153165
 ,0.0168475,-0.0479825,0.0706354,-0.001574,0.0059002,-0.0017495,0.00571
 84,0.0462963,0.0210787,0.0094443,0.0361731,0.0791298,-0.0027842,0.0074
 282,-0.0045828,-0.002165,0.0374012,0.0451172,-0.0845951,0.0442925,0.04
 99327,0.0631545,-0.065614,0.0413636,-0.1384744,0.0673452,-0.0288126,0.
 023718,-0.0088778,-0.1633554,-0.0350585,0.0248135,0.0264254,0.0450566,
 -0.1321233,-0.0212378,0.0509057,-0.0467228,0.0580451,-0.0163647,0.0070
 807,-0.024395,0.0686888\Polar=82.7942045,1.8560622,69.5651285,5.209821
 6,-4.8498183,83.2216797\Quadrupole=4.2983028,-2.7536236,-1.5446791,10.
 553687,-14.9882856,0.6456293\PG=C01 [X(C5H10O2)]\NImag=0\\0.50871638,-
 0.02810361,0.55081774,0.02716033,-0.02452513,0.60281093,-0.04547265,-0
 .00651821,-0.00410385,0.04770230,-0.00576212,-0.32221847,0.00775493,0.
 00754295,0.34780302,-0.00380162,0.00901540,-0.04218722,0.00036256,-0.0
 0915687,0.04284691,-0.11703444,0.04500585,-0.10939371,0.00032080,-0.00
 036580,0.00264811,0.12666164,0.04919446,-0.07965860,0.07881068,0.01589
 768,-0.00721754,0.02520800,-0.04989892,0.08077232,-0.11640675,0.076761
 55,-0.23289003,0.00167981,-0.00085493,0.00125499,0.12357373,-0.0841539
 6,0.24667413,-0.09776435,0.04233598,0.09745003,0.00033560,-0.00041333,
 -0.00181083,0.00822472,-0.00729558,-0.01332064,0.10316651,0.04160588,-
 0.07183992,-0.07955233,0.01469764,-0.00987296,-0.02763337,-0.00654479,
 0.00354445,0.00910760,-0.04281625,0.07786048,0.09789415,-0.08060315,-0
 .24127349,-0.00128559,0.00079616,0.00126517,0.01128932,-0.00913182,-0.
 01727462,-0.10867861,0.08698201,0.25826545,-0.20195393,-0.03187080,-0.
 00098703,0.00410234,0.00038171,0.00202284,-0.01268847,-0.00517771,0.00
 348007,-0.01083627,-0.00532547,0.00110564,0.67807010,-0.03213115,-0.09
 868529,-0.00662437,-0.03610055,-0.01071180,0.00279136,0.01356638,0.001
 46227,-0.00073611,0.01547547,0.00358895,0.00273478,0.18335730,0.463860
 69,-0.00120133,-0.00665025,-0.08197398,-0.00063958,0.00177506,-0.00285
 835,-0.02726456,-0.00995197,-0.00017939,0.02989416,0.01158097,-0.00228
 339,-0.09163265,-0.28764806,0.69673227,-0.01400405,-0.03074602,0.03226
 914,-0.00641883,-0.00180371,0.00193007,0.00351227,0.00078388,0.0008073
 1,-0.00415463,-0.00259869,0.00100859,-0.23379837,-0.15015692,0.1825640
 6,0.22006795,-0.01835992,0.00663007,0.02570096,0.00156512,0.00066551,-
 0.00039698,0.00044412,0.00011005,-0.00060931,-0.00539192,-0.00295307,-
 0.00082120,-0.16062605,-0.27221397,0.24649576,0.17488829,0.27649868,0.
 01051914,0.01904263,-0.00059266,0.00340808,-0.00071140,0.00018497,0.00
 115064,-0.00055200,0.00108902,-0.00109002,-0.00059420,0.00130982,0.200
 70128,0.25186166,-0.41636744,-0.20579053,-0.33388337,0.50639423,-0.035
 41911,0.00892680,-0.04011178,-0.00051943,0.00080203,-0.00148149,-0.008
 97557,-0.00307470,-0.00011604,0.00076579,0.00085308,-0.00161062,-0.177
 33747,0.00893154,-0.07208468,0.03246918,0.01274647,-0.02109810,0.45643
 516,-0.00693119,0.01230783,-0.00447935,0.00225578,0.00110775,0.0002290
 4,-0.00252237,0.00026888,0.00018038,-0.00132189,-0.00011143,-0.0001993
 3,0.00995264,-0.09374827,0.04676172,0.00575310,-0.00434872,0.06367930,
 0.04415008,0.16578206,-0.01271301,0.00372540,-0.00163181,0.00020679,0.
 00038286,-0.00045944,-0.00096719,-0.00011179,0.00086588,-0.00200287,0.
 00011525,-0.00037531,-0.07433827,0.04646841,-0.18903359,-0.00881293,0.
 06707903,-0.09137616,0.11862315,-0.12644848,0.36558651,0.00451425,0.00
 005186,-0.00009859,-0.00006942,-0.00053784,0.00025764,0.00098465,-0.00
 022874,0.00046841,0.00022941,0.00006897,0.00039562,-0.04509197,0.01078
 997,-0.04229113,-0.00206997,-0.01042147,0.01986440,-0.17516762,-0.0352
 4725,0.00772787,0.45772077,0.00070268,0.00301205,0.00385545,0.00071372
 ,0.00045759,-0.00007615,0.00055056,0.00078003,0.00035382,-0.00072523,-
 0.00023994,0.00033377,0.00872414,0.00804750,-0.00908519,0.00235201,-0.
 00702914,0.00272800,-0.04594180,-0.08869897,0.00963497,-0.03312135,0.6
 0523192,-0.00147457,0.00362974,-0.00202985,0.00048726,0.00008370,0.000
 00170,-0.00096236,-0.00009617,0.00048127,-0.00041520,-0.00007498,0.000
 39618,-0.03906774,-0.00776640,-0.00657970,-0.00280852,-0.00398748,-0.0
 0057971,0.02672235,0.01564406,-0.08265244,-0.03655564,0.01809002,0.581
 47375,-0.00058273,0.00079158,0.00018418,0.00014220,0.00018657,-0.00007
 893,-0.00022714,0.00010498,-0.00003098,-0.00015252,-0.00003679,0.00000
 703,0.00234128,-0.00480298,0.00686060,0.00053607,0.00146454,-0.0028987
 1,-0.02150062,-0.04042307,-0.00405483,-0.04816624,0.00067288,0.0026619
 9,0.06293818,-0.00010035,-0.00020250,-0.00051819,0.00000062,0.00005049
 ,0.00000595,-0.00011718,0.00000901,-0.00000393,0.00010694,0.00002559,-
 0.00004386,0.00132745,-0.00152734,0.00473476,0.00146280,0.00142539,-0.
 00106066,-0.01194234,-0.00543524,-0.00132509,-0.00798855,-0.31291545,0
 .00854120,0.01433658,0.33802222,-0.00012043,0.00029551,0.00012008,0.00
 004847,0.00002778,-0.00005829,-0.00004005,-0.00001127,-0.00001481,-0.0
 0005259,-0.00000941,-0.00003093,-0.00093586,-0.00183712,0.00212562,0.0
 0084225,0.00014612,-0.00064161,-0.00101664,0.00008598,-0.00008678,0.00
 189949,0.00985487,-0.05157759,0.00082461,-0.01354205,0.05202272,-0.000
 23290,-0.00054807,-0.00069072,-0.00013246,-0.00002112,-0.00002824,-0.0
 0018147,-0.00012019,-0.00015753,0.00017810,0.00005328,-0.00017325,0.00
 185119,-0.00364658,0.00939955,0.00169273,0.00218266,-0.00291640,-0.038
 12865,0.00971885,0.02165297,-0.09737423,0.04504842,0.09072337,0.002802
 51,0.00085405,-0.00060765,0.12149848,0.00004224,-0.00030571,-0.0000790
 5,-0.00006437,-0.00006302,0.00002035,0.00001044,-0.00002854,-0.0000453
 8,0.00003630,-0.00001141,-0.00002128,0.00088519,0.00109761,-0.00025457
 ,-0.00125202,-0.00008619,-0.00028364,-0.00938010,0.00630746,0.01049998
 ,0.05003605,-0.09730465,-0.08771275,0.01403739,-0.01167444,-0.02542737
 ,-0.04843825,0.09550884,0.00023566,-0.00069199,-0.00017317,-0.00015269
 ,-0.00006751,-0.00000078,0.00002151,0.00001429,-0.00000867,0.00004225,
 0.00005985,-0.00002716,-0.00148908,0.00071696,0.00008752,-0.00061155,0
 .00017448,0.00050970,0.00095779,0.00383295,0.00518544,0.09702051,-0.08
 678629,-0.22261019,-0.00125703,0.00096573,0.00145181,-0.10385344,0.091
 28151,0.23800626,-0.00072464,0.00060294,-0.00163128,0.00002978,-0.0000
 0409,-0.00001184,-0.00053352,-0.00016855,0.00000981,0.00004812,0.00003
 634,0.00002345,-0.00601813,-0.00454414,0.00525292,0.00279681,0.0009882
 1,-0.00086263,-0.03509461,0.01316631,-0.04087838,-0.08692717,0.0159767
 0,-0.03067620,0.00186115,0.00105127,0.00095567,0.00786174,-0.00609756,
 0.01158110,0.57887972,-0.00033863,0.00035203,-0.00053316,0.00000327,-0
 .00000602,-0.00002290,-0.00025112,-0.00007484,0.00000269,-0.00002505,0
 .00000716,-0.00003318,-0.00176068,-0.00225345,0.00299753,0.00114519,0.
 00151904,-0.00040563,-0.00830656,0.00534939,-0.01180224,0.02387218,-0.
 10459241,0.04477903,0.01430299,-0.01030022,0.02887642,-0.00665448,0.00
 511656,-0.01226845,0.02991540,0.58211494,0.00014655,-0.00009402,0.0003
 0293,0.00003500,-0.00000973,0.00003140,0.00016138,0.00004708,0.0000035
 8,0.00001858,-0.00000539,0.00001528,0.00108229,0.00118470,-0.00181078,
 -0.00069363,-0.00034054,0.00103780,-0.00544005,-0.00108809,0.00005081,
 -0.04312872,0.04375868,-0.18229920,-0.00032678,0.00060635,-0.00193007,
 -0.01111510,0.01139038,-0.02021166,-0.00119190,-0.00679082,0.48097189,
 0.00005842,-0.00004436,0.00007362,-0.00001167,-0.00001203,-0.00000717,
 0.00003661,0.00000043,0.00000824,-0.00000070,0.00000825,0.00000570,-0.
 00003662,0.00042987,-0.00086204,-0.00034877,-0.00030830,0.00023863,0.0
 0211886,0.00030475,0.00146468,-0.00072390,0.01469788,-0.00184956,-0.00
 033459,0.00112077,-0.00221784,0.00015377,-0.00061183,0.00044863,-0.051
 61128,-0.02944743,0.00116728,0.05152353,0.00003183,-0.00005007,-0.0000
 0359,0.00001112,0.00000654,0.00001270,0.00002259,0.00000860,-0.0000038
 4,0.00001262,-0.00000299,0.00000200,-0.00010108,0.00009243,0.00008932,
 0.00021164,0.00013855,-0.00008609,-0.00001964,0.00115595,-0.00059287,-
 0.00187808,-0.01348743,0.00122797,0.00064309,0.00077434,0.00210591,0.0
 0013043,0.00065801,0.00032597,-0.02723019,-0.30831591,0.00649723,0.028
 88505,0.33541903,-0.00001652,0.00000536,0.00003755,-0.00001613,-0.0000
 0370,0.00000088,-0.00000364,0.00000138,-0.00000110,-0.00001456,-0.0000
 0672,0.00000360,0.00043795,0.00019879,-0.00030481,-0.00054205,-0.00027
 725,-0.00019436,0.00162319,-0.00129293,0.00174720,0.00354936,0.0326328
 8,-0.00257328,-0.00313880,0.00135912,-0.00434759,0.00064888,-0.0005463
 4,0.00109259,-0.00006579,0.00500854,-0.04789990,-0.00133188,-0.0069597
 6,0.05616894,-0.00007983,0.00010223,-0.00018135,-0.00000715,0.00000185
 ,0.,-0.00008324,-0.00002494,0.00000173,-0.00000685,-0.00000523,-0.0000
 0242,0.00013508,-0.00087855,0.00157577,0.00016504,0.00041203,-0.000631
 26,-0.00100672,0.00166293,-0.00383219,-0.01333311,-0.00398768,0.002093
 77,0.00026628,0.00038187,0.00009300,0.00055362,-0.00015625,-0.00028653
 ,-0.30078969,-0.05251527,0.00001295,-0.00238199,-0.00093406,-0.0000866
 4,0.32762147,0.00010051,-0.00015029,0.00016815,-0.00001695,-0.00000073
 ,0.00000604,0.00007528,0.00001939,-0.00000498,0.00000727,-0.00000230,-
 0.00000043,0.00060516,0.00080673,-0.00035871,-0.00018627,-0.00014297,-
 0.00000573,0.00168368,-0.00011193,0.00273253,0.01155483,0.00114508,-0.
 00089212,-0.00036994,0.00005934,-0.00068588,-0.00030114,0.00038375,-0.
 00028967,-0.05422184,-0.05937928,0.00149461,-0.03134225,-0.00554390,-0
 .00059071,0.05661682,0.05999300,-0.00025586,0.00018434,-0.00054836,-0.
 00000817,-0.00000235,-0.00001269,-0.00021161,-0.00006459,-0.00000590,0
 .00000174,0.00001317,-0.00000582,-0.00093921,-0.00154601,0.00256777,0.
 00048550,0.00063453,-0.00090489,-0.00598940,0.00322078,-0.00751257,-0.
 02539133,-0.00828007,0.00235188,0.00054168,0.00035195,0.00088144,0.000
 51914,-0.00086486,0.00071798,0.00179489,0.00256944,-0.04735683,0.00152
 839,0.00023984,-0.00090828,-0.00172187,0.00011632,0.05474580,-0.000058
 41,0.00004227,-0.00001750,0.00000289,-0.00001020,-0.00001567,-0.000026
 75,-0.00000588,0.00001511,-0.00004117,0.00001434,-0.00002637,0.0002796
 6,0.00031089,-0.00038779,-0.00054672,-0.00011995,-0.00005028,0.0008034
 8,-0.00023183,0.00040135,0.00846066,-0.00710633,-0.01026253,0.00000993
 ,-0.00027882,0.00035154,-0.00092554,0.00109703,-0.00349325,-0.10390907
 ,0.02338623,0.04417045,0.00119135,-0.00115117,-0.00308141,-0.01246947,
 0.01486610,0.02886384,0.56141213,0.00009552,-0.00001599,0.00007317,0.0
 0001749,0.00000126,0.00000656,0.00005643,0.00001818,0.00001388,0.00000
 731,0.00000271,-0.00000312,-0.00076833,0.00058098,-0.00105172,0.000315
 70,-0.00048852,0.00059291,0.00092909,0.00025164,0.00065436,-0.00780976
 ,0.00561208,0.00891579,-0.00050309,0.00122962,0.00116677,0.00186279,-0
 .00035679,0.00328044,0.02354516,-0.10310862,-0.04355302,0.01526359,-0.
 01231651,-0.02866749,-0.00218794,0.00237594,0.00550945,0.01568504,0.55
 788677,0.00004948,-0.00007372,0.00010838,-0.00001412,-0.00000820,-0.00
 000416,0.00002841,0.00000186,-0.00000602,0.00001140,0.00000425,0.00000
 848,0.00076497,0.00016801,0.00000994,-0.00044267,0.00015611,0.00000264
 ,0.00188499,-0.00046070,0.00037919,0.01129392,-0.01238243,-0.03400550,
 0.00080608,-0.00081827,0.00212206,-0.00249258,0.00142044,-0.00310451,0
 .04296580,-0.04066173,-0.15751897,0.00004996,-0.00052703,-0.00048025,0
 .00090383,-0.00057402,-0.00166292,0.03524021,-0.03580654,0.52177186,-0
 .00000524,-0.00000227,0.00002777,-0.00000056,0.00000181,-0.00000342,0.
 00000335,0.00000059,-0.00000905,0.00001570,0.00000193,0.00000352,0.000
 32214,-0.00022686,0.00041211,0.00006898,0.00018409,-0.00022694,0.00026
 586,-0.00008657,-0.00082210,-0.00206096,0.00169492,0.00276447,-0.00010
 641,0.00008838,-0.00011618,0.00038212,-0.00012518,0.00084836,0.0062993
 3,-0.00661566,0.01403286,0.00034540,-0.00012819,-0.00074426,0.00068383
 ,-0.00064526,-0.00061485,-0.09675208,0.04160613,-0.09849979,0.10143318
 ,-0.00001448,0.00000108,-0.00001086,-0.00000328,0.00000085,0.00000008,
 -0.00000884,-0.00000344,-0.00000082,-0.00000641,-0.00000457,0.00000158
 ,0.00020242,-0.00009907,0.00013405,-0.00013504,0.00011224,-0.00013367,
 0.00009370,0.00007071,-0.00009607,0.00146894,-0.00109097,-0.00200442,-
 0.00000144,0.00028894,-0.00025470,-0.00021859,0.00045718,-0.00060846,-
 0.00715792,0.00476109,-0.01294598,-0.00060414,0.00049150,0.00057433,-0
 .00015694,0.00032231,0.00075149,0.04158219,-0.08158114,0.08195169,-0.0
 4653804,0.08433783,-0.00007658,0.00000948,-0.00005759,-0.00001018,-0.0
 0000033,-0.00000650,-0.00004411,-0.00001077,-0.00000580,-0.00000979,-0
 .00000019,-0.00000861,0.00054138,-0.00025012,0.00072908,-0.00023647,0.
 00020872,-0.00038578,-0.00033618,0.00019785,-0.00017965,0.00420937,-0.
 00363985,-0.00303769,0.00010386,-0.00009346,0.00029841,-0.00094581,0.0
 0043498,-0.00138227,-0.01179443,0.01043851,-0.02108517,-0.00041721,-0.
 00028525,0.00087443,0.00013462,0.00057512,0.00104181,-0.09687938,0.080
 48019,-0.23444204,0.10452031,-0.08684898,0.25590534,0.00000490,0.00000
 369,-0.00000220,-0.00000098,0.00000681,0.00001115,0.00000289,0.0000018
 3,-0.00000366,-0.00000485,-0.00001743,0.00000579,0.00006164,-0.0000531
 6,-0.00000919,0.00002020,0.00006121,-0.00002858,-0.00020399,0.00010177
 ,-0.00007063,0.00034242,-0.00040940,-0.00080398,0.00012794,-0.00030710
 ,-0.00003622,-0.00012960,-0.00004413,-0.00012356,0.00104212,0.01597842
 ,-0.00015884,-0.00041157,0.00123445,0.00289491,0.00039685,0.00005995,-
 0.00086299,-0.05129639,-0.03193177,0.00020270,0.00114279,0.01440299,0.
 00066990,0.05079501,-0.00002020,0.00000695,-0.00003048,0.00000119,0.00
 000597,0.00000819,-0.00001368,-0.00000143,-0.00000438,-0.00000562,-0.0
 0001128,0.00000242,0.00019113,-0.00020350,0.00025155,-0.00004340,0.000
 13769,-0.00017771,-0.00032557,-0.00003152,-0.00048961,-0.00005574,0.00
 080279,0.00103693,-0.00036612,0.00018777,-0.00074932,0.00006695,0.0003
 6001,-0.00000859,-0.00112247,-0.01397290,-0.00004223,0.00163082,0.0004
 8199,-0.00233913,0.00031247,0.00051856,0.00009907,-0.03097391,-0.30996
 691,0.00528725,-0.00148576,-0.01006177,-0.00000155,0.03267655,0.337259
 48,0.00000733,-0.00000090,-0.00000987,0.00000388,0.00000090,0.00000136
 ,0.00000132,-0.00000076,0.00000071,-0.00000041,0.00000012,0.00000189,-
 0.00009564,-0.00001321,-0.00007700,0.00002510,0.00002371,0.00001294,-0
 .00002824,0.00027788,-0.00000402,-0.00038551,-0.00159896,0.00199355,-0
 .00009148,0.00076348,-0.00023638,0.00020181,0.00029945,0.00027170,-0.0
 0352220,-0.02858624,-0.00099820,0.00252380,-0.00224944,-0.00434797,-0.
 00026984,0.00077909,0.00107745,0.00008857,0.00653395,-0.04680588,0.004
 59086,0.02657513,0.00026869,-0.00289028,-0.00316925,0.05007499,0.00003
 833,-0.00002986,0.00005294,-0.00000275,0.00000651,0.00000685,0.0000036
 8,0.00001137,0.00000043,-0.00000261,0.00000494,0.00003805,0.00059779,-
 0.00032051,0.00041378,0.00001213,0.00029088,-0.00028873,0.00049547,-0.
 00030203,-0.00158442,-0.00126760,0.00015788,-0.00057693,0.00004473,0.0
 0000361,0.00012842,0.00013058,0.00002506,0.00011132,-0.01321067,-0.002
 68880,0.00122768,0.00043314,0.00025959,-0.00011259,0.00033587,0.001514
 06,0.00226011,-0.30613451,-0.05618339,0.00724742,-0.01203743,-0.002905
 14,0.00057070,-0.00188938,-0.00046664,-0.00015908,0.33245325,-0.000011
 44,-0.00000092,-0.00000683,-0.00000322,-0.00000847,-0.00001740,-0.0000
 0895,-0.00000880,-0.00000229,0.00001937,0.00002053,0.00000464,0.000002
 97,-0.00009447,0.00017972,0.00000946,0.00002534,-0.00001039,-0.0001257
 6,-0.00011559,-0.00042664,-0.00055401,0.00026991,0.00058587,-0.0000371
 7,-0.00001752,-0.00004223,0.00003101,-0.00005867,0.00006877,0.01526442
 ,0.00278343,-0.00010918,0.00002893,0.00048986,0.00090363,0.00135667,-0
 .00029270,-0.00293249,-0.05710602,-0.06012469,0.00232303,0.01227595,0.
 00199722,-0.00121435,-0.03176468,-0.00551190,0.00036506,0.06062247,0.0
 6064744,0.00005403,-0.00003027,-0.00001184,-0.00000154,-0.00000636,0.0
 0000006,0.00001282,0.00000180,0.00001676,-0.00002262,0.00001339,0.0000
 1346,-0.00065095,0.00029674,-0.00078376,0.00000635,-0.00030329,0.00050
 148,-0.00049826,-0.00014106,-0.00050326,0.00116433,0.00060648,0.001246
 83,-0.00011250,0.00007697,-0.00009807,-0.00016500,-0.00011188,0.000195
 40,0.02805101,0.00643220,-0.00130291,-0.00082324,0.00020694,0.00113235
 ,0.00219644,-0.00246960,-0.00446586,0.00508310,0.00185441,-0.04637231,
 -0.02616368,-0.00708439,0.00147337,0.00120569,0.00032683,-0.00122397,-
 0.00933597,0.00033109,0.05018227\\-0.00000187,-0.00000175,0.00000223,0
 .00000093,-0.00000334,0.00000098,-0.00000222,-0.00000253,0.00000393,-0
 .00000011,-0.00000511,0.00000394,-0.00000246,0.00000057,0.00000030,-0.
 00000323,0.00000155,0.00000157,-0.00000073,-0.00000025,0.00000016,-0.0
 0000058,0.00000204,-0.00000095,-0.00000251,0.00000217,0.00000007,-0.00
 000093,0.00000366,-0.00000187,0.00000155,0.00000171,-0.00000210,0.0000
 0328,0.00000152,-0.00000305,0.00000118,0.00000346,-0.00000302,0.000001
 84,-0.00000050,-0.00000086,0.00000345,-0.00000069,-0.00000163,0.000000
 14,-0.00000029,0.00000016,0.00000228,-0.00000224,0.00000013\\\@
 The archive entry for this job was punched.

 Job cpu time:       0 days  1 hours 20 minutes 58.3 seconds.
 Elapsed time:       0 days  0 hours  2 minutes 16.0 seconds.
 File lengths (MBytes):  RWF=    188 Int=      0 D2E=      0 Chk=     17 Scr=      1
 Normal termination of Gaussian 16 at Tue Nov  3 11:26:44 2020.
