 Entering Gaussian System, Link 0=g16
 Initial command:
 /nopt/nrel/apps/gaussian/g16B/g16/l1.exe "/dev/shm/Gau-3654.inp" -scrdir="/dev/shm/"
 Default is to use a total of  36 processors:
                               36 via shared-memory
                                1 via Linda
 Entering Link 1 = /nopt/nrel/apps/gaussian/g16B/g16/l1.exe PID=      3655.
  
 Copyright (c) 1988-2017, Gaussian, Inc.  All Rights Reserved.
 ...
 ******************************************
 Gaussian 16:  ES64L-G16RevB.01 20-Dec-2017
                 9-Aug-2020 
 ******************************************
 %RWF=/dev/shm/,5GB,/scratch/hmayes/ti_eg5_dime_tpa_tse_3927208/,-1
 %NoSave
 %Chk=/dev/shm/ti_eg5_dime_tpa_tse.chk
 %CPU=0-35
 SetSPE:  set environment variable "MP_BIND" = "yes"
 SetSPE:  set environment variable "MP_BLIST" = "0,1,2,3,4,5,6,7,8,9,10,11,12,13,14,15,16,17,18,19,20,21,22,23,24,25,26,27,28,29,30,31,32,33,34,35"
 Will use up to   36 processors via shared memory.
 %Mem=593967312KB
 Default route: CacheSize=180224 MaxDisk=256GB
 ----------------------------------------------------------------------
 # m062x/Def2TZVP nosymm scf=(xqc,maxconventionalcycles=400) opt=(TS,Ca
 lcFC,noeigentest,maxcycles=200,Modredundant) freq=NoRaman CPHF=Grid=Fi
 ne SCRF=(Solvent=1,2-EthaneDiol,Read)
 ----------------------------------------------------------------------
 1/4=180224,5=1,6=200,10=4,11=1,18=120,26=3,38=1,40=2/1,3;
 2/4=180224,9=110,12=2,15=1,17=6,18=5,40=1/2;
 3/4=180224,5=44,7=101,11=2,25=1,30=1,70=2203,71=2,72=30,74=-55,140=1/1,2,3;
 4/4=180224/1;
 5/4=180224,5=2,8=3,13=1,38=5,53=30,85=400/2,8;
 8/4=180224,6=4,10=90,11=11/1;
 11/4=180224,6=1,8=1,9=11,15=111,16=1,31=1/1,2,10;
 10/4=180224,6=1,13=1,31=1,60=4/2;
 6/4=180224,7=2,8=2,9=2,10=2,28=1/1;
 7/4=180224,10=1,18=20,25=1,30=1/1,2,3,16;
 1/4=180224,5=1,6=200,10=4,11=1,18=20,26=3/3(2);
 2/4=180224,9=110,15=1/2;
 99/4=180224/99;
 2/4=180224,9=110,15=1/2;
 3/4=180224,5=44,7=101,11=2,25=1,30=1,70=2205,71=1,72=30,74=-55/1,2,3;
 4/4=180224,5=5,16=3,69=1/1;
 5/4=180224,5=2,8=3,13=1,38=5,53=30,85=400/2,8;
 7/4=180224,30=1/1,2,3,16;
 1/4=180224,5=1,6=200,11=1,18=20,26=3/3(-5);
 2/4=180224,9=110,15=1/2;
 6/4=180224,7=2,8=2,9=2,10=2,19=2,28=1/1;
 99/4=180224,9=1/99;
 --------------------------------------------------
 attempt ts based ti_eg5_dime_tpa_tsc_ts.log step 5
 --------------------------------------------------
 Symbolic Z-matrix:
 Charge =  0 Multiplicity = 1
 O                     7.1836   -4.1878    0.14251 
 Ti                    5.62772  -5.19212   0.33353 
 O                     5.75651  -5.73414  -3.7172 
 O                     6.61428  -6.84701   0.25845 
 O                     4.68226  -3.71563   1.06727 
 C                     5.15896  -2.4414    1.40071 
 C                     4.01077  -1.4455    1.34901 
 C                     8.52787  -4.33438   0.46423 
 C                     8.83115  -3.66915   1.79924 
 O                     10.19733  -3.80227   2.15718 
 C                     6.55342  -7.68278   1.38351 
 C                     6.87362  -6.81704   2.58908 
 O                     6.14541  -5.59236   2.42737 
 C                     6.52401  -6.79508  -3.10603 
 C                     7.8607   -6.27685  -2.5889 
 O                     8.4408   -7.22053  -1.71953 
 H                     8.80421  -5.3972    0.51387 
 H                     9.15228  -3.87046  -0.31354 
 H                     8.531    -2.61707   1.75434 
 H                     8.24792  -4.15107   2.58454 
 H                     7.69502  -5.32596  -2.07078 
 H                     5.54715  -8.10535   1.48606 
 H                     7.27154  -8.50499   1.30224 
 H                     6.61571  -7.28878   3.53703 
 H                     7.93123  -6.54993   2.59554 
 H                     5.58206  -2.44799   2.41637 
 H                     5.95542  -2.12356   0.72086 
 H                     3.21874  -1.75823   2.03832 
 H                     3.59002  -1.4272    0.34252 
 O                     4.44509  -0.12654   1.63394 
 H                     7.89517  -7.16919  -0.90696 
 H                     4.76145  -0.09933   2.54303 
 H                     10.72908  -3.31607   1.5185 
 H                     5.28105  -5.59952   2.90527 
 H                     6.16742  -4.44053  -4.04319 
 C                     4.93901  -4.97384  -2.83117 
 O                     5.25886  -4.97     -1.62499 
 C                     2.59384  -4.39398  -2.30804 
 C                     3.49129  -4.94158  -3.217 
 C                     1.24801  -4.32348  -2.62598 
 C                     3.05035  -5.428    -4.44294 
 C                     0.80312  -4.80527  -3.85387 
 C                     1.70325  -5.35871  -4.75901 
 H                     3.75473  -5.86302  -5.13821 
 H                     6.64574  -7.55341  -3.87548 
 H                     8.54593  -6.10257  -3.42002 
 H                     5.9462   -7.20494  -2.27863 
 O                     4.0467   -6.19691   0.59441 
 C                     2.77986  -5.94908   1.11003 
 C                     2.759    -6.05821   2.62291 
 O                     3.65682  -5.12156   3.22079 
 H                     3.07815  -7.05548   2.93322 
 H                     1.74367  -5.88477   2.99067 
 H                     3.78007  -4.3922    2.58184 
 H                     2.43631  -4.94018   0.83623 
 H                     2.05473  -6.66376   0.70276 
 H                     0.5443   -3.9      -1.92355 
 H                     2.95524  -4.03857  -1.35229 
 C                    -0.63679  -4.75068  -4.24216 
 O                    -1.06069  -5.12934  -5.3059 
 O                    -1.40702  -4.23587  -3.28799 
 H                     1.33281  -5.73278  -5.70501 
 O                     5.57999  -3.57516  -3.61845 
 C                     6.28242  -2.69655  -2.73653 
 H                     5.54845  -2.28013  -2.04736 
 H                     7.04277  -3.22823  -2.16675 
 H                     6.72224  -1.90417  -3.33706 
 C                    -2.80207  -4.14562  -3.59153 
 H                    -3.20638  -5.13614  -3.79095 
 H                    -3.26811  -3.7123   -2.71301 
 H                    -2.95491  -3.50816  -4.46036 
 
 Add virtual bond connecting atoms H35        and O3         Dist= 2.64D+00.
 The following ModRedundant input section has been read:
 B      36      62 F                                                           
 B      35      63 F                                                           
 B       3      35 F                                                           
 B      36      63 F                                                           
 

 GradGradGradGradGradGradGradGradGradGradGradGradGradGradGradGradGradGrad
 Berny optimization.
 Initialization pass.
                           ----------------------------
                           !    Initial Parameters    !
                           ! (Angstroms and Degrees)  !
 --------------------------                            --------------------------
 ! Name  Definition              Value          Derivative Info.                !
 --------------------------------------------------------------------------------
 ! R1    R(1,2)                  1.8617         calculate D2E/DX2 analytically  !
 ! R2    R(1,8)                  1.39           calculate D2E/DX2 analytically  !
 ! R3    R(2,4)                  1.9281         calculate D2E/DX2 analytically  !
 ! R4    R(2,5)                  1.9006         calculate D2E/DX2 analytically  !
 ! R5    R(2,13)                 2.1937         calculate D2E/DX2 analytically  !
 ! R6    R(2,37)                 2.0053         calculate D2E/DX2 analytically  !
 ! R7    R(2,48)                 1.8914         calculate D2E/DX2 analytically  !
 ! R8    R(3,14)                 1.4451         calculate D2E/DX2 analytically  !
 ! R9    R(3,35)                 1.3959         frozen, calculate D2E/DX2 analyt!
 ! R10   R(3,36)                 1.4253         calculate D2E/DX2 analytically  !
 ! R11   R(4,11)                 1.4028         calculate D2E/DX2 analytically  !
 ! R12   R(5,6)                  1.4007         calculate D2E/DX2 analytically  !
 ! R13   R(6,7)                  1.5208         calculate D2E/DX2 analytically  !
 ! R14   R(6,26)                 1.1003         calculate D2E/DX2 analytically  !
 ! R15   R(6,27)                 1.0943         calculate D2E/DX2 analytically  !
 ! R16   R(7,28)                 1.0956         calculate D2E/DX2 analytically  !
 ! R17   R(7,29)                 1.0911         calculate D2E/DX2 analytically  !
 ! R18   R(7,30)                 1.4176         calculate D2E/DX2 analytically  !
 ! R19   R(8,9)                  1.5221         calculate D2E/DX2 analytically  !
 ! R20   R(8,17)                 1.0993         calculate D2E/DX2 analytically  !
 ! R21   R(8,18)                 1.1            calculate D2E/DX2 analytically  !
 ! R22   R(9,10)                 1.4185         calculate D2E/DX2 analytically  !
 ! R23   R(9,19)                 1.095          calculate D2E/DX2 analytically  !
 ! R24   R(9,20)                 1.0905         calculate D2E/DX2 analytically  !
 ! R25   R(10,33)                0.9628         calculate D2E/DX2 analytically  !
 ! R26   R(11,12)                1.5184         calculate D2E/DX2 analytically  !
 ! R27   R(11,22)                1.0962         calculate D2E/DX2 analytically  !
 ! R28   R(11,23)                1.0947         calculate D2E/DX2 analytically  !
 ! R29   R(12,13)                1.434          calculate D2E/DX2 analytically  !
 ! R30   R(12,24)                1.0898         calculate D2E/DX2 analytically  !
 ! R31   R(12,25)                1.0908         calculate D2E/DX2 analytically  !
 ! R32   R(13,34)                0.9877         calculate D2E/DX2 analytically  !
 ! R33   R(14,15)                1.5241         calculate D2E/DX2 analytically  !
 ! R34   R(14,45)                1.0872         calculate D2E/DX2 analytically  !
 ! R35   R(14,47)                1.0892         calculate D2E/DX2 analytically  !
 ! R36   R(15,16)                1.4081         calculate D2E/DX2 analytically  !
 ! R37   R(15,21)                1.0955         calculate D2E/DX2 analytically  !
 ! R38   R(15,46)                1.0912         calculate D2E/DX2 analytically  !
 ! R39   R(16,31)                0.9801         calculate D2E/DX2 analytically  !
 ! R40   R(30,32)                0.9629         calculate D2E/DX2 analytically  !
 ! R41   R(35,63)                1.1289         frozen, calculate D2E/DX2 analyt!
 ! R42   R(36,37)                1.2479         calculate D2E/DX2 analytically  !
 ! R43   R(36,39)                1.4986         calculate D2E/DX2 analytically  !
 ! R44   R(36,62)                4.6733         frozen, calculate D2E/DX2 analyt!
 ! R45   R(36,63)                1.7283         frozen, calculate D2E/DX2 analyt!
 ! R46   R(38,39)                1.3898         calculate D2E/DX2 analytically  !
 ! R47   R(38,40)                1.3847         calculate D2E/DX2 analytically  !
 ! R48   R(38,58)                1.0818         calculate D2E/DX2 analytically  !
 ! R49   R(39,41)                1.3907         calculate D2E/DX2 analytically  !
 ! R50   R(40,42)                1.392          calculate D2E/DX2 analytically  !
 ! R51   R(40,57)                1.0807         calculate D2E/DX2 analytically  !
 ! R52   R(41,43)                1.3854         calculate D2E/DX2 analytically  !
 ! R53   R(41,44)                1.0811         calculate D2E/DX2 analytically  !
 ! R54   R(42,43)                1.3913         calculate D2E/DX2 analytically  !
 ! R55   R(42,59)                1.4923         calculate D2E/DX2 analytically  !
 ! R56   R(43,62)                1.0826         calculate D2E/DX2 analytically  !
 ! R57   R(48,49)                1.39           calculate D2E/DX2 analytically  !
 ! R58   R(49,50)                1.517          calculate D2E/DX2 analytically  !
 ! R59   R(49,55)                1.1004         calculate D2E/DX2 analytically  !
 ! R60   R(49,56)                1.0966         calculate D2E/DX2 analytically  !
 ! R61   R(50,51)                1.4286         calculate D2E/DX2 analytically  !
 ! R62   R(50,52)                1.0921         calculate D2E/DX2 analytically  !
 ! R63   R(50,53)                1.0937         calculate D2E/DX2 analytically  !
 ! R64   R(51,54)                0.9775         calculate D2E/DX2 analytically  !
 ! R65   R(59,60)                1.2061         calculate D2E/DX2 analytically  !
 ! R66   R(59,61)                1.3299         calculate D2E/DX2 analytically  !
 ! R67   R(61,68)                1.4305         calculate D2E/DX2 analytically  !
 ! R68   R(63,64)                1.4294         calculate D2E/DX2 analytically  !
 ! R69   R(64,65)                1.0895         calculate D2E/DX2 analytically  !
 ! R70   R(64,66)                1.0888         calculate D2E/DX2 analytically  !
 ! R71   R(64,67)                1.0872         calculate D2E/DX2 analytically  !
 ! R72   R(68,69)                1.0883         calculate D2E/DX2 analytically  !
 ! R73   R(68,70)                1.0848         calculate D2E/DX2 analytically  !
 ! R74   R(68,71)                1.0884         calculate D2E/DX2 analytically  !
 ! A1    A(2,1,8)              136.6866         calculate D2E/DX2 analytically  !
 ! A2    A(1,2,4)               91.7996         calculate D2E/DX2 analytically  !
 ! A3    A(1,2,5)               92.0782         calculate D2E/DX2 analytically  !
 ! A4    A(1,2,13)              89.9503         calculate D2E/DX2 analytically  !
 ! A5    A(1,2,37)              89.6425         calculate D2E/DX2 analytically  !
 ! A6    A(4,2,5)              159.4454         calculate D2E/DX2 analytically  !
 ! A7    A(4,2,13)              76.1031         calculate D2E/DX2 analytically  !
 ! A8    A(4,2,37)              98.6938         calculate D2E/DX2 analytically  !
 ! A9    A(4,2,48)              88.6884         calculate D2E/DX2 analytically  !
 ! A10   A(5,2,13)              83.7221         calculate D2E/DX2 analytically  !
 ! A11   A(5,2,37)             101.5078         calculate D2E/DX2 analytically  !
 ! A12   A(5,2,48)              86.7686         calculate D2E/DX2 analytically  !
 ! A13   A(13,2,48)             88.2057         calculate D2E/DX2 analytically  !
 ! A14   A(37,2,48)             92.281          calculate D2E/DX2 analytically  !
 ! A15   A(14,3,35)            128.5217         calculate D2E/DX2 analytically  !
 ! A16   A(14,3,36)            115.6813         calculate D2E/DX2 analytically  !
 ! A17   A(35,3,36)             79.6111         calculate D2E/DX2 analytically  !
 ! A18   A(2,4,11)             117.2527         calculate D2E/DX2 analytically  !
 ! A19   A(2,5,6)              128.9981         calculate D2E/DX2 analytically  !
 ! A20   A(5,6,7)              109.31           calculate D2E/DX2 analytically  !
 ! A21   A(5,6,26)             110.1908         calculate D2E/DX2 analytically  !
 ! A22   A(5,6,27)             111.3465         calculate D2E/DX2 analytically  !
 ! A23   A(7,6,26)             109.0033         calculate D2E/DX2 analytically  !
 ! A24   A(7,6,27)             109.7656         calculate D2E/DX2 analytically  !
 ! A25   A(26,6,27)            107.1781         calculate D2E/DX2 analytically  !
 ! A26   A(6,7,28)             109.7243         calculate D2E/DX2 analytically  !
 ! A27   A(6,7,29)             109.4805         calculate D2E/DX2 analytically  !
 ! A28   A(6,7,30)             111.7866         calculate D2E/DX2 analytically  !
 ! A29   A(28,7,29)            107.8434         calculate D2E/DX2 analytically  !
 ! A30   A(28,7,30)            111.1394         calculate D2E/DX2 analytically  !
 ! A31   A(29,7,30)            106.7367         calculate D2E/DX2 analytically  !
 ! A32   A(1,8,9)              110.464          calculate D2E/DX2 analytically  !
 ! A33   A(1,8,17)             110.8252         calculate D2E/DX2 analytically  !
 ! A34   A(1,8,18)             109.9279         calculate D2E/DX2 analytically  !
 ! A35   A(9,8,17)             109.4428         calculate D2E/DX2 analytically  !
 ! A36   A(9,8,18)             108.8283         calculate D2E/DX2 analytically  !
 ! A37   A(17,8,18)            107.2765         calculate D2E/DX2 analytically  !
 ! A38   A(8,9,10)             111.8511         calculate D2E/DX2 analytically  !
 ! A39   A(8,9,19)             109.2292         calculate D2E/DX2 analytically  !
 ! A40   A(8,9,20)             109.3855         calculate D2E/DX2 analytically  !
 ! A41   A(10,9,19)            111.3774         calculate D2E/DX2 analytically  !
 ! A42   A(10,9,20)            106.9724         calculate D2E/DX2 analytically  !
 ! A43   A(19,9,20)            107.9113         calculate D2E/DX2 analytically  !
 ! A44   A(9,10,33)            108.489          calculate D2E/DX2 analytically  !
 ! A45   A(4,11,12)            106.7342         calculate D2E/DX2 analytically  !
 ! A46   A(4,11,22)            110.1521         calculate D2E/DX2 analytically  !
 ! A47   A(4,11,23)            111.0685         calculate D2E/DX2 analytically  !
 ! A48   A(12,11,22)           109.8218         calculate D2E/DX2 analytically  !
 ! A49   A(12,11,23)           110.4175         calculate D2E/DX2 analytically  !
 ! A50   A(22,11,23)           108.6382         calculate D2E/DX2 analytically  !
 ! A51   A(11,12,13)           106.8775         calculate D2E/DX2 analytically  !
 ! A52   A(11,12,24)           113.1992         calculate D2E/DX2 analytically  !
 ! A53   A(11,12,25)           110.413          calculate D2E/DX2 analytically  !
 ! A54   A(13,12,24)           110.3405         calculate D2E/DX2 analytically  !
 ! A55   A(13,12,25)           106.4923         calculate D2E/DX2 analytically  !
 ! A56   A(24,12,25)           109.2868         calculate D2E/DX2 analytically  !
 ! A57   A(2,13,12)            112.5382         calculate D2E/DX2 analytically  !
 ! A58   A(2,13,34)            104.8701         calculate D2E/DX2 analytically  !
 ! A59   A(12,13,34)           112.5596         calculate D2E/DX2 analytically  !
 ! A60   A(3,14,15)            111.0811         calculate D2E/DX2 analytically  !
 ! A61   A(3,14,45)            105.7988         calculate D2E/DX2 analytically  !
 ! A62   A(3,14,47)            108.4082         calculate D2E/DX2 analytically  !
 ! A63   A(15,14,45)           112.2796         calculate D2E/DX2 analytically  !
 ! A64   A(15,14,47)           109.6002         calculate D2E/DX2 analytically  !
 ! A65   A(45,14,47)           109.5452         calculate D2E/DX2 analytically  !
 ! A66   A(14,15,16)           110.0556         calculate D2E/DX2 analytically  !
 ! A67   A(14,15,21)           108.8435         calculate D2E/DX2 analytically  !
 ! A68   A(14,15,46)           110.2816         calculate D2E/DX2 analytically  !
 ! A69   A(16,15,21)           110.6104         calculate D2E/DX2 analytically  !
 ! A70   A(16,15,46)           108.5773         calculate D2E/DX2 analytically  !
 ! A71   A(21,15,46)           108.456          calculate D2E/DX2 analytically  !
 ! A72   A(15,16,31)           104.324          calculate D2E/DX2 analytically  !
 ! A73   A(7,30,32)            108.464          calculate D2E/DX2 analytically  !
 ! A74   A(3,35,63)            117.9927         calculate D2E/DX2 analytically  !
 ! A75   A(3,36,37)            117.0977         calculate D2E/DX2 analytically  !
 ! A76   A(3,36,39)            113.9245         calculate D2E/DX2 analytically  !
 ! A77   A(37,36,39)           119.7627         calculate D2E/DX2 analytically  !
 ! A78   A(39,38,40)           119.8363         calculate D2E/DX2 analytically  !
 ! A79   A(39,38,58)           119.4408         calculate D2E/DX2 analytically  !
 ! A80   A(40,38,58)           120.7181         calculate D2E/DX2 analytically  !
 ! A81   A(36,39,38)           117.6404         calculate D2E/DX2 analytically  !
 ! A82   A(36,39,41)           121.7179         calculate D2E/DX2 analytically  !
 ! A83   A(38,39,41)           120.6392         calculate D2E/DX2 analytically  !
 ! A84   A(38,40,42)           119.7057         calculate D2E/DX2 analytically  !
 ! A85   A(38,40,57)           120.238          calculate D2E/DX2 analytically  !
 ! A86   A(42,40,57)           120.0559         calculate D2E/DX2 analytically  !
 ! A87   A(39,41,43)           119.467          calculate D2E/DX2 analytically  !
 ! A88   A(39,41,44)           120.0723         calculate D2E/DX2 analytically  !
 ! A89   A(43,41,44)           120.459          calculate D2E/DX2 analytically  !
 ! A90   A(40,42,43)           120.315          calculate D2E/DX2 analytically  !
 ! A91   A(40,42,59)           121.6821         calculate D2E/DX2 analytically  !
 ! A92   A(43,42,59)           118.0029         calculate D2E/DX2 analytically  !
 ! A93   A(41,43,42)           120.0357         calculate D2E/DX2 analytically  !
 ! A94   A(41,43,62)           120.9824         calculate D2E/DX2 analytically  !
 ! A95   A(42,43,62)           118.9817         calculate D2E/DX2 analytically  !
 ! A96   A(2,48,49)            135.9126         calculate D2E/DX2 analytically  !
 ! A97   A(48,49,50)           111.6942         calculate D2E/DX2 analytically  !
 ! A98   A(48,49,55)           110.837          calculate D2E/DX2 analytically  !
 ! A99   A(48,49,56)           110.4081         calculate D2E/DX2 analytically  !
 ! A100  A(50,49,55)           108.0477         calculate D2E/DX2 analytically  !
 ! A101  A(50,49,56)           108.326          calculate D2E/DX2 analytically  !
 ! A102  A(55,49,56)           107.3791         calculate D2E/DX2 analytically  !
 ! A103  A(49,50,51)           111.1973         calculate D2E/DX2 analytically  !
 ! A104  A(49,50,52)           110.185          calculate D2E/DX2 analytically  !
 ! A105  A(49,50,53)           109.6763         calculate D2E/DX2 analytically  !
 ! A106  A(51,50,52)           107.2255         calculate D2E/DX2 analytically  !
 ! A107  A(51,50,53)           109.7994         calculate D2E/DX2 analytically  !
 ! A108  A(52,50,53)           108.6963         calculate D2E/DX2 analytically  !
 ! A109  A(50,51,54)           107.1515         calculate D2E/DX2 analytically  !
 ! A110  A(42,59,60)           123.8564         calculate D2E/DX2 analytically  !
 ! A111  A(42,59,61)           112.7239         calculate D2E/DX2 analytically  !
 ! A112  A(60,59,61)           123.4196         calculate D2E/DX2 analytically  !
 ! A113  A(59,61,68)           115.9106         calculate D2E/DX2 analytically  !
 ! A114  A(35,63,64)           116.5909         calculate D2E/DX2 analytically  !
 ! A115  A(63,64,65)           107.1061         calculate D2E/DX2 analytically  !
 ! A116  A(63,64,66)           111.4634         calculate D2E/DX2 analytically  !
 ! A117  A(63,64,67)           107.8181         calculate D2E/DX2 analytically  !
 ! A118  A(65,64,66)           109.0303         calculate D2E/DX2 analytically  !
 ! A119  A(65,64,67)           110.0817         calculate D2E/DX2 analytically  !
 ! A120  A(66,64,67)           111.2519         calculate D2E/DX2 analytically  !
 ! A121  A(61,68,69)           110.1057         calculate D2E/DX2 analytically  !
 ! A122  A(61,68,70)           105.8025         calculate D2E/DX2 analytically  !
 ! A123  A(61,68,71)           110.0762         calculate D2E/DX2 analytically  !
 ! A124  A(69,68,70)           110.632          calculate D2E/DX2 analytically  !
 ! A125  A(69,68,71)           109.5501         calculate D2E/DX2 analytically  !
 ! A126  A(70,68,71)           110.622          calculate D2E/DX2 analytically  !
 ! A127  L(1,2,48,4,-1)        180.488          calculate D2E/DX2 analytically  !
 ! A128  L(13,2,37,1,-1)       179.5928         calculate D2E/DX2 analytically  !
 ! A129  L(2,37,36,15,-1)      180.9245         calculate D2E/DX2 analytically  !
 ! A130  L(1,2,48,4,-2)        177.9792         calculate D2E/DX2 analytically  !
 ! A131  L(13,2,37,1,-2)       174.7814         calculate D2E/DX2 analytically  !
 ! A132  L(2,37,36,15,-2)      172.2626         calculate D2E/DX2 analytically  !
 ! D1    D(8,1,2,4)            -29.0847         calculate D2E/DX2 analytically  !
 ! D2    D(8,1,2,5)            130.7258         calculate D2E/DX2 analytically  !
 ! D3    D(8,1,2,13)            47.0097         calculate D2E/DX2 analytically  !
 ! D4    D(8,1,2,37)          -127.7717         calculate D2E/DX2 analytically  !
 ! D5    D(2,1,8,9)            -95.17           calculate D2E/DX2 analytically  !
 ! D6    D(2,1,8,17)            26.3006         calculate D2E/DX2 analytically  !
 ! D7    D(2,1,8,18)           144.7173         calculate D2E/DX2 analytically  !
 ! D8    D(8,1,48,49)          128.1342         calculate D2E/DX2 analytically  !
 ! D9    D(1,2,4,11)           118.6155         calculate D2E/DX2 analytically  !
 ! D10   D(5,2,4,11)            17.8304         calculate D2E/DX2 analytically  !
 ! D11   D(13,2,4,11)           29.1122         calculate D2E/DX2 analytically  !
 ! D12   D(37,2,4,11)         -151.4711         calculate D2E/DX2 analytically  !
 ! D13   D(48,2,4,11)          -59.3637         calculate D2E/DX2 analytically  !
 ! D14   D(1,2,5,6)             -5.1237         calculate D2E/DX2 analytically  !
 ! D15   D(4,2,5,6)             95.6118         calculate D2E/DX2 analytically  !
 ! D16   D(13,2,5,6)            84.5975         calculate D2E/DX2 analytically  !
 ! D17   D(37,2,5,6)           -95.1819         calculate D2E/DX2 analytically  !
 ! D18   D(48,2,5,6)           173.1455         calculate D2E/DX2 analytically  !
 ! D19   D(1,2,13,12)          -92.993          calculate D2E/DX2 analytically  !
 ! D20   D(1,2,13,34)          144.3267         calculate D2E/DX2 analytically  !
 ! D21   D(4,2,13,12)           -1.1268         calculate D2E/DX2 analytically  !
 ! D22   D(4,2,13,34)         -123.8071         calculate D2E/DX2 analytically  !
 ! D23   D(5,2,13,12)          174.9108         calculate D2E/DX2 analytically  !
 ! D24   D(5,2,13,34)           52.2305         calculate D2E/DX2 analytically  !
 ! D25   D(48,2,13,12)          87.9655         calculate D2E/DX2 analytically  !
 ! D26   D(48,2,13,34)         -34.7148         calculate D2E/DX2 analytically  !
 ! D27   D(1,2,36,3)            72.1484         calculate D2E/DX2 analytically  !
 ! D28   D(1,2,36,39)         -147.646          calculate D2E/DX2 analytically  !
 ! D29   D(4,2,36,3)           -19.9721         calculate D2E/DX2 analytically  !
 ! D30   D(4,2,36,39)          120.2335         calculate D2E/DX2 analytically  !
 ! D31   D(5,2,36,3)           164.8071         calculate D2E/DX2 analytically  !
 ! D32   D(5,2,36,39)          -54.9872         calculate D2E/DX2 analytically  !
 ! D33   D(48,2,36,3)         -108.5965         calculate D2E/DX2 analytically  !
 ! D34   D(48,2,36,39)          31.6092         calculate D2E/DX2 analytically  !
 ! D35   D(4,2,48,49)          159.2005         calculate D2E/DX2 analytically  !
 ! D36   D(5,2,48,49)           -0.745          calculate D2E/DX2 analytically  !
 ! D37   D(13,2,48,49)          83.0658         calculate D2E/DX2 analytically  !
 ! D38   D(37,2,48,49)        -102.1492         calculate D2E/DX2 analytically  !
 ! D39   D(35,3,14,15)          10.3758         calculate D2E/DX2 analytically  !
 ! D40   D(35,3,14,45)        -111.7207         calculate D2E/DX2 analytically  !
 ! D41   D(35,3,14,47)         130.8532         calculate D2E/DX2 analytically  !
 ! D42   D(36,3,14,15)         -86.9229         calculate D2E/DX2 analytically  !
 ! D43   D(36,3,14,45)         150.9806         calculate D2E/DX2 analytically  !
 ! D44   D(36,3,14,47)          33.5545         calculate D2E/DX2 analytically  !
 ! D45   D(14,3,35,63)        -124.1436         calculate D2E/DX2 analytically  !
 ! D46   D(36,3,35,63)          -9.4857         calculate D2E/DX2 analytically  !
 ! D47   D(14,3,36,37)          22.7121         calculate D2E/DX2 analytically  !
 ! D48   D(14,3,36,39)        -124.1164         calculate D2E/DX2 analytically  !
 ! D49   D(35,3,36,37)        -105.1989         calculate D2E/DX2 analytically  !
 ! D50   D(35,3,36,39)         107.9727         calculate D2E/DX2 analytically  !
 ! D51   D(2,4,11,12)          -50.2621         calculate D2E/DX2 analytically  !
 ! D52   D(2,4,11,22)           68.9156         calculate D2E/DX2 analytically  !
 ! D53   D(2,4,11,23)         -170.6737         calculate D2E/DX2 analytically  !
 ! D54   D(2,5,6,7)            154.6971         calculate D2E/DX2 analytically  !
 ! D55   D(2,5,6,26)           -85.5356         calculate D2E/DX2 analytically  !
 ! D56   D(2,5,6,27)            33.2531         calculate D2E/DX2 analytically  !
 ! D57   D(5,6,7,28)            58.2453         calculate D2E/DX2 analytically  !
 ! D58   D(5,6,7,29)           -59.9258         calculate D2E/DX2 analytically  !
 ! D59   D(5,6,7,30)          -177.9825         calculate D2E/DX2 analytically  !
 ! D60   D(26,6,7,28)          -62.2505         calculate D2E/DX2 analytically  !
 ! D61   D(26,6,7,29)          179.5784         calculate D2E/DX2 analytically  !
 ! D62   D(26,6,7,30)           61.5217         calculate D2E/DX2 analytically  !
 ! D63   D(27,6,7,28)         -179.359          calculate D2E/DX2 analytically  !
 ! D64   D(27,6,7,29)           62.4699         calculate D2E/DX2 analytically  !
 ! D65   D(27,6,7,30)          -55.5869         calculate D2E/DX2 analytically  !
 ! D66   D(6,7,30,32)          -64.501          calculate D2E/DX2 analytically  !
 ! D67   D(28,7,30,32)          58.4708         calculate D2E/DX2 analytically  !
 ! D68   D(29,7,30,32)         175.8147         calculate D2E/DX2 analytically  !
 ! D69   D(1,8,9,10)           179.9522         calculate D2E/DX2 analytically  !
 ! D70   D(1,8,9,19)           -56.2817         calculate D2E/DX2 analytically  !
 ! D71   D(1,8,9,20)            61.6247         calculate D2E/DX2 analytically  !
 ! D72   D(17,8,9,10)           57.6666         calculate D2E/DX2 analytically  !
 ! D73   D(17,8,9,19)         -178.5672         calculate D2E/DX2 analytically  !
 ! D74   D(17,8,9,20)          -60.6608         calculate D2E/DX2 analytically  !
 ! D75   D(18,8,9,10)          -59.277          calculate D2E/DX2 analytically  !
 ! D76   D(18,8,9,19)           64.4892         calculate D2E/DX2 analytically  !
 ! D77   D(18,8,9,20)         -177.6044         calculate D2E/DX2 analytically  !
 ! D78   D(8,9,10,33)           65.2092         calculate D2E/DX2 analytically  !
 ! D79   D(19,9,10,33)         -57.3403         calculate D2E/DX2 analytically  !
 ! D80   D(20,9,10,33)        -175.0361         calculate D2E/DX2 analytically  !
 ! D81   D(4,11,12,13)          43.8546         calculate D2E/DX2 analytically  !
 ! D82   D(4,11,12,24)         165.5383         calculate D2E/DX2 analytically  !
 ! D83   D(4,11,12,25)         -71.5782         calculate D2E/DX2 analytically  !
 ! D84   D(22,11,12,13)        -75.5373         calculate D2E/DX2 analytically  !
 ! D85   D(22,11,12,24)         46.1464         calculate D2E/DX2 analytically  !
 ! D86   D(22,11,12,25)        169.0299         calculate D2E/DX2 analytically  !
 ! D87   D(23,11,12,13)        164.6828         calculate D2E/DX2 analytically  !
 ! D88   D(23,11,12,24)        -73.6335         calculate D2E/DX2 analytically  !
 ! D89   D(23,11,12,25)         49.25           calculate D2E/DX2 analytically  !
 ! D90   D(11,12,13,2)         -22.7855         calculate D2E/DX2 analytically  !
 ! D91   D(11,12,13,34)         95.4615         calculate D2E/DX2 analytically  !
 ! D92   D(24,12,13,2)        -146.2562         calculate D2E/DX2 analytically  !
 ! D93   D(24,12,13,34)        -28.0092         calculate D2E/DX2 analytically  !
 ! D94   D(25,12,13,2)          95.2453         calculate D2E/DX2 analytically  !
 ! D95   D(25,12,13,34)       -146.5076         calculate D2E/DX2 analytically  !
 ! D96   D(3,14,15,16)         165.5058         calculate D2E/DX2 analytically  !
 ! D97   D(3,14,15,21)          44.1369         calculate D2E/DX2 analytically  !
 ! D98   D(3,14,15,46)         -74.7271         calculate D2E/DX2 analytically  !
 ! D99   D(45,14,15,16)        -76.2475         calculate D2E/DX2 analytically  !
 ! D100  D(45,14,15,21)        162.3837         calculate D2E/DX2 analytically  !
 ! D101  D(45,14,15,46)         43.5197         calculate D2E/DX2 analytically  !
 ! D102  D(47,14,15,16)         45.7358         calculate D2E/DX2 analytically  !
 ! D103  D(47,14,15,21)        -75.633          calculate D2E/DX2 analytically  !
 ! D104  D(47,14,15,46)        165.503          calculate D2E/DX2 analytically  !
 ! D105  D(14,15,16,31)        -72.4801         calculate D2E/DX2 analytically  !
 ! D106  D(21,15,16,31)         47.8275         calculate D2E/DX2 analytically  !
 ! D107  D(46,15,16,31)        166.7232         calculate D2E/DX2 analytically  !
 ! D108  D(3,35,63,64)         117.1333         calculate D2E/DX2 analytically  !
 ! D109  D(3,36,39,38)         170.6556         calculate D2E/DX2 analytically  !
 ! D110  D(3,36,39,41)          -9.9164         calculate D2E/DX2 analytically  !
 ! D111  D(37,36,39,38)         24.7878         calculate D2E/DX2 analytically  !
 ! D112  D(37,36,39,41)       -155.7842         calculate D2E/DX2 analytically  !
 ! D113  D(40,38,39,36)        179.0633         calculate D2E/DX2 analytically  !
 ! D114  D(40,38,39,41)         -0.3712         calculate D2E/DX2 analytically  !
 ! D115  D(58,38,39,36)         -1.7242         calculate D2E/DX2 analytically  !
 ! D116  D(58,38,39,41)        178.8413         calculate D2E/DX2 analytically  !
 ! D117  D(39,38,40,42)          0.1587         calculate D2E/DX2 analytically  !
 ! D118  D(39,38,40,57)        179.9277         calculate D2E/DX2 analytically  !
 ! D119  D(58,38,40,42)       -179.0436         calculate D2E/DX2 analytically  !
 ! D120  D(58,38,40,57)          0.7254         calculate D2E/DX2 analytically  !
 ! D121  D(36,39,41,43)       -179.138          calculate D2E/DX2 analytically  !
 ! D122  D(36,39,41,44)          1.3308         calculate D2E/DX2 analytically  !
 ! D123  D(38,39,41,43)          0.2731         calculate D2E/DX2 analytically  !
 ! D124  D(38,39,41,44)       -179.2581         calculate D2E/DX2 analytically  !
 ! D125  D(38,40,42,43)          0.1478         calculate D2E/DX2 analytically  !
 ! D126  D(38,40,42,59)       -179.9672         calculate D2E/DX2 analytically  !
 ! D127  D(57,40,42,43)       -179.6217         calculate D2E/DX2 analytically  !
 ! D128  D(57,40,42,59)          0.2634         calculate D2E/DX2 analytically  !
 ! D129  D(39,41,43,42)          0.0353         calculate D2E/DX2 analytically  !
 ! D130  D(39,41,43,62)       -179.8055         calculate D2E/DX2 analytically  !
 ! D131  D(44,41,43,42)        179.5648         calculate D2E/DX2 analytically  !
 ! D132  D(44,41,43,62)         -0.2761         calculate D2E/DX2 analytically  !
 ! D133  D(40,42,43,41)         -0.2456         calculate D2E/DX2 analytically  !
 ! D134  D(40,42,43,62)        179.5984         calculate D2E/DX2 analytically  !
 ! D135  D(59,42,43,41)        179.8652         calculate D2E/DX2 analytically  !
 ! D136  D(59,42,43,62)         -0.2908         calculate D2E/DX2 analytically  !
 ! D137  D(40,42,59,60)        178.3174         calculate D2E/DX2 analytically  !
 ! D138  D(40,42,59,61)         -1.5738         calculate D2E/DX2 analytically  !
 ! D139  D(43,42,59,60)         -1.795          calculate D2E/DX2 analytically  !
 ! D140  D(43,42,59,61)        178.3138         calculate D2E/DX2 analytically  !
 ! D141  D(2,48,49,50)         -83.0488         calculate D2E/DX2 analytically  !
 ! D142  D(2,48,49,55)          37.4935         calculate D2E/DX2 analytically  !
 ! D143  D(2,48,49,56)         156.3493         calculate D2E/DX2 analytically  !
 ! D144  D(48,49,50,51)         59.9127         calculate D2E/DX2 analytically  !
 ! D145  D(48,49,50,52)        -58.8368         calculate D2E/DX2 analytically  !
 ! D146  D(48,49,50,53)       -178.4515         calculate D2E/DX2 analytically  !
 ! D147  D(55,49,50,51)        -62.246          calculate D2E/DX2 analytically  !
 ! D148  D(55,49,50,52)        179.0045         calculate D2E/DX2 analytically  !
 ! D149  D(55,49,50,53)         59.3898         calculate D2E/DX2 analytically  !
 ! D150  D(56,49,50,51)       -178.2771         calculate D2E/DX2 analytically  !
 ! D151  D(56,49,50,52)         62.9734         calculate D2E/DX2 analytically  !
 ! D152  D(56,49,50,53)        -56.6413         calculate D2E/DX2 analytically  !
 ! D153  D(49,50,51,54)         23.9808         calculate D2E/DX2 analytically  !
 ! D154  D(52,50,51,54)        144.4923         calculate D2E/DX2 analytically  !
 ! D155  D(53,50,51,54)        -97.5832         calculate D2E/DX2 analytically  !
 ! D156  D(42,59,61,68)        179.7156         calculate D2E/DX2 analytically  !
 ! D157  D(60,59,61,68)         -0.1762         calculate D2E/DX2 analytically  !
 ! D158  D(59,61,68,69)         60.2729         calculate D2E/DX2 analytically  !
 ! D159  D(59,61,68,70)        179.8486         calculate D2E/DX2 analytically  !
 ! D160  D(59,61,68,71)        -60.6034         calculate D2E/DX2 analytically  !
 ! D161  D(35,63,64,65)       -151.3288         calculate D2E/DX2 analytically  !
 ! D162  D(35,63,64,66)        -32.1469         calculate D2E/DX2 analytically  !
 ! D163  D(35,63,64,67)         90.2291         calculate D2E/DX2 analytically  !
 --------------------------------------------------------------------------------
 Trust Radius=3.00D-01 FncErr=1.00D-07 GrdErr=1.00D-06 EigMax=2.50D+02 EigMin=1.00D-04
 Number of steps in this run=    200 maximum allowed number of steps=    426.
 Search for a saddle point of order  1.
 GradGradGradGradGradGradGradGradGradGradGradGradGradGradGradGradGradGrad

 Symmetry turned off by external request.
 Stoichiometry    C20H36O14Ti
 Framework group  C1[X(C20H36O14Ti)]
 Deg. of freedom   207
 Full point group                 C1      NOp   1
                          Input orientation:                          
 ---------------------------------------------------------------------
 Center     Atomic      Atomic             Coordinates (Angstroms)
 Number     Number       Type             X           Y           Z
 ---------------------------------------------------------------------
      1          8           0        7.183602   -4.187798    0.142512
      2         22           0        5.627716   -5.192117    0.333530
      3          8           0        5.756508   -5.734137   -3.717196
      4          8           0        6.614277   -6.847012    0.258445
      5          8           0        4.682260   -3.715628    1.067271
      6          6           0        5.158960   -2.441398    1.400708
      7          6           0        4.010769   -1.445495    1.349013
      8          6           0        8.527874   -4.334377    0.464234
      9          6           0        8.831151   -3.669149    1.799238
     10          8           0       10.197328   -3.802267    2.157177
     11          6           0        6.553420   -7.682778    1.383506
     12          6           0        6.873619   -6.817044    2.589078
     13          8           0        6.145411   -5.592357    2.427366
     14          6           0        6.524009   -6.795080   -3.106035
     15          6           0        7.860702   -6.276852   -2.588901
     16          8           0        8.440803   -7.220531   -1.719528
     17          1           0        8.804207   -5.397196    0.513870
     18          1           0        9.152280   -3.870462   -0.313543
     19          1           0        8.530996   -2.617072    1.754343
     20          1           0        8.247923   -4.151073    2.584543
     21          1           0        7.695019   -5.325961   -2.070784
     22          1           0        5.547149   -8.105353    1.486063
     23          1           0        7.271536   -8.504988    1.302242
     24          1           0        6.615706   -7.288779    3.537025
     25          1           0        7.931226   -6.549926    2.595539
     26          1           0        5.582059   -2.447992    2.416373
     27          1           0        5.955416   -2.123564    0.720858
     28          1           0        3.218740   -1.758231    2.038322
     29          1           0        3.590024   -1.427202    0.342517
     30          8           0        4.445093   -0.126539    1.633940
     31          1           0        7.895166   -7.169193   -0.906961
     32          1           0        4.761448   -0.099327    2.543026
     33          1           0       10.729076   -3.316070    1.518502
     34          1           0        5.281053   -5.599524    2.905268
     35          1           0        6.167417   -4.440529   -4.043185
     36          6           0        4.939007   -4.973840   -2.831165
     37          8           0        5.258861   -4.969998   -1.624987
     38          6           0        2.593838   -4.393981   -2.308039
     39          6           0        3.491287   -4.941579   -3.216996
     40          6           0        1.248007   -4.323476   -2.625981
     41          6           0        3.050351   -5.427998   -4.442939
     42          6           0        0.803121   -4.805270   -3.853874
     43          6           0        1.703252   -5.358706   -4.759011
     44          1           0        3.754731   -5.863015   -5.138207
     45          1           0        6.645742   -7.553413   -3.875479
     46          1           0        8.545930   -6.102573   -3.420018
     47          1           0        5.946201   -7.204940   -2.278631
     48          8           0        4.046704   -6.196910    0.594408
     49          6           0        2.779859   -5.949080    1.110026
     50          6           0        2.758996   -6.058209    2.622906
     51          8           0        3.656820   -5.121560    3.220792
     52          1           0        3.078147   -7.055483    2.933221
     53          1           0        1.743670   -5.884770    2.990668
     54          1           0        3.780073   -4.392197    2.581837
     55          1           0        2.436308   -4.940178    0.836233
     56          1           0        2.054732   -6.663760    0.702762
     57          1           0        0.544295   -3.899995   -1.923546
     58          1           0        2.955241   -4.038568   -1.352289
     59          6           0       -0.636794   -4.750675   -4.242157
     60          8           0       -1.060695   -5.129339   -5.305895
     61          8           0       -1.407017   -4.235868   -3.287992
     62          1           0        1.332812   -5.732782   -5.705012
     63          8           0        5.579985   -3.575157   -3.618445
     64          6           0        6.282425   -2.696550   -2.736527
     65          1           0        5.548451   -2.280130   -2.047362
     66          1           0        7.042772   -3.228230   -2.166746
     67          1           0        6.722238   -1.904167   -3.337058
     68          6           0       -2.802071   -4.145620   -3.591528
     69          1           0       -3.206376   -5.136136   -3.790949
     70          1           0       -3.268111   -3.712300   -2.713014
     71          1           0       -2.954907   -3.508158   -4.460362
 ---------------------------------------------------------------------
 Rotational constants (GHZ):           0.1488445           0.0674323           0.0599521
 Standard basis: def2TZVP (5D, 7F)
  1315 basis functions,  2124 primitive gaussians,  1492 cartesian basis functions
   145 alpha electrons      145 beta electrons
       nuclear repulsion energy      5037.2050197441 Hartrees.
 NAtoms=   71 NActive=   71 NUniq=   71 SFac= 1.00D+00 NAtFMM=   60 NAOKFM=T Big=T
 Integral buffers will be    131072 words long.
 Raffenetti 2 integral format.
 Two-electron integral symmetry is turned off.
 Force inversion solution in PCM.
 Using the following non-standard input for PCM:
 PDENS=7.0
 --- end of non-standard input.
 Force inversion solution in PCM.
 ------------------------------------------------------------------------------
 Polarizable Continuum Model (PCM)
 =================================
 Model                : PCM.
 Atomic radii         : UFF (Universal Force Field).
 Polarization charges : Total charges.
 Charge compensation  : None.
 Solution method      : Matrix inversion.
 Cavity type          : Scaled VdW (van der Waals Surface) (Alpha=1.100).
 Cavity algorithm     : GePol (No added spheres)
                        Default sphere list used, NSphG=   71.
                        Lebedev-Laikov grids with approx.  7.0 points / Ang**2.
                        Smoothing algorithm: York/Karplus (Gamma=1.0000).
                        Polarization charges: spherical gaussians, with
                                              point-specific exponents (IZeta= 3).
                        Self-potential: point-specific (ISelfS= 7).
                        Self-field    : sphere-specific E.n sum rule (ISelfD= 2).
 1st derivatives      : Analytical E(r).r(x)/FMM algorithm (CHGder, D1EAlg=3).
                        Cavity 1st derivative terms included.
 2nd derivatives      : Analytical E(r).r(xy)/FMM algorithm (CHGder, D2EAlg=3).
                        Cavity 2nd derivative terms included.
 Solvent              : 1,2-EthaneDiol, Eps=  40.245000 Eps(inf)=   2.050051
 ------------------------------------------------------------------------------
 One-electron integrals computed using PRISM.
   1 Symmetry operations used in ECPInt.
 ECPInt:  NShTT=  142311 NPrTT=  435693 LenC2=  110253 LenP2D=  224229.
 LDataN:  DoStor=T MaxTD1= 6 Len=  172
 NBasis=  1315 RedAO= T EigKep=  5.95D-06  NBF=  1315
 NBsUse=  1315 1.00D-06 EigRej= -1.00D+00 NBFU=  1315
 ExpMin= 3.27D-02 ExpMax= 2.12D+05 ExpMxC= 2.04D+03 IAcc=3 IRadAn=         5 AccDes= 0.00D+00
 Harris functional with IExCor= 1009 and IRadAn=       5 diagonalized for initial guess.
 HarFok:  IExCor= 1009 AccDes= 0.00D+00 IRadAn=         5 IDoV= 1 UseB2=F ITyADJ=14
 ICtDFT=  3500011 ScaDFX=  1.000000  1.000000  1.000000  1.000000
 FoFCou: FMM=F IPFlag=           0 FMFlag=      100000 FMFlg1=        2001
         NFxFlg=           0 DoJE=T BraDBF=F KetDBF=T FulRan=T
         wScrn=  0.000000 ICntrl=       500 IOpCl=  0 I1Cent=   200000004 NGrid=           0
         NMat0=    1 NMatS0=      1 NMatT0=    0 NMatD0=    1 NMtDS0=    0 NMtDT0=    0
 Symmetry not used in FoFCou.
 Requested convergence on RMS density matrix=1.00D-08 within 400 cycles.
 Requested convergence on MAX density matrix=1.00D-06.
 Requested convergence on             energy=1.00D-06.
 No special actions if energy rises.
 Inv3:  Mode=1 IEnd=   144574092.
 Iteration    1 A*A^-1 deviation from unit magnitude is 4.11D-15 for   4039.
 Iteration    1 A*A^-1 deviation from orthogonality  is 2.89D-15 for   5882   2297.
 Iteration    1 A^-1*A deviation from unit magnitude is 4.11D-15 for   4039.
 Iteration    1 A^-1*A deviation from orthogonality  is 3.16D-15 for   6573   6544.
 Error on total polarization charges =  0.01770
 SCF Done:  E(RM062X) =  -2686.53229427     A.U. after   16 cycles
            NFock= 16  Conv=0.25D-08     -V/T= 2.0035
 QCSCF skips out because SCF is already converged.
 DoSCS=F DFT=T ScalE2(SS,OS)=  1.000000  1.000000
 Range of M.O.s used for correlation:     1  1315
 NBasis=  1315 NAE=   145 NBE=   145 NFC=     0 NFV=     0
 NROrb=   1315 NOA=   145 NOB=   145 NVA=  1170 NVB=  1170

 **** Warning!!: The largest alpha MO coefficient is  0.55795833D+02

   1 Symmetry operations used in ECPInt.
 ECPInt:  NShTT=  142311 NPrTT=  435693 LenC2=  110253 LenP2D=  224229.
 LDataN:  DoStor=T MaxTD1= 7 Len=  274
 Number of processors reduced to  17 by ecpmxn.
 Symmetrizing basis deriv contribution to polar:
 IMax=3 JMax=2 DiffMx= 0.00D+00
 G2DrvN: will do    72 centers at a time, making    1 passes.
 Calling FoFCou, ICntrl=  3107 FMM=T I1Cent=   0 AccDes= 0.00D+00.
 NEqPCM:  Using equilibrium solvation (IEInf=0, Eps=  40.2450, EpsInf=   2.0501)
 G2PCM: DoFxE=T DoFxN=T DoGrad=T DoDP/DQ/DG/TGxP=FFFF NFrqRd=   0 IEInf=0 SqF1=F DoCFld=F IF1Alg=4.
 End of G2Drv F.D. properties file   721 does not exist.
 End of G2Drv F.D. properties file   722 does not exist.
 End of G2Drv F.D. properties file   788 does not exist.
          IDoAtm=11111111111111111111111111111111111111111111111111
          IDoAtm=111111111111111111111
 NEqPCM:  Using equilibrium solvation (IEInf=0, Eps=  40.2450, EpsInf=   2.0501)
          Differentiating once with respect to nuclear coordinates.
 CalDSu exits because no D1Ps are significant.
          There are   216 degrees of freedom in the 1st order CPHF.  IDoFFX=6 NUNeed=     0.
    210 vectors produced by pass  0 Test12= 1.70D-13 1.00D-09 XBig12= 1.30D-01 1.07D-01.
 AX will form    96 AO Fock derivatives at one time.
    210 vectors produced by pass  1 Test12= 1.70D-13 1.00D-09 XBig12= 4.40D-02 4.03D-02.
    210 vectors produced by pass  2 Test12= 1.70D-13 1.00D-09 XBig12= 1.15D-03 4.57D-03.
    210 vectors produced by pass  3 Test12= 1.70D-13 1.00D-09 XBig12= 1.47D-05 4.98D-04.
    210 vectors produced by pass  4 Test12= 1.70D-13 1.00D-09 XBig12= 1.51D-07 4.27D-05.
    210 vectors produced by pass  5 Test12= 1.70D-13 1.00D-09 XBig12= 9.40D-10 2.31D-06.
    189 vectors produced by pass  6 Test12= 1.70D-13 1.00D-09 XBig12= 5.08D-12 1.39D-07.
     49 vectors produced by pass  7 Test12= 1.70D-13 1.00D-09 XBig12= 2.37D-14 1.13D-08.
 InvSVY:  IOpt=1 It=  1 EMax= 3.89D-16
 Solved reduced A of dimension  1498 with   216 vectors.
 End of Minotr F.D. properties file   721 does not exist.
 End of Minotr F.D. properties file   722 does not exist.
 End of Minotr F.D. properties file   788 does not exist.

 **********************************************************************

            Population analysis using the SCF Density.

 **********************************************************************

 Alpha  occ. eigenvalues -- -180.49833 -20.49912 -19.69696 -19.69347 -19.68343
 Alpha  occ. eigenvalues --  -19.65614 -19.64641 -19.63333 -19.62854 -19.62780
 Alpha  occ. eigenvalues --  -19.62717 -19.61489 -19.60262 -19.59982 -19.59431
 Alpha  occ. eigenvalues --  -19.58885 -17.19327 -17.19249 -17.19199 -10.74270
 Alpha  occ. eigenvalues --  -10.68590 -10.60164 -10.59388 -10.59183 -10.58955
 Alpha  occ. eigenvalues --  -10.58326 -10.57921 -10.57838 -10.57651 -10.57637
 Alpha  occ. eigenvalues --  -10.57361 -10.57336 -10.57316 -10.57165 -10.57077
 Alpha  occ. eigenvalues --  -10.56453 -10.56437 -10.56344 -10.56272  -2.63536
 Alpha  occ. eigenvalues --   -1.69937  -1.69776  -1.69642  -1.27708  -1.25228
 Alpha  occ. eigenvalues --   -1.17877  -1.17530  -1.17020  -1.15562  -1.15241
 Alpha  occ. eigenvalues --   -1.14922  -1.14741  -1.14113  -1.10154  -1.09149
 Alpha  occ. eigenvalues --   -1.08961  -1.08083  -0.99376  -0.90967  -0.87158
 Alpha  occ. eigenvalues --   -0.86799  -0.83258  -0.83200  -0.82018  -0.81523
 Alpha  occ. eigenvalues --   -0.81229  -0.80548  -0.76555  -0.73845  -0.71441
 Alpha  occ. eigenvalues --   -0.70739  -0.70599  -0.69642  -0.69531  -0.69391
 Alpha  occ. eigenvalues --   -0.66105  -0.64766  -0.63934  -0.63347  -0.62183
 Alpha  occ. eigenvalues --   -0.61591  -0.60007  -0.59670  -0.59279  -0.58777
 Alpha  occ. eigenvalues --   -0.58163  -0.57857  -0.57585  -0.57021  -0.55752
 Alpha  occ. eigenvalues --   -0.55130  -0.54644  -0.54228  -0.53940  -0.53928
 Alpha  occ. eigenvalues --   -0.53753  -0.53497  -0.53057  -0.52815  -0.52401
 Alpha  occ. eigenvalues --   -0.52200  -0.51517  -0.51271  -0.50854  -0.50130
 Alpha  occ. eigenvalues --   -0.49483  -0.49147  -0.49047  -0.48656  -0.48095
 Alpha  occ. eigenvalues --   -0.47811  -0.47089  -0.46620  -0.46523  -0.45901
 Alpha  occ. eigenvalues --   -0.45416  -0.45169  -0.44413  -0.44083  -0.43987
 Alpha  occ. eigenvalues --   -0.43178  -0.42702  -0.42016  -0.41690  -0.41355
 Alpha  occ. eigenvalues --   -0.41056  -0.40353  -0.39844  -0.39018  -0.38891
 Alpha  occ. eigenvalues --   -0.38266  -0.37356  -0.37241  -0.36919  -0.36129
 Alpha  occ. eigenvalues --   -0.35239  -0.35007  -0.34346  -0.33804  -0.33412
 Alpha  occ. eigenvalues --   -0.33201  -0.33048  -0.32953  -0.32126  -0.31911
 Alpha virt. eigenvalues --   -0.04489  -0.01340  -0.00619   0.00068   0.00248
 Alpha virt. eigenvalues --    0.04146   0.04685   0.05413   0.05951   0.06493
 Alpha virt. eigenvalues --    0.06758   0.07137   0.07681   0.08186   0.08454
 Alpha virt. eigenvalues --    0.08767   0.09125   0.09312   0.09827   0.09866
 Alpha virt. eigenvalues --    0.10853   0.11092   0.11391   0.11727   0.11829
 Alpha virt. eigenvalues --    0.12218   0.12588   0.13118   0.13557   0.13753
 Alpha virt. eigenvalues --    0.13929   0.14187   0.14717   0.14778   0.15097
 Alpha virt. eigenvalues --    0.15680   0.15877   0.16139   0.16433   0.16670
 Alpha virt. eigenvalues --    0.16871   0.17434   0.17483   0.17689   0.18542
 Alpha virt. eigenvalues --    0.18834   0.19081   0.19350   0.19528   0.19916
 Alpha virt. eigenvalues --    0.20469   0.20836   0.21153   0.21226   0.21840
 Alpha virt. eigenvalues --    0.21984   0.22320   0.22664   0.22829   0.23258
 Alpha virt. eigenvalues --    0.23560   0.23834   0.23994   0.24117   0.24365
 Alpha virt. eigenvalues --    0.25062   0.25144   0.25436   0.25648   0.25780
 Alpha virt. eigenvalues --    0.26050   0.26428   0.26963   0.27047   0.27276
 Alpha virt. eigenvalues --    0.27598   0.28010   0.28246   0.28573   0.28901
 Alpha virt. eigenvalues --    0.29218   0.29613   0.29910   0.30151   0.30617
 Alpha virt. eigenvalues --    0.31060   0.31530   0.32197   0.32392   0.32704
 Alpha virt. eigenvalues --    0.33322   0.33636   0.33962   0.34267   0.35011
 Alpha virt. eigenvalues --    0.35213   0.35302   0.35594   0.35706   0.35883
 Alpha virt. eigenvalues --    0.36279   0.36699   0.36880   0.37469   0.37550
 Alpha virt. eigenvalues --    0.37704   0.38077   0.38576   0.38621   0.38892
 Alpha virt. eigenvalues --    0.39446   0.39651   0.40186   0.40429   0.40958
 Alpha virt. eigenvalues --    0.41103   0.41372   0.41741   0.41971   0.42179
 Alpha virt. eigenvalues --    0.42410   0.42496   0.42891   0.43496   0.43608
 Alpha virt. eigenvalues --    0.43817   0.44222   0.44347   0.44483   0.45084
 Alpha virt. eigenvalues --    0.45370   0.45432   0.45663   0.45828   0.46102
 Alpha virt. eigenvalues --    0.46447   0.46629   0.47086   0.47467   0.47604
 Alpha virt. eigenvalues --    0.47774   0.48126   0.48440   0.48516   0.49009
 Alpha virt. eigenvalues --    0.49327   0.49460   0.49839   0.50016   0.50287
 Alpha virt. eigenvalues --    0.50516   0.50845   0.51088   0.51223   0.51521
 Alpha virt. eigenvalues --    0.51561   0.52480   0.52521   0.52641   0.52954
 Alpha virt. eigenvalues --    0.53266   0.53442   0.53928   0.54061   0.54498
 Alpha virt. eigenvalues --    0.54839   0.55222   0.55328   0.55836   0.56046
 Alpha virt. eigenvalues --    0.56420   0.56556   0.56910   0.57146   0.57364
 Alpha virt. eigenvalues --    0.57629   0.57901   0.58388   0.59165   0.59499
 Alpha virt. eigenvalues --    0.59597   0.60288   0.60668   0.61287   0.61671
 Alpha virt. eigenvalues --    0.61782   0.62483   0.62911   0.63287   0.63527
 Alpha virt. eigenvalues --    0.64030   0.64399   0.64545   0.65043   0.65444
 Alpha virt. eigenvalues --    0.65664   0.66214   0.66558   0.67071   0.67305
 Alpha virt. eigenvalues --    0.67651   0.68003   0.68336   0.68635   0.68966
 Alpha virt. eigenvalues --    0.70004   0.70202   0.70491   0.70897   0.71187
 Alpha virt. eigenvalues --    0.71857   0.72132   0.72347   0.72580   0.73495
 Alpha virt. eigenvalues --    0.73752   0.74119   0.74217   0.75375   0.75525
 Alpha virt. eigenvalues --    0.75747   0.76029   0.76191   0.76528   0.76958
 Alpha virt. eigenvalues --    0.77466   0.77546   0.78335   0.78661   0.78845
 Alpha virt. eigenvalues --    0.79300   0.79707   0.79863   0.80626   0.80944
 Alpha virt. eigenvalues --    0.81638   0.81820   0.82068   0.82557   0.82908
 Alpha virt. eigenvalues --    0.83832   0.84150   0.85043   0.85297   0.85562
 Alpha virt. eigenvalues --    0.85849   0.86364   0.86697   0.86924   0.87592
 Alpha virt. eigenvalues --    0.88078   0.88163   0.88571   0.89290   0.89735
 Alpha virt. eigenvalues --    0.90082   0.90355   0.90866   0.91348   0.91934
 Alpha virt. eigenvalues --    0.92188   0.92488   0.92898   0.94193   0.94651
 Alpha virt. eigenvalues --    0.94830   0.95158   0.95316   0.95822   0.96448
 Alpha virt. eigenvalues --    0.96785   0.97328   0.97805   0.98225   0.98493
 Alpha virt. eigenvalues --    0.98753   0.99036   0.99345   1.00686   1.01360
 Alpha virt. eigenvalues --    1.01498   1.02181   1.02435   1.02878   1.03055
 Alpha virt. eigenvalues --    1.03408   1.03963   1.04470   1.05207   1.05955
 Alpha virt. eigenvalues --    1.06104   1.06372   1.06616   1.07062   1.07893
 Alpha virt. eigenvalues --    1.08516   1.08769   1.09432   1.09942   1.10567
 Alpha virt. eigenvalues --    1.11197   1.12094   1.12506   1.12641   1.13089
 Alpha virt. eigenvalues --    1.13432   1.13762   1.14039   1.14680   1.14825
 Alpha virt. eigenvalues --    1.15359   1.16375   1.16769   1.17711   1.18154
 Alpha virt. eigenvalues --    1.18728   1.19295   1.19791   1.20330   1.21387
 Alpha virt. eigenvalues --    1.21587   1.22286   1.23092   1.23506   1.24051
 Alpha virt. eigenvalues --    1.24978   1.25221   1.25255   1.26268   1.26532
 Alpha virt. eigenvalues --    1.27326   1.27952   1.28072   1.28494   1.29148
 Alpha virt. eigenvalues --    1.29458   1.30248   1.30740   1.31163   1.31731
 Alpha virt. eigenvalues --    1.32305   1.32524   1.32999   1.34046   1.34194
 Alpha virt. eigenvalues --    1.35037   1.35417   1.36113   1.37020   1.37368
 Alpha virt. eigenvalues --    1.37660   1.38511   1.39828   1.40090   1.41291
 Alpha virt. eigenvalues --    1.41658   1.42735   1.43603   1.43786   1.44367
 Alpha virt. eigenvalues --    1.45014   1.46027   1.46951   1.47544   1.48346
 Alpha virt. eigenvalues --    1.49151   1.49580   1.49903   1.50756   1.51082
 Alpha virt. eigenvalues --    1.51457   1.51501   1.52139   1.52841   1.53226
 Alpha virt. eigenvalues --    1.53438   1.53997   1.54778   1.55192   1.55708
 Alpha virt. eigenvalues --    1.55894   1.56438   1.56716   1.56854   1.57672
 Alpha virt. eigenvalues --    1.57729   1.57779   1.58072   1.58396   1.58541
 Alpha virt. eigenvalues --    1.58898   1.59386   1.59458   1.59910   1.60684
 Alpha virt. eigenvalues --    1.61007   1.61097   1.61395   1.61802   1.62143
 Alpha virt. eigenvalues --    1.62797   1.62865   1.63137   1.63363   1.63893
 Alpha virt. eigenvalues --    1.64364   1.64627   1.64769   1.65407   1.65854
 Alpha virt. eigenvalues --    1.66140   1.66452   1.66866   1.67192   1.67736
 Alpha virt. eigenvalues --    1.68069   1.68608   1.68983   1.69621   1.69910
 Alpha virt. eigenvalues --    1.70516   1.70676   1.70964   1.72118   1.72274
 Alpha virt. eigenvalues --    1.73248   1.74114   1.74156   1.75247   1.75701
 Alpha virt. eigenvalues --    1.76177   1.76689   1.76831   1.77302   1.77583
 Alpha virt. eigenvalues --    1.77939   1.78634   1.79334   1.79741   1.79848
 Alpha virt. eigenvalues --    1.80854   1.81228   1.81992   1.82626   1.82732
 Alpha virt. eigenvalues --    1.83322   1.83617   1.84044   1.84126   1.84911
 Alpha virt. eigenvalues --    1.85298   1.85636   1.86432   1.86659   1.87331
 Alpha virt. eigenvalues --    1.87671   1.87925   1.88156   1.88687   1.89098
 Alpha virt. eigenvalues --    1.89777   1.90050   1.90632   1.90850   1.92009
 Alpha virt. eigenvalues --    1.92147   1.92375   1.93040   1.93150   1.93764
 Alpha virt. eigenvalues --    1.94682   1.94887   1.95330   1.96013   1.96478
 Alpha virt. eigenvalues --    1.96732   1.97459   1.97692   1.98036   1.98346
 Alpha virt. eigenvalues --    1.98759   1.98921   1.99454   2.00087   2.00365
 Alpha virt. eigenvalues --    2.01106   2.01423   2.02436   2.02799   2.03509
 Alpha virt. eigenvalues --    2.03945   2.04668   2.05450   2.05636   2.05872
 Alpha virt. eigenvalues --    2.06666   2.06909   2.07229   2.07596   2.07781
 Alpha virt. eigenvalues --    2.08463   2.09171   2.09729   2.09953   2.10066
 Alpha virt. eigenvalues --    2.10581   2.11201   2.11335   2.11726   2.12593
 Alpha virt. eigenvalues --    2.12949   2.13581   2.14269   2.14515   2.14610
 Alpha virt. eigenvalues --    2.15545   2.16807   2.16926   2.17533   2.19071
 Alpha virt. eigenvalues --    2.19600   2.19646   2.20397   2.20707   2.21417
 Alpha virt. eigenvalues --    2.21840   2.22524   2.22867   2.23379   2.24046
 Alpha virt. eigenvalues --    2.25062   2.25224   2.25975   2.26786   2.27285
 Alpha virt. eigenvalues --    2.27937   2.28140   2.28463   2.28673   2.28994
 Alpha virt. eigenvalues --    2.29350   2.30106   2.30661   2.30967   2.31336
 Alpha virt. eigenvalues --    2.31834   2.32598   2.33013   2.33264   2.33772
 Alpha virt. eigenvalues --    2.34538   2.34939   2.35176   2.35987   2.36025
 Alpha virt. eigenvalues --    2.37113   2.37293   2.37456   2.37773   2.38484
 Alpha virt. eigenvalues --    2.39038   2.39699   2.39827   2.40161   2.40410
 Alpha virt. eigenvalues --    2.41083   2.41556   2.42074   2.42394   2.42566
 Alpha virt. eigenvalues --    2.43059   2.43419   2.43946   2.44458   2.44831
 Alpha virt. eigenvalues --    2.45256   2.45969   2.46559   2.47109   2.47545
 Alpha virt. eigenvalues --    2.47854   2.48434   2.48818   2.50163   2.50798
 Alpha virt. eigenvalues --    2.51175   2.51783   2.52093   2.52816   2.53136
 Alpha virt. eigenvalues --    2.53643   2.53679   2.54417   2.54859   2.54916
 Alpha virt. eigenvalues --    2.55504   2.55729   2.56100   2.56398   2.56683
 Alpha virt. eigenvalues --    2.57143   2.57458   2.58636   2.58720   2.59042
 Alpha virt. eigenvalues --    2.59297   2.60172   2.60482   2.61287   2.61553
 Alpha virt. eigenvalues --    2.61831   2.62442   2.63131   2.63274   2.63712
 Alpha virt. eigenvalues --    2.64027   2.64227   2.64893   2.64996   2.65194
 Alpha virt. eigenvalues --    2.65295   2.66049   2.66811   2.67145   2.67406
 Alpha virt. eigenvalues --    2.67851   2.68417   2.68725   2.69240   2.69553
 Alpha virt. eigenvalues --    2.69854   2.70142   2.70785   2.70868   2.71504
 Alpha virt. eigenvalues --    2.71836   2.71980   2.72676   2.72947   2.73284
 Alpha virt. eigenvalues --    2.73761   2.74290   2.74941   2.75581   2.76376
 Alpha virt. eigenvalues --    2.76522   2.76941   2.77258   2.77872   2.78085
 Alpha virt. eigenvalues --    2.78648   2.79128   2.80207   2.80477   2.80831
 Alpha virt. eigenvalues --    2.81131   2.81589   2.82058   2.82657   2.83328
 Alpha virt. eigenvalues --    2.83400   2.83511   2.84505   2.85101   2.85392
 Alpha virt. eigenvalues --    2.85767   2.86749   2.87254   2.87513   2.88070
 Alpha virt. eigenvalues --    2.88500   2.88878   2.89737   2.89996   2.90555
 Alpha virt. eigenvalues --    2.91468   2.91568   2.92371   2.92742   2.92864
 Alpha virt. eigenvalues --    2.93394   2.93895   2.94293   2.94862   2.95525
 Alpha virt. eigenvalues --    2.95843   2.97042   2.97423   2.98858   2.99283
 Alpha virt. eigenvalues --    3.00296   3.00673   3.01903   3.02432   3.02570
 Alpha virt. eigenvalues --    3.02923   3.03330   3.04580   3.05166   3.05717
 Alpha virt. eigenvalues --    3.05761   3.06084   3.06940   3.07432   3.08313
 Alpha virt. eigenvalues --    3.09250   3.09306   3.10105   3.10613   3.11029
 Alpha virt. eigenvalues --    3.11730   3.12135   3.12874   3.12884   3.13252
 Alpha virt. eigenvalues --    3.13869   3.14320   3.14613   3.14894   3.15308
 Alpha virt. eigenvalues --    3.15815   3.16207   3.16521   3.17294   3.17894
 Alpha virt. eigenvalues --    3.18308   3.18654   3.18973   3.19404   3.20087
 Alpha virt. eigenvalues --    3.20554   3.21146   3.21302   3.21624   3.21879
 Alpha virt. eigenvalues --    3.22594   3.23030   3.23463   3.23769   3.24331
 Alpha virt. eigenvalues --    3.24428   3.24794   3.24979   3.25416   3.25760
 Alpha virt. eigenvalues --    3.25859   3.26382   3.26886   3.26938   3.27473
 Alpha virt. eigenvalues --    3.27757   3.27898   3.28446   3.29178   3.30044
 Alpha virt. eigenvalues --    3.30408   3.30630   3.30845   3.31575   3.31955
 Alpha virt. eigenvalues --    3.32499   3.32772   3.33019   3.33689   3.33944
 Alpha virt. eigenvalues --    3.34571   3.34879   3.34998   3.35633   3.35999
 Alpha virt. eigenvalues --    3.36187   3.36816   3.37158   3.37480   3.38160
 Alpha virt. eigenvalues --    3.38405   3.38606   3.38691   3.39205   3.39476
 Alpha virt. eigenvalues --    3.39631   3.40078   3.40314   3.40604   3.40844
 Alpha virt. eigenvalues --    3.41593   3.41894   3.41981   3.42288   3.42954
 Alpha virt. eigenvalues --    3.43204   3.43355   3.43663   3.44156   3.44931
 Alpha virt. eigenvalues --    3.45484   3.45806   3.46128   3.46324   3.47111
 Alpha virt. eigenvalues --    3.47669   3.47954   3.48370   3.49274   3.49316
 Alpha virt. eigenvalues --    3.49783   3.50357   3.50579   3.51471   3.52038
 Alpha virt. eigenvalues --    3.53564   3.54183   3.54591   3.55309   3.55587
 Alpha virt. eigenvalues --    3.55834   3.56674   3.57300   3.57475   3.57930
 Alpha virt. eigenvalues --    3.58270   3.58779   3.59033   3.59770   3.60440
 Alpha virt. eigenvalues --    3.60603   3.61769   3.62320   3.62822   3.63184
 Alpha virt. eigenvalues --    3.63518   3.64165   3.64446   3.64720   3.66123
 Alpha virt. eigenvalues --    3.67241   3.68185   3.69085   3.70621   3.70907
 Alpha virt. eigenvalues --    3.71520   3.74559   3.75406   3.77319   3.77838
 Alpha virt. eigenvalues --    3.78203   3.79366   3.80230   3.80401   3.81231
 Alpha virt. eigenvalues --    3.81341   3.82406   3.82839   3.83283   3.83935
 Alpha virt. eigenvalues --    3.84271   3.84590   3.86720   3.87757   3.88182
 Alpha virt. eigenvalues --    3.88493   3.89025   3.89730   3.90521   3.91051
 Alpha virt. eigenvalues --    3.92417   3.92782   3.93557   3.94447   3.94581
 Alpha virt. eigenvalues --    3.95238   3.95713   3.96362   3.96803   3.98072
 Alpha virt. eigenvalues --    3.98644   3.99784   4.00967   4.01276   4.02462
 Alpha virt. eigenvalues --    4.03653   4.04479   4.06067   4.06353   4.07363
 Alpha virt. eigenvalues --    4.07916   4.09001   4.09262   4.10371   4.11836
 Alpha virt. eigenvalues --    4.12154   4.12907   4.15784   4.16367   4.17457
 Alpha virt. eigenvalues --    4.20338   4.20435   4.21172   4.22628   4.23242
 Alpha virt. eigenvalues --    4.24047   4.24860   4.25378   4.25942   4.26806
 Alpha virt. eigenvalues --    4.27585   4.27863   4.28625   4.29007   4.29488
 Alpha virt. eigenvalues --    4.30922   4.32241   4.32947   4.35006   4.35931
 Alpha virt. eigenvalues --    4.36394   4.38869   4.39976   4.40282   4.41579
 Alpha virt. eigenvalues --    4.42540   4.43747   4.44106   4.44804   4.47370
 Alpha virt. eigenvalues --    4.47751   4.49234   4.49990   4.50645   4.52855
 Alpha virt. eigenvalues --    4.53184   4.53826   4.55732   4.59120   4.59968
 Alpha virt. eigenvalues --    4.60706   4.61077   4.62000   4.63731   4.64461
 Alpha virt. eigenvalues --    4.65640   4.66693   4.67079   4.68447   4.69533
 Alpha virt. eigenvalues --    4.71901   4.72032   4.72954   4.75051   4.75593
 Alpha virt. eigenvalues --    4.77319   4.78529   4.78880   4.79964   4.83311
 Alpha virt. eigenvalues --    4.85017   4.88881   4.90982   4.91234   4.95864
 Alpha virt. eigenvalues --    4.97943   5.10082   5.15099   5.17449   5.18933
 Alpha virt. eigenvalues --    5.19249   5.22199   5.23667   5.24169   5.24604
 Alpha virt. eigenvalues --    5.25092   5.25441   5.25955   5.26437   5.26572
 Alpha virt. eigenvalues --    5.26960   5.27274   5.27775   5.28307   5.29812
 Alpha virt. eigenvalues --    5.30526   5.31163   5.31816   5.32284   5.33952
 Alpha virt. eigenvalues --    5.34488   5.35086   5.35433   5.37168   5.37884
 Alpha virt. eigenvalues --    5.38862   5.41058   5.41482   5.42382   5.43660
 Alpha virt. eigenvalues --    5.44418   5.45900   5.46481   5.47165   5.47575
 Alpha virt. eigenvalues --    5.48139   5.48489   5.48638   5.50390   5.50470
 Alpha virt. eigenvalues --    5.50724   5.51956   5.52316   5.52898   5.53935
 Alpha virt. eigenvalues --    5.55092   5.57557   5.58642   5.66416   5.66471
 Alpha virt. eigenvalues --    5.68270   5.70783   5.71215   5.71525   5.72229
 Alpha virt. eigenvalues --    5.72530   5.73600   5.74306   5.76881   5.77596
 Alpha virt. eigenvalues --    5.79021   5.80574   5.81712   5.83064   5.84809
 Alpha virt. eigenvalues --    5.85374   5.86174   5.86412   5.87593   5.87825
 Alpha virt. eigenvalues --    5.88412   5.88605   5.91330   5.92233   5.93554
 Alpha virt. eigenvalues --    5.94549   5.97167   5.97580   5.97833   5.99160
 Alpha virt. eigenvalues --    6.01675   6.04398   6.05820   6.09053   6.10309
 Alpha virt. eigenvalues --    6.11707   6.12538   6.13756   6.15941   6.16828
 Alpha virt. eigenvalues --    6.18978   6.21325   6.23821   6.25108   6.26500
 Alpha virt. eigenvalues --    6.26986   6.29921   6.34438   6.40170   6.41163
 Alpha virt. eigenvalues --    6.44826   6.45013   6.47019   6.47373   6.47737
 Alpha virt. eigenvalues --    6.50311   6.51889   6.53486   6.54136   6.55280
 Alpha virt. eigenvalues --    6.56264   6.57123   6.57955   6.59578   6.61771
 Alpha virt. eigenvalues --    6.63641   6.63857   6.65810   6.66292   6.66638
 Alpha virt. eigenvalues --    6.69683   6.70929   6.71455   6.71905   6.73038
 Alpha virt. eigenvalues --    6.73394   6.74545   6.75277   6.76131   6.76590
 Alpha virt. eigenvalues --    6.77063   6.79979   6.80545   6.82485   6.84269
 Alpha virt. eigenvalues --    6.86716   6.86786   6.88833   6.91652   6.93960
 Alpha virt. eigenvalues --    6.94797   6.96062   6.97344   6.98173   7.00773
 Alpha virt. eigenvalues --    7.02084   7.02901   7.03372   7.06883   7.07800
 Alpha virt. eigenvalues --    7.08007   7.09837   7.10986   7.11587   7.12332
 Alpha virt. eigenvalues --    7.12547   7.14343   7.16803   7.16824   7.17250
 Alpha virt. eigenvalues --    7.19883   7.20560   7.23559   7.25384   7.26766
 Alpha virt. eigenvalues --    7.29021   7.30330   7.31097   7.33750   7.41531
 Alpha virt. eigenvalues --    7.46461  22.34213  22.47631  22.50649  22.54976
 Alpha virt. eigenvalues --   22.57303  22.59939  22.60339  22.61014  22.63964
 Alpha virt. eigenvalues --   22.68089  22.70097  22.71063  22.72326  22.81890
 Alpha virt. eigenvalues --   22.84495  22.88780  23.02040  23.26392  23.45366
 Alpha virt. eigenvalues --   23.62573  43.92821  43.96711  44.04684  44.05787
 Alpha virt. eigenvalues --   44.13030  44.16099  44.20476  44.24350  44.28066
 Alpha virt. eigenvalues --   44.30379  44.34023  44.44222  44.51431  44.68264
          Condensed to atoms (all electrons):
 Mulliken charges:
               1
     1  O   -0.566782
     2  Ti   1.242171
     3  O   -0.338431
     4  O   -0.653413
     5  O   -0.667316
     6  C   -0.148380
     7  C   -0.055259
     8  C   -0.150525
     9  C   -0.078745
    10  O   -0.527788
    11  C   -0.049448
    12  C   -0.140498
    13  O   -0.436430
    14  C   -0.104460
    15  C   -0.120162
    16  O   -0.540460
    17  H    0.152822
    18  H    0.149412
    19  H    0.136485
    20  H    0.152556
    21  H    0.126337
    22  H    0.148637
    23  H    0.145885
    24  H    0.172448
    25  H    0.167860
    26  H    0.158042
    27  H    0.148639
    28  H    0.136030
    29  H    0.137600
    30  O   -0.525984
    31  H    0.371077
    32  H    0.340084
    33  H    0.339516
    34  H    0.426612
    35  H    0.411124
    36  C    0.201085
    37  O   -0.483008
    38  C   -0.187445
    39  C    0.213513
    40  C   -0.198003
    41  C   -0.187684
    42  C    0.073302
    43  C   -0.177663
    44  H    0.183122
    45  H    0.166392
    46  H    0.160571
    47  H    0.190020
    48  O   -0.524669
    49  C   -0.141210
    50  C   -0.078048
    51  O   -0.552651
    52  H    0.153525
    53  H    0.137908
    54  H    0.355935
    55  H    0.144661
    56  H    0.137861
    57  H    0.180689
    58  H    0.214170
    59  C    0.379510
    60  O   -0.393486
    61  O   -0.270616
    62  H    0.181528
    63  O   -0.316150
    64  C   -0.230678
    65  H    0.169548
    66  H    0.151058
    67  H    0.173854
    68  C   -0.264484
    69  H    0.159148
    70  H    0.159741
    71  H    0.159397
 Sum of Mulliken charges =  -0.00000
 Mulliken charges with hydrogens summed into heavy atoms:
               1
     1  O   -0.566782
     2  Ti   1.242171
     3  O   -0.338431
     4  O   -0.653413
     5  O   -0.667316
     6  C    0.158301
     7  C    0.218371
     8  C    0.151709
     9  C    0.210296
    10  O   -0.188272
    11  C    0.245074
    12  C    0.199810
    13  O   -0.009818
    14  C    0.251952
    15  C    0.166747
    16  O   -0.169383
    30  O   -0.185900
    36  C    0.201085
    37  O   -0.483008
    38  C    0.026725
    39  C    0.213513
    40  C   -0.017314
    41  C   -0.004562
    42  C    0.073302
    43  C    0.003865
    48  O   -0.524669
    49  C    0.141312
    50  C    0.213385
    51  O   -0.196716
    59  C    0.379510
    60  O   -0.393486
    61  O   -0.270616
    63  O    0.094974
    64  C    0.263781
    68  C    0.213802
 APT charges:
               1
     1  O   -0.087881
     2  Ti   1.324337
     3  O   -0.541274
     4  O   -0.514021
     5  O   -0.348581
     6  C   -1.369906
     7  C    0.559873
     8  C   -2.407591
     9  C    1.220092
    10  O   -1.521786
    11  C   -1.867060
    12  C   -2.367412
    13  O    0.440125
    14  C   -1.697667
    15  C    0.046012
    16  O    0.040612
    17  H    1.084224
    18  H    0.606090
    19  H   -0.497738
    20  H    0.020426
    21  H   -0.654226
    22  H   -0.094405
    23  H    1.731233
    24  H    0.849889
    25  H    1.110249
    26  H    0.749344
    27  H    0.597383
    28  H    0.047778
    29  H   -0.106738
    30  O   -1.288517
    31  H   -0.595834
    32  H    1.018817
    33  H    1.074467
    34  H   -0.243771
    35  H    1.377896
    36  C    1.171857
    37  O   -0.338276
    38  C   -0.436730
    39  C   -0.188256
    40  C   -0.104904
    41  C   -1.127639
    42  C    0.002922
    43  C   -0.851299
    44  H    1.546055
    45  H    1.583666
    46  H    1.262999
    47  H   -0.080483
    48  O   -0.586632
    49  C    0.842087
    50  C   -1.487582
    51  O    0.085910
    52  H    1.332031
    53  H   -0.078717
    54  H   -0.132197
    55  H   -0.567422
    56  H    0.553675
    57  H   -0.440653
    58  H   -0.006857
    59  C   -0.995260
    60  O    1.117231
    61  O   -0.341048
    62  H    1.267239
    63  O   -1.121724
    64  C   -0.459752
    65  H   -0.710069
    66  H    0.854962
    67  H    0.644988
    68  C   -1.345278
    69  H    1.149205
    70  H   -0.188065
    71  H    0.479576
 Sum of APT charges =  -0.00000
 APT charges with hydrogens summed into heavy atoms:
               1
     1  O   -0.087881
     2  Ti   1.324337
     3  O   -0.541274
     4  O   -0.514021
     5  O   -0.348581
     6  C   -0.023179
     7  C    0.500913
     8  C   -0.717277
     9  C    0.742781
    10  O   -0.447319
    11  C   -0.230231
    12  C   -0.407274
    13  O    0.196353
    14  C   -0.194484
    15  C    0.654785
    16  O   -0.555222
    30  O   -0.269699
    36  C    1.171857
    37  O   -0.338276
    38  C   -0.443587
    39  C   -0.188256
    40  C   -0.545558
    41  C    0.418416
    42  C    0.002922
    43  C    0.415940
    48  O   -0.586632
    49  C    0.828340
    50  C   -0.234267
    51  O   -0.046288
    59  C   -0.995260
    60  O    1.117231
    61  O   -0.341048
    63  O    0.256171
    64  C    0.330128
    68  C    0.095439
 Electronic spatial extent (au):  <R**2>=          66095.7890
 Charge=             -0.0000 electrons
 Dipole moment (field-independent basis, Debye):
    X=             -2.2118    Y=              1.5890    Z=             -1.8995  Tot=              3.3204
 Quadrupole moment (field-independent basis, Debye-Ang):
   XX=           -235.6527   YY=           -241.7527   ZZ=           -217.3012
   XY=             26.6525   XZ=            -31.7394   YZ=             -0.8450
 Traceless Quadrupole moment (field-independent basis, Debye-Ang):
   XX=             -4.0838   YY=            -10.1838   ZZ=             14.2677
   XY=             26.6525   XZ=            -31.7394   YZ=             -0.8450
 Octapole moment (field-independent basis, Debye-Ang**2):
  XXX=          -3348.6158  YYY=           3331.6550  ZZZ=            595.8631  XYY=          -1227.6667
  XXY=           1378.3870  XXZ=            -88.3206  XZZ=           -867.5849  YZZ=           1051.0167
  YYZ=            272.6732  XYZ=            104.5500
 Hexadecapole moment (field-independent basis, Debye-Ang**3):
 XXXX=         -43365.1499 YYYY=         -35281.1558 ZZZZ=         -10158.8943 XXXY=          19041.4118
 XXXZ=          -1993.3255 YYYX=          16404.2769 YYYZ=          -3926.4013 ZZZX=           -692.4512
 ZZZY=          -3010.9440 XXYY=         -15030.4494 XXZZ=          -7697.5537 YYZZ=          -7049.9878
 XXYZ=           -256.8803 YYXZ=             29.7121 ZZXY=           4162.0713
 N-N= 5.037205019744D+03 E-N=-1.639114219502D+04  KE= 2.677134693572D+03
  Exact polarizability:   0.000   0.000   0.000   0.000   0.000   0.000
 Approx polarizability: 424.462  -2.561 361.480   1.757  18.551 382.289
   1 Symmetry operations used in ECPInt.
 ECPInt:  NShTT=  142311 NPrTT=  435693 LenC2=  110253 LenP2D=  224229.
 LDataN:  DoStor=T MaxTD1= 8 Len=  415
 D2PCM: PCM CHGder 2nd derivatives, FixD1E=F FixD2E=F DoIter=F DoCFld=F I1PDM=0
 Calling FoFJK, ICntrl=    100147 FMM=F ISym2X=0 I1Cent= 0 IOpClX= 0 NMat=1 NMatS=1 NMatT=0.
 -------------------------------------------------------------------
 Center     Atomic                   Forces (Hartrees/Bohr)
 Number     Number              X              Y              Z
 -------------------------------------------------------------------
      1        8          -0.000152583   -0.000328484    0.000109874
      2       22          -0.002268386   -0.001102824    0.000959306
      3        8          -0.005186440   -0.017589737    0.003853233
      4        8           0.000092195    0.001500610   -0.000077662
      5        8          -0.000013906    0.001412486   -0.001708957
      6        6           0.000058244   -0.000124779    0.000887733
      7        6          -0.000048730   -0.000198800   -0.000025453
      8        6           0.000322670   -0.000302696   -0.000492496
      9        6          -0.000058204    0.000156156    0.000037596
     10        8          -0.000045307   -0.000115354    0.000043868
     11        6           0.000650684   -0.000587195   -0.000389093
     12        6          -0.000021700    0.000224197   -0.000224305
     13        8           0.000018404   -0.000136732   -0.000111505
     14        6           0.000813334    0.000041209    0.000597253
     15        6           0.000901525   -0.000120806   -0.000131627
     16        8          -0.000255509    0.001166505   -0.001440530
     17        1          -0.000033441    0.000178236    0.000337713
     18        1          -0.000143904   -0.000103237   -0.000069887
     19        1           0.000094178    0.000095242   -0.000013196
     20        1           0.000156103    0.000063895    0.000078933
     21        1           0.000603946   -0.000226390   -0.000404955
     22        1          -0.000131279    0.000238163   -0.000160277
     23        1          -0.000048245    0.000255050   -0.000138237
     24        1          -0.000120600   -0.000055032   -0.000017985
     25        1           0.000160297    0.000022847   -0.000048191
     26        1           0.000387822   -0.000006675    0.000053182
     27        1          -0.000123672    0.000005714   -0.000288723
     28        1          -0.000071152   -0.000148048    0.000010134
[...]
   A129       3.18608   0.00021   0.00000  -0.01656  -0.01655   3.16953
   A130       3.11985   0.00007   0.00000  -0.00069  -0.00068   3.11917
   A131       3.04766  -0.00005   0.00000   0.00303   0.00302   3.05068
   A132       2.92102  -0.00001   0.00000   0.02355   0.02351   2.94453
    D1       -0.42158  -0.00006   0.00000  -0.06608  -0.06606  -0.48764
    D2        2.37366   0.00002   0.00000  -0.06998  -0.06997   2.30370
    D3        0.90992  -0.00005   0.00000  -0.06753  -0.06752   0.84241
    D4       -2.13774   0.00000   0.00000  -0.07055  -0.07054  -2.20828
    D5       -1.74939   0.00005   0.00000   0.06227   0.06227  -1.68712
    D6        0.36205   0.00007   0.00000   0.06823   0.06823   0.43028
    D7        2.43378   0.00010   0.00000   0.06563   0.06563   2.49941
    D8        2.30960  -0.00016   0.00000  -0.07697  -0.07702   2.23258
    D9        2.07232  -0.00009   0.00000   0.00410   0.00412   2.07644
   D10        0.36760   0.00027   0.00000   0.01929   0.01925   0.38685
   D11        0.50554  -0.00005   0.00000   0.00370   0.00370   0.50924
   D12       -2.65308   0.00001   0.00000   0.00456   0.00457  -2.64852
   D13       -1.04752  -0.00016   0.00000   0.00479   0.00480  -1.04272
   D14       -0.28479   0.00014   0.00000   0.01908   0.01907  -0.26572
   D15        1.41934  -0.00010   0.00000   0.00427   0.00430   1.42364
   D16        1.28458   0.00021   0.00000   0.01950   0.01950   1.30408
   D17       -1.84435   0.00016   0.00000   0.01923   0.01922  -1.82514
   D18        2.84049   0.00020   0.00000   0.01930   0.01930   2.85979
   D19       -1.60799  -0.00021   0.00000  -0.00386  -0.00384  -1.61184
   D20        2.52970  -0.00017   0.00000  -0.00759  -0.00758   2.52211
   D21       -0.01504   0.00007   0.00000  -0.00525  -0.00526  -0.02031
   D22       -2.16054   0.00011   0.00000  -0.00898  -0.00900  -2.16954
   D23        3.07917   0.00019   0.00000  -0.00036  -0.00033   3.07884
   D24        0.93368   0.00023   0.00000  -0.00409  -0.00408   0.92960
   D25        1.55065  -0.00025   0.00000  -0.00140  -0.00139   1.54926
   D26       -0.59484  -0.00021   0.00000  -0.00513  -0.00513  -0.59997
   D27        1.29374   0.00031   0.00000  -0.03020  -0.03019   1.26355
   D28       -2.58497   0.00020   0.00000  -0.02093  -0.02090  -2.60587
   D29       -0.30691   0.00002   0.00000  -0.02761  -0.02758  -0.33450
   D30        2.09757  -0.00009   0.00000  -0.01834  -0.01829   2.07928
   D31        2.90553  -0.00008   0.00000  -0.03604  -0.03612   2.86941
   D32       -0.97318  -0.00018   0.00000  -0.02677  -0.02683  -1.00000
   D33       -1.86262   0.00034   0.00000  -0.03261  -0.03261  -1.89523
   D34        0.54186   0.00024   0.00000  -0.02334  -0.02332   0.51854
   D35        2.75235  -0.00014   0.00000  -0.00966  -0.00965   2.74269
   D36       -0.04380  -0.00022   0.00000  -0.00567  -0.00566  -0.04946
   D37        1.42068  -0.00015   0.00000  -0.00814  -0.00813   1.41256
   D38       -1.81462  -0.00021   0.00000  -0.00508  -0.00507  -1.81970
   D39        0.19192  -0.00017   0.00000  -0.00996  -0.00996   0.18197
   D40       -1.93144  -0.00012   0.00000  -0.01042  -0.01042  -1.94186
   D41        2.30568  -0.00010   0.00000  -0.01047  -0.01047   2.29521
   D42       -1.51548  -0.00000   0.00000  -0.00849  -0.00849  -1.52396
   D43        2.64435   0.00005   0.00000  -0.00895  -0.00895   2.63539
   D44        0.59829   0.00007   0.00000  -0.00900  -0.00900   0.58928
   D45       -2.19448   0.00006   0.00000  -0.00316  -0.00316  -2.19765
   D46       -0.18655   0.00047   0.00000  -0.00265  -0.00265  -0.18920
   D47        0.43412  -0.00007   0.00000  -0.00584  -0.00585   0.42828
   D48       -2.13103  -0.00000   0.00000  -0.00381  -0.00381  -2.13484
   D49       -1.81704  -0.00011   0.00000  -0.00139  -0.00140  -1.81844
   D50        1.90099  -0.00003   0.00000   0.00063   0.00064   1.90163
   D51       -0.87655   0.00004   0.00000  -0.00112  -0.00112  -0.87768
   D52        1.20171   0.00002   0.00000  -0.00119  -0.00119   1.20052
   D53       -2.97829   0.00002   0.00000  -0.00091  -0.00091  -2.97920
   D54        2.98659  -0.00031   0.00000   0.11984   0.11984   3.10643
   D55       -1.20032  -0.00002   0.00000   0.12720   0.12720  -1.07312
   D56        0.86990  -0.00021   0.00000   0.12462   0.12462   0.99452
   D57        0.99485   0.00012   0.00000   0.00491   0.00492   0.99976
   D58       -1.06882   0.00011   0.00000   0.00292   0.00292  -1.06590
   D59       -3.12763   0.00010   0.00000   0.00329   0.00329  -3.12434
   D60       -1.11241  -0.00007   0.00000  -0.00114  -0.00114  -1.11355
   D61        3.10711  -0.00009   0.00000  -0.00313  -0.00314   3.10398
   D62        1.04830  -0.00010   0.00000  -0.00276  -0.00277   1.04554
   D63        3.12680  -0.00001   0.00000   0.00202   0.00202   3.12882
   D64        1.06313  -0.00003   0.00000   0.00003   0.00002   1.06316
   D65       -0.99568  -0.00004   0.00000   0.00040   0.00040  -0.99528
   D66       -1.13404   0.00001   0.00000  -0.00571  -0.00571  -1.13975
   D67        1.01342   0.00010   0.00000  -0.00430  -0.00430   1.00912
   D68        3.06283  -0.00018   0.00000  -0.00688  -0.00688   3.05596
   D69        3.09763   0.00008   0.00000   0.04418   0.04418  -3.14138
   D70       -1.02226   0.00005   0.00000   0.04155   0.04155  -0.98070
   D71        1.03535   0.00007   0.00000   0.04272   0.04272   1.07806
   D72        0.96698   0.00003   0.00000   0.04058   0.04057   1.00756
   D73        3.13028   0.00001   0.00000   0.03795   0.03795  -3.11496
   D74       -1.09530   0.00003   0.00000   0.03912   0.03911  -1.05619
   D75       -1.07561   0.00002   0.00000   0.04243   0.04243  -1.03319
   D76        1.08769  -0.00000   0.00000   0.03980   0.03980   1.12749
   D77       -3.13789   0.00002   0.00000   0.04096   0.04096  -3.09693
   D78        1.13945  -0.00003   0.00000  -0.00304  -0.00304   1.13641
   D79       -1.00559  -0.00000   0.00000   0.00171   0.00171  -1.00388
   D80       -3.05851   0.00003   0.00000   0.00166   0.00166  -3.05685
   D81        0.76978   0.00000   0.00000  -0.00463  -0.00463   0.76515
   D82        2.89203  -0.00002   0.00000  -0.00548  -0.00547   2.88656
   D83       -1.24443  -0.00001   0.00000  -0.00556  -0.00556  -1.24999
   D84       -1.31238   0.00000   0.00000  -0.00495  -0.00495  -1.31733
   D85        0.80987  -0.00002   0.00000  -0.00580  -0.00580   0.80408
   D86        2.95660  -0.00001   0.00000  -0.00588  -0.00588   2.95072
   D87        2.87896   0.00001   0.00000  -0.00500  -0.00500   2.87395
   D88       -1.28198  -0.00001   0.00000  -0.00584  -0.00584  -1.28782
   D89        0.86474  -0.00001   0.00000  -0.00593  -0.00593   0.85882
   D90       -0.40352  -0.00005   0.00000   0.00618   0.00619  -0.39732
   D91        1.66829  -0.00002   0.00000   0.01266   0.01266   1.68095
   D92       -2.55774  -0.00001   0.00000   0.00721   0.00722  -2.55052
   D93       -0.48593   0.00002   0.00000   0.01368   0.01368  -0.47225
   D94        1.65586  -0.00001   0.00000   0.00695   0.00695   1.66281
   D95       -2.55552   0.00002   0.00000   0.01342   0.01342  -2.54210
   D96        2.92275   0.00004   0.00000  -0.00963  -0.00963   2.91312
   D97        0.79914   0.00001   0.00000  -0.01111  -0.01111   0.78803
   D98       -1.28150   0.00001   0.00000  -0.01029  -0.01029  -1.29179
   D99       -1.29976   0.00002   0.00000  -0.00978  -0.00978  -1.30954
   D100       2.85982  -0.00001   0.00000  -0.01126  -0.01126   2.84856
   D101       0.77917  -0.00001   0.00000  -0.01044  -0.01044   0.76873
   D102       0.82168   0.00001   0.00000  -0.00921  -0.00921   0.81247
   D103      -1.30192  -0.00003   0.00000  -0.01069  -0.01069  -1.31261
   D104       2.90062  -0.00002   0.00000  -0.00987  -0.00987   2.89075
   D105      -1.25857  -0.00000   0.00000   0.01218   0.01218  -1.24639
   D106       0.84931   0.00002   0.00000   0.01297   0.01297   0.86228
   D107       2.92461   0.00002   0.00000   0.01248   0.01248   2.93709
   D108       2.06372   0.00033   0.00000   0.00617   0.00617   2.06989
   D109       2.91073  -0.00001   0.00000  -0.03626  -0.03627   2.87447
   D110      -0.22837  -0.00003   0.00000  -0.03882  -0.03882  -0.26720
   D111       0.36600  -0.00010   0.00000  -0.03484  -0.03483   0.33117
   D112      -2.77311  -0.00012   0.00000  -0.03740  -0.03739  -2.81050
   D113      -3.13745  -0.00004   0.00000  -0.00197  -0.00197  -3.13941
   D114       0.00169  -0.00002   0.00000   0.00056   0.00056   0.00225
   D115      -0.00249  -0.00004   0.00000  -0.00200  -0.00200  -0.00448
   D116       3.13665  -0.00002   0.00000   0.00053   0.00053   3.13718
   D117       0.00088   0.00001   0.00000  -0.00062  -0.00062   0.00025
   D118       3.13794   0.00001   0.00000  -0.00014  -0.00014   3.13780
   D119      -3.13400   0.00001   0.00000  -0.00059  -0.00059  -3.13459
   D120       0.00307   0.00001   0.00000  -0.00011  -0.00011   0.00296
   D121       3.13596   0.00004   0.00000   0.00251   0.00251   3.13846
   D122       0.00480   0.00002   0.00000   0.00228   0.00228   0.00708
   D123      -0.00307   0.00002   0.00000  -0.00014  -0.00014  -0.00321
   D124      -3.13423  -0.00000   0.00000  -0.00036  -0.00036  -3.13459
   D125      -0.00205   0.00001   0.00000   0.00027   0.00027  -0.00179
   D126       3.13764   0.00000   0.00000  -0.00039  -0.00039   3.13725
   D127      -3.13913   0.00000   0.00000  -0.00022  -0.00022  -3.13934
   D128       0.00056   0.00000   0.00000  -0.00087  -0.00087  -0.00031
   D129       0.00188  -0.00000   0.00000  -0.00022  -0.00022   0.00165
   D130      -3.13553  -0.00001   0.00000  -0.00057  -0.00057  -3.13610
   D131       3.13300   0.00001   0.00000   0.00000   0.00000   3.13300
   D132      -0.00441   0.00000   0.00000  -0.00035  -0.00035  -0.00476
   D133       0.00067  -0.00001   0.00000   0.00016   0.00016   0.00083
   D134       3.13816  -0.00000   0.00000   0.00050   0.00050   3.13866
   D135      -3.13909  -0.00001   0.00000   0.00079   0.00079  -3.13830
   D136      -0.00160   0.00000   0.00000   0.00113   0.00113  -0.00047
   D137       3.13099   0.00002   0.00000   0.01329   0.01329  -3.13890
   D138      -0.01043   0.00002   0.00000   0.01336   0.01336   0.00293
   D139      -0.01246   0.00002   0.00000   0.01265   0.01265   0.00019
   D140       3.12930   0.00002   0.00000   0.01273   0.01273  -3.14116
   D141      -1.42827  -0.00034   0.00000   0.00820   0.00820  -1.42007
   D142       0.67168  -0.00019   0.00000   0.00814   0.00814   0.67982
   D143       2.74568  -0.00016   0.00000   0.00806   0.00806   2.75374
   D144       1.05680  -0.00008   0.00000   0.00187   0.00187   1.05867
   D145      -1.01531  -0.00000   0.00000   0.00151   0.00151  -1.01380
   D146      -3.10569  -0.00002   0.00000   0.00183   0.00183  -3.10386
   D147      -1.07383  -0.00007   0.00000   0.00241   0.00241  -1.07141
   D148       3.13724   0.00000   0.00000   0.00206   0.00206   3.13930
   D149       1.04686  -0.00001   0.00000   0.00238   0.00238   1.04924
   D150      -3.09739  -0.00011   0.00000   0.00181   0.00181  -3.09558
   D151       1.11368  -0.00003   0.00000   0.00145   0.00145   1.11513
   D152      -0.97670  -0.00004   0.00000   0.00177   0.00177  -0.97493
   D153       0.40001  -0.00006   0.00000  -0.01329  -0.01329   0.38673
   D154       2.50347  -0.00007   0.00000  -0.01374  -0.01374   2.48973
   D155      -1.72064  -0.00008   0.00000  -0.01342  -0.01342  -1.73406
   D156       3.14082  -0.00001   0.00000   0.00130   0.00130  -3.14106
   D157      -0.00060  -0.00000   0.00000   0.00138   0.00138   0.00077
   D158       1.05536  -0.00001   0.00000  -0.00253  -0.00253   1.05283
   D159      -3.14097  -0.00001   0.00000  -0.00246  -0.00246   3.13976
   D160      -1.05418  -0.00001   0.00000  -0.00250  -0.00250  -1.05668
   D161      -2.72688  -0.00015   0.00000  -0.06084  -0.06084  -2.78772
   D162      -0.63989  -0.00012   0.00000  -0.05978  -0.05978  -0.69967
   D163       1.48900  -0.00014   0.00000  -0.05914  -0.05914   1.42986
         Item               Value     Threshold  Converged?
 Maximum Force            0.001362     0.000450     NO 
 RMS     Force            0.000137     0.000300     YES
 Maximum Displacement     0.608900     0.001800     NO 
 RMS     Displacement     0.087071     0.001200     NO 
 Predicted change in Energy=-6.587474D-06
 GradGradGradGradGradGradGradGradGradGradGradGradGradGradGradGradGradGrad

 Symmetry turned off by external request.
 Stoichiometry    C20H36O14Ti
 Framework group  C1[X(C20H36O14Ti)]
 Deg. of freedom   207
 Full point group                 C1      NOp   1
                          Input orientation:                          
 ---------------------------------------------------------------------
 Center     Atomic      Atomic             Coordinates (Angstroms)
 Number     Number       Type             X           Y           Z
 ---------------------------------------------------------------------
      1          8           0        7.174743   -4.146432    0.109376
      2         22           0        5.588510   -5.111251    0.273416
      3          8           0        5.779327   -5.770550   -3.741311
      4          8           0        6.552395   -6.777974    0.238730
      5          8           0        4.683243   -3.585636    0.962708
      6          6           0        5.278493   -2.414421    1.452201
      7          6           0        4.195441   -1.428003    1.858231
      8          6           0        8.509942   -4.327456    0.447182
      9          6           0        8.820017   -3.644734    1.772089
     10          8           0       10.178540   -3.810832    2.146320
     11          6           0        6.446214   -7.603572    1.367170
     12          6           0        6.743710   -6.731585    2.574435
     13          8           0        6.037899   -5.497851    2.379485
     14          6           0        6.522187   -6.825466   -3.089594
     15          6           0        7.870761   -6.333583   -2.577179
     16          8           0        8.420589   -7.290032   -1.701982
     17          1           0        8.754051   -5.396286    0.523642
     18          1           0        9.156018   -3.898930   -0.333208
     19          1           0        8.551394   -2.585344    1.704950
     20          1           0        8.216582   -4.094215    2.561724
     21          1           0        7.737584   -5.371443   -2.070938
     22          1           0        5.430364   -8.009343    1.444022
     23          1           0        7.154021   -8.436585    1.313671
     24          1           0        6.448862   -7.190280    3.518016
     25          1           0        7.804631   -6.480061    2.610213
     26          1           0        5.912214   -2.641653    2.322320
     27          1           0        5.925315   -1.955886    0.697300
     28          1           0        3.534978   -1.883819    2.604790
     29          1           0        3.590463   -1.173053    0.987016
     30          8           0        4.745896   -0.214020    2.340722
     31          1           0        7.868666   -7.238193   -0.894459
     32          1           0        5.222938   -0.398565    3.156446
     33          1           0       10.730022   -3.354435    1.502391
     34          1           0        5.165974   -5.482685    2.842049
     35          1           0        6.201230   -4.494207   -4.117454
     36          6           0        4.962141   -4.961967   -2.892910
     37          8           0        5.291139   -4.896777   -1.692506
     38          6           0        2.609260   -4.467446   -2.333285
     39          6           0        3.513723   -4.949164   -3.272312
     40          6           0        1.257463   -4.436504   -2.633174
     41          6           0        3.076845   -5.399186   -4.513679
     42          6           0        0.815586   -4.888690   -3.873236
     43          6           0        1.724610   -5.368579   -4.811408
     44          1           0        3.787987   -5.778028   -5.234579
     45          1           0        6.636040   -7.607045   -3.837000
     46          1           0        8.562901   -6.193368   -3.409016
     47          1           0        5.928298   -7.202711   -2.257600
     48          8           0        3.971844   -6.063367    0.482208
     49          6           0        2.698328   -5.808734    0.976501
     50          6           0        2.650666   -5.923335    2.487881
     51          8           0        3.533677   -4.981135    3.100775
     52          1           0        2.970174   -6.919512    2.801356
     53          1           0        1.628981   -5.755297    2.839507
     54          1           0        3.685217   -4.265836    2.453047
     55          1           0        2.367929   -4.794842    0.704127
     56          1           0        1.974311   -6.513499    0.550941
     57          1           0        0.546903   -4.066834   -1.907664
     58          1           0        2.971544   -4.126115   -1.371763
     59          6           0       -0.630844   -4.880588   -4.241114
     60          8           0       -1.056553   -5.265227   -5.302061
     61          8           0       -1.405397   -4.402086   -3.271735
     62          1           0        1.355953   -5.717222   -5.767737
     63          8           0        5.605064   -3.607651   -3.752827
     64          6           0        6.300237   -2.673143   -2.921751
     65          1           0        5.548138   -2.109748   -2.371390
     66          1           0        6.958440   -3.182498   -2.218200
     67          1           0        6.862442   -2.006740   -3.571370
     68          6           0       -2.807395   -4.364366   -3.553018
     69          1           0       -3.176055   -5.368828   -3.751993
     70          1           0       -3.276014   -3.954200   -2.664868
     71          1           0       -2.998972   -3.728963   -4.415616
 ---------------------------------------------------------------------
 Rotational constants (GHZ):           0.1470717           0.0681834           0.0593821
 Standard basis: def2TZVP (5D, 7F)
  1315 basis functions,  2124 primitive gaussians,  1492 cartesian basis functions
   145 alpha electrons      145 beta electrons
       nuclear repulsion energy      5035.8221438500 Hartrees.
 NAtoms=   71 NActive=   71 NUniq=   71 SFac= 1.00D+00 NAtFMM=   60 NAOKFM=T Big=T
 Integral buffers will be    131072 words long.
 Raffenetti 2 integral format.
 Two-electron integral symmetry is turned off.
 ------------------------------------------------------------------------------
 Polarizable Continuum Model (PCM)
 =================================
 Model                : PCM.
 Atomic radii         : UFF (Universal Force Field).
 Polarization charges : Total charges.
 Charge compensation  : None.
 Solution method      : Matrix inversion.
 Cavity type          : Scaled VdW (van der Waals Surface) (Alpha=1.100).
 Cavity algorithm     : GePol (No added spheres)
                        Default sphere list used, NSphG=   71.
                        Lebedev-Laikov grids with approx.  7.0 points / Ang**2.
                        Smoothing algorithm: York/Karplus (Gamma=1.0000).
                        Polarization charges: spherical gaussians, with
                                              point-specific exponents (IZeta= 3).
                        Self-potential: point-specific (ISelfS= 7).
                        Self-field    : sphere-specific E.n sum rule (ISelfD= 2).
 1st derivatives      : Analytical E(r).r(x)/FMM algorithm (CHGder, D1EAlg=3).
                        Cavity 1st derivative terms included.
 Solvent              : 1,2-EthaneDiol, Eps=  40.245000 Eps(inf)=   2.050051
 ------------------------------------------------------------------------------
 One-electron integrals computed using PRISM.
   1 Symmetry operations used in ECPInt.
