 Entering Gaussian System, Link 0=g16
 Initial command:
 /nopt/nrel/apps/gaussian/g16B/g16/l1.exe "/dev/shm/Gau-156270.inp" -scrdir="/dev/shm/"
 Default is to use a total of  36 processors:
                               36 via shared-memory
                                1 via Linda
 Entering Link 1 = /nopt/nrel/apps/gaussian/g16B/g16/l1.exe PID=    156271.

 Copyright (c) 1988-2017, Gaussian, Inc.  All Rights Reserved.
 ...
 ******************************************
 Gaussian 16:  ES64L-G16RevB.01 20-Dec-2017
                14-Aug-2019 
 ******************************************
 %RWF=/dev/shm/,5GB,/tmp/scratch/1144104/,-1
 %NoSave
 %OldChk=tieg4pdc1.chk
 %Chk=/dev/shm/tieg5pdc1scan.chk
 Copying data from "tieg4pdc1.chk" to current chk file "/dev/shm/tieg5pdc1scan.chk"
 IOpt=  2 FromEx=T IUOpen= 4 IOptOp= 5 NList=   0 IFRang= 0 IUIn= 4 IUOut= 2.
 Default route: CacheSize=180224 MaxDisk=256GB
 ----------------------------------------------------------------------
 # m062x/Def2SVP nosymm scf=xqc opt=(ReadFC,ModRedundant) CPHF=Grid=Fin
 e SCRF=(Solvent=1,2-EthaneDiol,Read) guess=read geom=allcheck
 ----------------------------------------------------------------------
 1/4=180224,10=3,18=120,19=15,26=3,29=7,38=1,40=2/1,3;
 2/4=180224,9=110,12=2,15=1,40=1/2;
 3/4=180224,5=43,7=101,11=2,14=-4,25=1,30=1,70=2203,71=1,72=30,74=-55,116=-2/1,2,3;
 4/4=180224,5=1/1;
 5/4=180224,5=2,8=3,13=1,38=6,53=30/2,8;
 6/4=180224,7=2,8=2,9=2,10=2,28=1/1;
 7/4=180224,30=1/1,2,3,16;
 1/4=180224,18=20,19=15,26=3/3(2);
 2/4=180224,9=110,15=1/2;
 99/4=180224/99;
 2/4=180224,9=110,15=1/2;
 3/4=180224,5=43,7=101,11=2,14=-2,25=1,30=1,70=2205,71=1,72=30,74=-55/1,2,3;
 4/4=180224,5=5,16=3,69=1/1;
 5/4=180224,5=2,8=3,13=1,38=5,53=30/2,8;
 7/4=180224,30=1/1,2,3,16;
 1/4=180224,18=20,19=15,26=3/3(-5);
 2/4=180224,9=110,15=1/2;
 6/4=180224,7=2,8=2,9=2,10=2,19=2,28=1/1;
 99/4=180224,9=1/99;
 Structure from the checkpoint file:  "/dev/shm/tieg5pdc1scan.chk"
 -----------------------
 based on TiOBu4 complex
 -----------------------
 Charge =  0 Multiplicity = 1
 Redundant internal coordinates found in file.  (old form).
 O,0,6.3103878961,-3.6303850442,0.0193313084
 Ti,0,5.6835905894,-5.1922604999,-0.5483847275
 O,0,4.6028434527,-6.7626650801,-1.5322074393
 O,0,7.1277358223,-6.1989701988,-0.6349774247
 O,0,4.5379433649,-5.5312475193,0.8375579269
 C,0,4.1861686568,-4.7026618345,1.9205219829
 C,0,2.8581994082,-4.0114496375,1.6400470739
 C,0,6.3751128082,-2.2774193012,-0.3187935891
 C,0,5.0077445534,-1.6100365752,-0.1986125262
 O,0,5.0753361273,-0.2383153741,-0.4734054466
 C,0,7.4834554511,-7.5564990869,-0.595441619
 C,0,7.9830296482,-7.9412351848,0.7855276134
 O,0,7.0273544791,-7.7098091913,1.7825138237
 C,0,3.4164179498,-7.4368324999,-1.1137625617
 C,0,3.7649035694,-8.6167745839,-0.2334317807
 O,0,4.4736973526,-8.2274085436,0.9212208678
 H,0,7.0874408019,-1.7628999811,0.3460164984
 H,0,6.7539125451,-2.1754532341,-1.3532002572
 H,0,4.2955629417,-2.1417386564,-0.8606052609
 H,0,4.6397634646,-1.7298861083,0.8334110796
 H,0,2.7780124609,-6.7272893098,-0.5645253641
 H,0,2.8705075015,-7.7839939261,-2.0015856326
 H,0,2.8257769412,-9.1298317465,0.0361552263
 H,0,4.3850741926,-9.3284577825,-0.8011871312
 H,0,6.6068113216,-8.1709463149,-0.8677633644
 H,0,8.2743310562,-7.7389764769,-1.340521648
 H,0,8.3049033327,-8.9995681651,0.7464672615
 H,0,8.8705580917,-7.3368836773,1.0280842875
 H,0,4.1151935462,-5.3147389478,2.8360951986
 H,0,4.9617272829,-3.9353267548,2.0802984178
 H,0,2.0490057443,-4.7609437374,1.5779780733
 H,0,2.9279294551,-3.5217824514,0.6568134885
 O,0,2.5861594791,-3.0088817838,2.5854154997
 H,0,4.3367666763,-7.2698660697,1.0683882698
 H,0,2.4381947375,-3.4269006076,3.442459979
 H,0,5.1725730307,-0.0922989099,-1.4264191865
 H,0,6.1899041496,-8.1182581612,1.4969433044
 O,0,4.5182040132,-5.6894012281,-3.8340304694
 H,0,4.5676605456,-6.5460397371,-2.5151601743
 C,0,4.8329360286,-4.5722510142,-3.4387790483
 O,0,5.3071185418,-4.282335572,-2.2844194283
 O,0,4.2289571894,-3.6775790321,-5.5746530739
 C,0,4.6568121587,-3.3792388925,-4.3382718168
 O,0,3.6233617864,-3.0867633168,-7.6196494116
 C,0,3.9907467387,-2.7233045783,-6.5388938485
 C,0,4.8801580546,-2.1141309001,-3.9320212516
 C,0,4.2139862162,-1.3364930877,-6.1232411618
 C,0,4.6384956153,-1.0545800117,-4.8690498665
 H,0,5.2255236021,-1.9165464025,-2.9222103152
 C,0,4.8579904182,0.3498255286,-4.3885486267
 H,0,4.0176234955,-0.5639277787,-6.8650755055
 O,0,5.157862316,0.6050020683,-3.2486499848
 O,0,4.6866191383,1.256566174,-5.3313082188
 H,0,4.8317142583,2.1419007387,-4.9558600196
 Recover connectivity data from disk.
 The following ModRedundant input section has been read:
 B       3      37 S  14 -0.100                                                
 

 GradGradGradGradGradGradGradGradGradGradGradGradGradGradGradGradGradGrad
 Berny optimization.
 Initialization pass.
 Force constant matrix read from checkpoint file:
 "/dev/shm/tieg5pdc1scan.chk"
                           ----------------------------
                           !    Initial Parameters    !
                           ! (Angstroms and Degrees)  !
 --------------------------                            --------------------------
 ! Name  Definition              Value          Derivative Info.                !
 --------------------------------------------------------------------------------
 ! R1    R(1,2)                  1.7761         D2E/DX2 =    0.2797             !
 ! R2    R(1,8)                  1.3961         D2E/DX2 =    0.3959             !
 ! R3    R(2,4)                  1.7625         D2E/DX2 =    0.3058             !
 ! R4    R(2,5)                  1.8298         D2E/DX2 =    0.2246             !
 ! R5    R(2,41)                 1.9959         D2E/DX2 =    0.1522             !
 ! R6    R(3,14)                 1.4273         D2E/DX2 =    0.3373             !
 ! R7    R(3,37)                 3.6786         Scan                            !
 ! R8    R(3,39)                 1.0072         D2E/DX2 =    0.3735             !
 ! R9    R(4,11)                 1.4039         D2E/DX2 =    0.3793             !
 ! R10   R(5,6)                  1.4082         D2E/DX2 =    0.3799             !
 ! R11   R(5,21)                 2.5483         D2E/DX2 =    0.0528             !
 ! R12   R(6,7)                  1.5231         D2E/DX2 =    0.2945             !
 ! R13   R(6,29)                 1.1036         D2E/DX2 =    0.3337             !
 ! R14   R(6,30)                 1.1026         D2E/DX2 =    0.3373             !
 ! R15   R(7,31)                 1.1047         D2E/DX2 =    0.3304             !
 ! R16   R(7,32)                 1.1006         D2E/DX2 =    0.3446             !
 ! R17   R(7,33)                 1.4046         D2E/DX2 =    0.3943             !
 ! R18   R(8,9)                  1.5263         D2E/DX2 =    0.2906             !
 ! R19   R(8,17)                 1.1019         D2E/DX2 =    0.3377             !
 ! R20   R(8,18)                 1.1063         D2E/DX2 =    0.3274             !
 ! R21   R(9,10)                 1.4006         D2E/DX2 =    0.4048             !
 ! R22   R(9,19)                 1.1082         D2E/DX2 =    0.3228             !
 ! R23   R(9,20)                 1.1022         D2E/DX2 =    0.3385             !
 ! R24   R(10,36)                0.969          D2E/DX2 =    0.515              !
 ! R25   R(11,12)                1.5181         D2E/DX2 =    0.3053             !
 ! R26   R(11,25)                1.1046         D2E/DX2 =    0.3341             !
 ! R27   R(11,26)                1.1018         D2E/DX2 =    0.3382             !
 ! R28   R(12,13)                1.4003         D2E/DX2 =    0.4073             !
 ! R29   R(12,27)                1.1069         D2E/DX2 =    0.3251             !
 ! R30   R(12,28)                1.1008         D2E/DX2 =    0.3409             !
 ! R31   R(13,37)                0.9745         D2E/DX2 =    0.4822             !
 ! R32   R(14,15)                1.5128         D2E/DX2 =    0.3245             !
 ! R33   R(14,21)                1.1012         D2E/DX2 =    0.3417             !
 ! R34   R(14,22)                1.0985         D2E/DX2 =    0.3471             !
 ! R35   R(15,16)                1.4097         D2E/DX2 =    0.3988             !
 ! R36   R(15,23)                1.1036         D2E/DX2 =    0.3336             !
 ! R37   R(15,24)                1.1016         D2E/DX2 =    0.3389             !
 ! R38   R(16,34)                0.9784         D2E/DX2 =    0.4567             !
 ! R39   R(33,35)                0.965          D2E/DX2 =    0.5373             !
 ! R40   R(38,39)                1.5734         D2E/DX2 =    0.0375             !
 ! R41   R(38,40)                1.2261         D2E/DX2 =    0.777              !
 ! R42   R(40,41)                1.2812         D2E/DX2 =    0.579              !
 ! R43   R(40,43)                1.5045         D2E/DX2 =    0.3299             !
 ! R44   R(42,43)                1.3419         D2E/DX2 =    0.3956             !
 ! R45   R(42,45)                1.3774         D2E/DX2 =    0.3077             !
 ! R46   R(43,46)                1.3474         D2E/DX2 =    0.5367             !
 ! R47   R(44,45)                1.198          D2E/DX2 =    0.9296             !
 ! R48   R(45,47)                1.4649         D2E/DX2 =    0.3134             !
 ! R49   R(46,48)                1.4349         D2E/DX2 =    0.3788             !
 ! R50   R(46,49)                1.0854         D2E/DX2 =    0.3847             !
 ! R51   R(47,48)                1.3538         D2E/DX2 =    0.5239             !
 ! R52   R(47,51)                1.0889         D2E/DX2 =    0.3754             !
 ! R53   R(48,50)                1.5005         D2E/DX2 =    0.3296             !
 ! R54   R(50,52)                1.206          D2E/DX2 =    0.9077             !
 ! R55   R(50,53)                1.3192         D2E/DX2 =    0.501              !
 ! R56   R(53,54)                0.9725         D2E/DX2 =    0.5161             !
 ! A1    A(2,1,8)              142.2942         D2E/DX2 =    0.3617             !
 ! A2    A(1,2,4)              103.2278         D2E/DX2 =    0.0462             !
 ! A3    A(1,2,5)               98.1497         D2E/DX2 =    0.12               !
 ! A4    A(1,2,41)              86.7715         D2E/DX2 =    0.1236             !
 ! A5    A(4,2,5)              116.3847         D2E/DX2 =    0.0973             !
 ! A6    A(4,2,41)             111.8524         D2E/DX2 =    0.0694             !
 ! A7    A(5,2,41)             128.6949         D2E/DX2 =    0.0585             !
 ! A8    A(14,3,39)            111.0193         D2E/DX2 =    0.1814             !
 ! A9    A(2,4,11)             139.3341         D2E/DX2 =    0.3798             !
 ! A10   A(2,5,6)              129.0405         D2E/DX2 =    0.0721             !
 ! A11   A(2,5,21)              95.8899         D2E/DX2 =    0.0483             !
 ! A12   A(6,5,21)             121.7872         D2E/DX2 =    0.0413             !
 ! A13   A(5,6,7)              110.0717         D2E/DX2 =    0.1592             !
 ! A14   A(5,6,29)             109.1313         D2E/DX2 =    0.0584             !
 ! A15   A(5,6,30)             110.1938         D2E/DX2 =    0.0566             !
 ! A16   A(7,6,29)             110.3886         D2E/DX2 =    0.0579             !
 ! A17   A(7,6,30)             108.9118         D2E/DX2 =    0.0539             !
 ! A18   A(29,6,30)            108.1183         D2E/DX2 =    0.0213             !
 ! A19   A(6,7,31)             109.9435         D2E/DX2 =    0.0726             !
 ! A20   A(6,7,32)             108.1294         D2E/DX2 =    0.0705             !
 ! A21   A(6,7,33)             111.6443         D2E/DX2 =    0.1534             !
 ! A22   A(31,7,32)            107.3409         D2E/DX2 =    0.0268             !
 ! A23   A(31,7,33)            112.3469         D2E/DX2 =    0.0664             !
 ! A24   A(32,7,33)            107.2162         D2E/DX2 =    0.0588             !
 ! A25   A(1,8,9)              111.2939         D2E/DX2 =    0.2072             !
 ! A26   A(1,8,17)             109.6562         D2E/DX2 =    0.0672             !
 ! A27   A(1,8,18)             109.3693         D2E/DX2 =    0.0697             !
 ! A28   A(9,8,17)             109.1156         D2E/DX2 =    0.0738             !
 ! A29   A(9,8,18)             109.8815         D2E/DX2 =    0.0859             !
 ! A30   A(17,8,18)            107.4425         D2E/DX2 =    0.0272             !
 ! A31   A(8,9,10)             111.6885         D2E/DX2 =    0.1644             !
 ! A32   A(8,9,19)             108.5965         D2E/DX2 =    0.0735             !
 ! A33   A(8,9,20)             108.9826         D2E/DX2 =    0.0757             !
 ! A34   A(10,9,19)            112.5632         D2E/DX2 =    0.0668             !
 ! A35   A(10,9,20)            107.837          D2E/DX2 =    0.0629             !
 ! A36   A(19,9,20)            107.0134         D2E/DX2 =    0.0271             !
 ! A37   A(9,10,36)            110.2045         D2E/DX2 =    0.1988             !
 ! A38   A(4,11,12)            110.7354         D2E/DX2 =    0.1809             !
 ! A39   A(4,11,25)            109.2592         D2E/DX2 =    0.066              !
 ! A40   A(4,11,26)            108.8433         D2E/DX2 =    0.067              !
 ! A41   A(12,11,25)           110.1478         D2E/DX2 =    0.0851             !
 ! A42   A(12,11,26)           109.6923         D2E/DX2 =    0.088              !
 ! A43   A(25,11,26)           108.1089         D2E/DX2 =    0.0272             !
 ! A44   A(11,12,13)           112.4073         D2E/DX2 =    0.2146             !
 ! A45   A(11,12,27)           107.8126         D2E/DX2 =    0.0751             !
 ! A46   A(11,12,28)           109.0638         D2E/DX2 =    0.0798             !
 ! A47   A(13,12,27)           112.433          D2E/DX2 =    0.0703             !
 ! A48   A(13,12,28)           107.6159         D2E/DX2 =    0.0689             !
 ! A49   A(27,12,28)           107.3525         D2E/DX2 =    0.0263             !
 ! A50   A(12,13,37)           107.9735         D2E/DX2 =    0.2266             !
 ! A51   A(3,14,15)            110.3357         D2E/DX2 =    0.1256             !
 ! A52   A(3,14,21)            108.8912         D2E/DX2 =    0.052              !
 ! A53   A(3,14,22)            108.9904         D2E/DX2 =    0.0412             !
 ! A54   A(15,14,21)           110.2341         D2E/DX2 =    0.124              !
 ! A55   A(15,14,22)           109.7722         D2E/DX2 =    0.0706             !
 ! A56   A(21,14,22)           108.5794         D2E/DX2 =    0.0358             !
 ! A57   A(14,15,16)           112.1494         D2E/DX2 =    0.2705             !
 ! A58   A(14,15,23)           107.9827         D2E/DX2 =    0.0798             !
 ! A59   A(14,15,24)           109.4914         D2E/DX2 =    0.0806             !
 ! A60   A(16,15,23)           110.867          D2E/DX2 =    0.0716             !
 ! A61   A(16,15,24)           108.514          D2E/DX2 =    0.0804             !
 ! A62   A(23,15,24)           107.7368         D2E/DX2 =    0.0273             !
 ! A63   A(15,16,34)           108.8535         D2E/DX2 =    0.2354             !
 ! A64   A(5,21,14)            100.1634         D2E/DX2 =    0.3844             !
 ! A65   A(7,33,35)            108.5586         D2E/DX2 =    0.1789             !
 ! A66   A(39,38,40)           102.5789         D2E/DX2 =    0.1349             !
 ! A67   A(3,39,38)            159.4341         D2E/DX2 =    0.0721             !
 ! A68   A(38,40,41)           126.2735         D2E/DX2 =    0.1582             !
 ! A69   A(38,40,43)           119.9826         D2E/DX2 =    0.3447             !
 ! A70   A(41,40,43)           113.7399         D2E/DX2 =    0.4328             !
 ! A71   A(43,42,45)           123.1012         D2E/DX2 =    0.1211             !
 ! A72   A(40,43,42)           114.324          D2E/DX2 =    0.2698             !
 ! A73   A(40,43,46)           123.0173         D2E/DX2 =    0.2971             !
 ! A74   A(42,43,46)           122.6432         D2E/DX2 =    0.1041             !
 ! A75   A(42,45,44)           118.3207         D2E/DX2 =    0.1751             !
 ! A76   A(42,45,47)           115.5253         D2E/DX2 =    0.0988             !
 ! A77   A(44,45,47)           126.1537         D2E/DX2 =    0.1417             !
 ! A78   A(43,46,48)           117.937          D2E/DX2 =    0.0887             !
 ! A79   A(43,46,49)           120.2779         D2E/DX2 =    0.0738             !
 ! A80   A(48,46,49)           121.7837         D2E/DX2 =    0.0738             !
 ! A81   A(45,47,48)           120.5181         D2E/DX2 =    0.0871             !
 ! A82   A(45,47,51)           116.8007         D2E/DX2 =    0.0771             !
 ! A83   A(48,47,51)           122.6805         D2E/DX2 =    0.0759             !
 ! A84   A(46,48,47)           120.2663         D2E/DX2 =    0.0833             !
 ! A85   A(46,48,50)           117.2172         D2E/DX2 =    0.1665             !
 ! A86   A(47,48,50)           122.511          D2E/DX2 =    0.1756             !
 ! A87   A(48,50,52)           122.4866         D2E/DX2 =    0.1876             !
 ! A88   A(48,50,53)           113.2955         D2E/DX2 =    0.1941             !
 ! A89   A(52,50,53)           124.2177         D2E/DX2 =    0.2093             !
 ! A90   A(50,53,54)           109.2952         D2E/DX2 =    0.1678             !
 ! A91   L(2,41,40,3,-1)       138.9595         D2E/DX2 =    0.1749             !
 ! A92   L(2,41,40,3,-2)       185.6997         D2E/DX2 =    0.0913             !
 ! D1    D(8,1,2,4)            122.8102         D2E/DX2 =    0.0537             !
 ! D2    D(8,1,2,5)           -117.5314         D2E/DX2 =    0.0579             !
 ! D3    D(8,1,2,41)            11.1124         D2E/DX2 =    0.0859             !
 ! D4    D(2,1,8,9)             70.1192         D2E/DX2 =    0.0578             !
 ! D5    D(2,1,8,17)          -169.0545         D2E/DX2 =    0.0289             !
 ! D6    D(2,1,8,18)           -51.4759         D2E/DX2 =    0.0364             !
 ! D7    D(1,2,4,11)           155.738          D2E/DX2 =    0.076              !
 ! D8    D(5,2,4,11)            49.5276         D2E/DX2 =    0.0667             !
 ! D9    D(41,2,4,11)         -112.4319         D2E/DX2 =    0.0585             !
 ! D10   D(1,2,5,6)              6.2023         D2E/DX2 =    0.0412             !
 ! D11   D(1,2,5,21)           146.1511         D2E/DX2 =    0.067              !
 ! D12   D(4,2,5,6)            115.4152         D2E/DX2 =    0.0151             !
 ! D13   D(4,2,5,21)          -104.6361         D2E/DX2 =    0.0405             !
 ! D14   D(41,2,5,6)           -86.1942         D2E/DX2 =    0.0154             !
 ! D15   D(41,2,5,21)           53.7545         D2E/DX2 =    0.0383             !
 ! D16   D(1,2,40,38)          174.3496         D2E/DX2 =    0.0282             !
 ! D17   D(1,2,40,43)           -9.8146         D2E/DX2 =    0.0255             !
 ! D18   D(4,2,40,38)           65.954          D2E/DX2 =    0.0375             !
 ! D19   D(4,2,40,43)         -118.2102         D2E/DX2 =    0.0298             !
 ! D20   D(5,2,40,38)          -75.9456         D2E/DX2 =    0.0267             !
 ! D21   D(5,2,40,43)           99.8902         D2E/DX2 =    0.0264             !
 ! D22   D(39,3,14,15)         135.0149         D2E/DX2 =    0.0483             !
 ! D23   D(39,3,14,21)        -103.8758         D2E/DX2 =    0.0253             !
 ! D24   D(39,3,14,22)          14.4125         D2E/DX2 =    0.0177             !
 ! D25   D(14,3,39,38)         115.4571         D2E/DX2 =    0.0497             !
 ! D26   D(2,4,11,12)          -99.5523         D2E/DX2 =    0.1079             !
 ! D27   D(2,4,11,25)           21.9415         D2E/DX2 =    0.0453             !
 ! D28   D(2,4,11,26)          139.79           D2E/DX2 =    0.049              !
 ! D29   D(2,5,6,7)             98.3672         D2E/DX2 =    0.0223             !
 ! D30   D(2,5,6,29)          -140.3443         D2E/DX2 =    0.0186             !
 ! D31   D(2,5,6,30)           -21.7694         D2E/DX2 =    0.0179             !
 ! D32   D(21,5,6,7)           -32.78           D2E/DX2 =    0.015              !
 ! D33   D(21,5,6,29)           88.5085         D2E/DX2 =    0.0157             !
 ! D34   D(21,5,6,30)         -152.9166         D2E/DX2 =    0.0169             !
 ! D35   D(2,5,21,14)           49.223          D2E/DX2 =    0.0528             !
 ! D36   D(6,5,21,14)         -166.7905         D2E/DX2 =    0.0439             !
 ! D37   D(5,6,7,31)            64.7604         D2E/DX2 =    0.0173             !
 ! D38   D(5,6,7,32)           -52.1398         D2E/DX2 =    0.018              !
 ! D39   D(5,6,7,33)          -169.8495         D2E/DX2 =    0.0195             !
 ! D40   D(29,6,7,31)          -55.7737         D2E/DX2 =    0.0176             !
 ! D41   D(29,6,7,32)         -172.6739         D2E/DX2 =    0.016              !
 ! D42   D(29,6,7,33)           69.6164         D2E/DX2 =    0.0179             !
 ! D43   D(30,6,7,31)         -174.3307         D2E/DX2 =    0.0159             !
 ! D44   D(30,6,7,32)           68.7691         D2E/DX2 =    0.018              !
 ! D45   D(30,6,7,33)          -48.9406         D2E/DX2 =    0.0183             !
 ! D46   D(6,7,33,35)          -67.0321         D2E/DX2 =    0.0164             !
 ! D47   D(31,7,33,35)          57.0164         D2E/DX2 =    0.0228             !
 ! D48   D(32,7,33,35)         174.7107         D2E/DX2 =    0.0238             !
 ! D49   D(1,8,9,10)           177.1263         D2E/DX2 =    0.0336             !
 ! D50   D(1,8,9,19)           -58.1582         D2E/DX2 =    0.0233             !
 ! D51   D(1,8,9,20)            58.0868         D2E/DX2 =    0.024              !
 ! D52   D(17,8,9,10)           55.9833         D2E/DX2 =    0.0195             !
 ! D53   D(17,8,9,19)         -179.3012         D2E/DX2 =    0.0188             !
 ! D54   D(17,8,9,20)          -63.0562         D2E/DX2 =    0.0185             !
 ! D55   D(18,8,9,10)          -61.5772         D2E/DX2 =    0.0199             !
 ! D56   D(18,8,9,19)           63.1383         D2E/DX2 =    0.0182             !
 ! D57   D(18,8,9,20)          179.3833         D2E/DX2 =    0.0166             !
 ! D58   D(8,9,10,36)           74.7695         D2E/DX2 =    0.0212             !
 ! D59   D(19,9,10,36)         -47.7032         D2E/DX2 =    0.0237             !
 ! D60   D(20,9,10,36)        -165.5136         D2E/DX2 =    0.0268             !
 ! D61   D(4,11,12,13)          58.8195         D2E/DX2 =    0.0288             !
 ! D62   D(4,11,12,27)        -176.7065         D2E/DX2 =    0.0246             !
 ! D63   D(4,11,12,28)         -60.4443         D2E/DX2 =    0.0219             !
 ! D64   D(25,11,12,13)        -62.1495         D2E/DX2 =    0.0226             !
 ! D65   D(25,11,12,27)         62.3245         D2E/DX2 =    0.0178             !
 ! D66   D(25,11,12,28)        178.5867         D2E/DX2 =    0.0195             !
 ! D67   D(26,11,12,13)        178.9715         D2E/DX2 =    0.0224             !
 ! D68   D(26,11,12,27)        -56.5545         D2E/DX2 =    0.017              !
 ! D69   D(26,11,12,28)         59.7077         D2E/DX2 =    0.0191             !
 ! D70   D(11,12,13,37)         50.3816         D2E/DX2 =    0.0236             !
 ! D71   D(27,12,13,37)        -71.5024         D2E/DX2 =    0.0277             !
 ! D72   D(28,12,13,37)        170.4874         D2E/DX2 =    0.0282             !
 ! D73   D(3,14,15,16)          59.6136         D2E/DX2 =    0.0243             !
 ! D74   D(3,14,15,23)        -177.9435         D2E/DX2 =    0.0201             !
 ! D75   D(3,14,15,24)         -60.9011         D2E/DX2 =    0.0187             !
 ! D76   D(21,14,15,16)        -60.6922         D2E/DX2 =    0.0288             !
 ! D77   D(21,14,15,23)         61.7506         D2E/DX2 =    0.0175             !
 ! D78   D(21,14,15,24)        178.7931         D2E/DX2 =    0.0215             !
 ! D79   D(22,14,15,16)        179.7466         D2E/DX2 =    0.0251             !
 ! D80   D(22,14,15,23)        -57.8105         D2E/DX2 =    0.0173             !
 ! D81   D(22,14,15,24)         59.2319         D2E/DX2 =    0.018              !
 ! D82   D(3,14,21,5)          -42.0445         D2E/DX2 =    0.0494             !
 ! D83   D(15,14,21,5)          79.127          D2E/DX2 =    0.1203             !
 ! D84   D(22,14,21,5)        -160.5911         D2E/DX2 =    0.0546             !
 ! D85   D(14,15,16,34)         18.7778         D2E/DX2 =    0.0218             !
 ! D86   D(23,15,16,34)       -102.0126         D2E/DX2 =    0.0303             !
 ! D87   D(24,15,16,34)        139.8572         D2E/DX2 =    0.0261             !
 ! D88   D(40,38,39,3)          14.7753         D2E/DX2 =    0.0499             !
 ! D89   D(39,38,40,41)         10.9529         D2E/DX2 =    0.0438             !
 ! D90   D(39,38,40,43)       -168.2703         D2E/DX2 =    0.0354             !
 ! D91   D(38,40,43,42)         -4.0947         D2E/DX2 =    0.0107             !
 ! D92   D(38,40,43,46)        174.5066         D2E/DX2 =    0.014              !
 ! D93   D(41,40,43,42)        176.5894         D2E/DX2 =    0.0112             !
 ! D94   D(41,40,43,46)         -4.8093         D2E/DX2 =    0.0152             !
 ! D95   D(45,42,43,40)        179.139          D2E/DX2 =    0.008              !
 ! D96   D(45,42,43,46)          0.5318         D2E/DX2 =    0.0066             !
 ! D97   D(43,42,45,44)        179.2341         D2E/DX2 =    0.0124             !
 ! D98   D(43,42,45,47)         -0.9891         D2E/DX2 =    0.0083             !
 ! D99   D(40,43,46,48)       -178.1193         D2E/DX2 =    0.0123             !
 ! D100  D(40,43,46,49)          1.4663         D2E/DX2 =    0.0094             !
 ! D101  D(42,43,46,48)          0.3671         D2E/DX2 =    0.0083             !
 ! D102  D(42,43,46,49)        179.9527         D2E/DX2 =    0.0088             !
 ! D103  D(42,45,47,48)          0.5873         D2E/DX2 =    0.01               !
 ! D104  D(42,45,47,51)       -179.1202         D2E/DX2 =    0.0103             !
 ! D105  D(44,45,47,48)       -179.6561         D2E/DX2 =    0.0145             !
 ! D106  D(44,45,47,51)          0.6364         D2E/DX2 =    0.0177             !
 ! D107  D(43,46,48,47)         -0.7346         D2E/DX2 =    0.0079             !
 ! D108  D(43,46,48,50)        178.4419         D2E/DX2 =    0.0081             !
 ! D109  D(49,46,48,47)        179.6863         D2E/DX2 =    0.0066             !
 ! D110  D(49,46,48,50)         -1.1371         D2E/DX2 =    0.0069             !
 ! D111  D(45,47,48,46)          0.2447         D2E/DX2 =    0.008              !
 ! D112  D(45,47,48,50)       -178.8869         D2E/DX2 =    0.0091             !
 ! D113  D(51,47,48,46)        179.9346         D2E/DX2 =    0.0088             !
 ! D114  D(51,47,48,50)          0.8029         D2E/DX2 =    0.0093             !
 ! D115  D(46,48,50,52)         -3.7543         D2E/DX2 =    0.0159             !
 ! D116  D(46,48,50,53)        176.4105         D2E/DX2 =    0.0149             !
 ! D117  D(47,48,50,52)        175.4024         D2E/DX2 =    0.0145             !
 ! D118  D(47,48,50,53)         -4.4329         D2E/DX2 =    0.0151             !
 ! D119  D(48,50,53,54)        179.3113         D2E/DX2 =    0.0228             !
 ! D120  D(52,50,53,54)         -0.5207         D2E/DX2 =    0.0202             !
 --------------------------------------------------------------------------------
 Trust Radius=3.00D-01 FncErr=1.00D-07 GrdErr=1.00D-06 EigMax=2.50D+02 EigMin=1.00D-04
 Number of optimizations in scan=  15
 Number of steps in this run=    278 maximum allowed number of steps=    324.
 GradGradGradGradGradGradGradGradGradGradGradGradGradGradGradGradGradGrad

 Symmetry turned off by external request.
 Stoichiometry    C15H24O14Ti
 Framework group  C1[X(C15H24O14Ti)]
 Deg. of freedom   156
 Full point group                 C1      NOp   1
                          Input orientation:                          
 ---------------------------------------------------------------------
 Center     Atomic      Atomic             Coordinates (Angstroms)
 Number     Number       Type             X           Y           Z
 ---------------------------------------------------------------------
      1          8           0        6.310388   -3.630385    0.019331
      2         22           0        5.683591   -5.192260   -0.548385
      3          8           0        4.602843   -6.762665   -1.532207
      4          8           0        7.127736   -6.198970   -0.634977
      5          8           0        4.537943   -5.531248    0.837558
      6          6           0        4.186169   -4.702662    1.920522
      7          6           0        2.858199   -4.011450    1.640047
      8          6           0        6.375113   -2.277419   -0.318794
      9          6           0        5.007745   -1.610037   -0.198613
     10          8           0        5.075336   -0.238315   -0.473405
     11          6           0        7.483455   -7.556499   -0.595442
     12          6           0        7.983030   -7.941235    0.785528
     13          8           0        7.027354   -7.709809    1.782514
     14          6           0        3.416418   -7.436832   -1.113763
     15          6           0        3.764904   -8.616775   -0.233432
     16          8           0        4.473697   -8.227409    0.921221
     17          1           0        7.087441   -1.762900    0.346016
     18          1           0        6.753913   -2.175453   -1.353200
     19          1           0        4.295563   -2.141739   -0.860605
     20          1           0        4.639763   -1.729886    0.833411
     21          1           0        2.778012   -6.727289   -0.564525
     22          1           0        2.870508   -7.783994   -2.001586
     23          1           0        2.825777   -9.129832    0.036155
     24          1           0        4.385074   -9.328458   -0.801187
     25          1           0        6.606811   -8.170946   -0.867763
     26          1           0        8.274331   -7.738976   -1.340522
     27          1           0        8.304903   -8.999568    0.746467
     28          1           0        8.870558   -7.336884    1.028084
     29          1           0        4.115194   -5.314739    2.836095
     30          1           0        4.961727   -3.935327    2.080298
     31          1           0        2.049006   -4.760944    1.577978
     32          1           0        2.927929   -3.521782    0.656813
     33          8           0        2.586159   -3.008882    2.585415
     34          1           0        4.336767   -7.269866    1.068388
     35          1           0        2.438195   -3.426901    3.442460
     36          1           0        5.172573   -0.092299   -1.426419
     37          1           0        6.189904   -8.118258    1.496943
     38          8           0        4.518204   -5.689401   -3.834030
     39          1           0        4.567661   -6.546040   -2.515160
     40          6           0        4.832936   -4.572251   -3.438779
     41          8           0        5.307119   -4.282336   -2.284419
     42          8           0        4.228957   -3.677579   -5.574653
     43          6           0        4.656812   -3.379239   -4.338272
     44          8           0        3.623362   -3.086763   -7.619649
     45          6           0        3.990747   -2.723305   -6.538894
     46          6           0        4.880158   -2.114131   -3.932021
     47          6           0        4.213986   -1.336493   -6.123241
     48          6           0        4.638496   -1.054580   -4.869050
     49          1           0        5.225524   -1.916546   -2.922210
     50          6           0        4.857990    0.349826   -4.388549
     51          1           0        4.017623   -0.563928   -6.865076
     52          8           0        5.157862    0.605002   -3.248650
     53          8           0        4.686619    1.256566   -5.331308
     54          1           0        4.831714    2.141901   -4.955860
 ---------------------------------------------------------------------
 Rotational constants (GHZ):           0.2032713           0.0844747           0.0715633
 Standard basis: def2SVP (5D, 7F)
   557 basis functions,   974 primitive gaussians,   591 cartesian basis functions
   124 alpha electrons      124 beta electrons
       nuclear repulsion energy      3810.8751905801 Hartrees.
 NAtoms=   54 NActive=   54 NUniq=   54 SFac= 1.00D+00 NAtFMM=   60 NAOKFM=F Big=F
 Integral buffers will be    131072 words long.
 Raffenetti 2 integral format.
 Two-electron integral symmetry is turned off.
 Using the following non-standard input for PCM:
 PDENS=7.0
 --- end of non-standard input.
 ------------------------------------------------------------------------------
 Polarizable Continuum Model (PCM)
 =================================
 Model                : PCM.
 Atomic radii         : UFF (Universal Force Field).
 Polarization charges : Total charges.
 Charge compensation  : None.
 Solution method      : On-the-fly selection.
 Cavity type          : Scaled VdW (van der Waals Surface) (Alpha=1.100).
 Cavity algorithm     : GePol (No added spheres)
                        Default sphere list used, NSphG=   54.
                        Lebedev-Laikov grids with approx.  7.0 points / Ang**2.
                        Smoothing algorithm: York/Karplus (Gamma=1.0000).
                        Polarization charges: spherical gaussians, with
                                              point-specific exponents (IZeta= 3).
                        Self-potential: point-specific (ISelfS= 7).
                        Self-field    : sphere-specific E.n sum rule (ISelfD= 2).
 1st derivatives      : Analytical E(r).r(x)/FMM algorithm (CHGder, D1EAlg=3).
                        Cavity 1st derivative terms included.
 Solvent              : 1,2-EthaneDiol, Eps=  40.245000 Eps(inf)=   2.050051
 ------------------------------------------------------------------------------
 One-electron integrals computed using PRISM.
   1 Symmetry operations used in ECPInt.
 ECPInt:  NShTT=   33153 NPrTT=  124242 LenC2=   27539 LenP2D=   67423.
 LDataN:  DoStor=T MaxTD1= 6 Len=  172
 NBasis=   557 RedAO= T EigKep=  5.53D-04  NBF=   557
 NBsUse=   557 1.00D-06 EigRej= -1.00D+00 NBFU=   557
 Initial guess from the checkpoint file:  "/dev/shm/tieg5pdc1scan.chk"
 B after Tr=     0.000000    0.000000    0.000000
         Rot=    1.000000    0.000000    0.000000    0.000000 Ang=   0.00 deg.
 Requested convergence on RMS density matrix=1.00D-08 within  32 cycles.
 Requested convergence on MAX density matrix=1.00D-06.
 Requested convergence on             energy=1.00D-06.
 No special actions if energy rises.
 Inv3:  Mode=1 IEnd=    98292528.
 Iteration    1 A*A^-1 deviation from unit magnitude is 3.44D-15 for    174.
 Iteration    1 A*A^-1 deviation from orthogonality  is 2.53D-15 for   4553   2922.
 Iteration    1 A^-1*A deviation from unit magnitude is 3.66D-15 for    174.
 Iteration    1 A^-1*A deviation from orthogonality  is 2.47D-15 for   5617   3551.
 Error on total polarization charges =  0.01031
 SCF Done:  E(RM062X) =  -2486.86909410     A.U. after    1 cycles
            NFock=  1  Conv=0.31D-08     -V/T= 2.0063
 QCSCF skips out because SCF is already converged.

 **********************************************************************

            Population analysis using the SCF Density.

 **********************************************************************

 Alpha  occ. eigenvalues -- -180.54338 -20.53501 -19.72803 -19.70503 -19.67166
 Alpha  occ. eigenvalues --  -19.66023 -19.65856 -19.64834 -19.64413 -19.64363
 Alpha  occ. eigenvalues --  -19.63973 -19.63908 -19.63304 -19.63278 -19.62274
 Alpha  occ. eigenvalues --  -19.61195 -17.23900 -17.23864 -17.23757 -10.72671
 Alpha  occ. eigenvalues --  -10.71655 -10.71563 -10.66228 -10.62222 -10.61602
 Alpha  occ. eigenvalues --  -10.60577 -10.60412 -10.60394 -10.60266 -10.60243
 Alpha  occ. eigenvalues --  -10.59768 -10.59765 -10.59590 -10.59157  -2.65174
 Alpha  occ. eigenvalues --   -1.72076  -1.71936  -1.71457  -1.26752  -1.25638
 Alpha  occ. eigenvalues --   -1.22096  -1.16650  -1.16326  -1.15887  -1.13530
 Alpha  occ. eigenvalues --   -1.13261  -1.12708  -1.12110  -1.12098  -1.10409
 Alpha  occ. eigenvalues --   -1.09828  -1.09239  -0.96732  -0.90151  -0.84123
 Alpha  occ. eigenvalues --   -0.81528  -0.81231  -0.81166  -0.80859  -0.79213
 Alpha  occ. eigenvalues --   -0.73102  -0.72139  -0.70118  -0.70000  -0.69520
 Alpha  occ. eigenvalues --   -0.69404  -0.64239  -0.63736  -0.63533  -0.61244
 Alpha  occ. eigenvalues --   -0.59993  -0.59639  -0.59353  -0.59158  -0.58781
 Alpha  occ. eigenvalues --   -0.58388  -0.57994  -0.57569  -0.56968  -0.56631
 Alpha  occ. eigenvalues --   -0.56195  -0.55585  -0.55225  -0.54885  -0.54747
 Alpha  occ. eigenvalues --   -0.54557  -0.54299  -0.53523  -0.51420  -0.50890
 Alpha  occ. eigenvalues --   -0.50800  -0.50466  -0.50213  -0.49691  -0.48896
 Alpha  occ. eigenvalues --   -0.48665  -0.48131  -0.47429  -0.46921  -0.46490
 Alpha  occ. eigenvalues --   -0.46051  -0.43184  -0.43153  -0.42340  -0.42001
 Alpha  occ. eigenvalues --   -0.41726  -0.41441  -0.41280  -0.40555  -0.39953
 Alpha  occ. eigenvalues --   -0.39519  -0.38980  -0.38693  -0.38240  -0.37759
 Alpha  occ. eigenvalues --   -0.37099  -0.37028  -0.36189  -0.36077  -0.35501
 Alpha  occ. eigenvalues --   -0.34159  -0.33338  -0.32936  -0.31624
 Alpha virt. eigenvalues --   -0.07791  -0.02673  -0.02332  -0.01212   0.00886
 Alpha virt. eigenvalues --    0.01851   0.02754   0.05667   0.06635   0.08891
 Alpha virt. eigenvalues --    0.09164   0.10104   0.10564   0.10855   0.10947
 Alpha virt. eigenvalues --    0.12113   0.13002   0.13387   0.14072   0.14615
 Alpha virt. eigenvalues --    0.14875   0.16013   0.16204   0.16793   0.17596
 Alpha virt. eigenvalues --    0.17620   0.17822   0.18286   0.18695   0.19069
 Alpha virt. eigenvalues --    0.19558   0.20773   0.21171   0.22131   0.22432
 Alpha virt. eigenvalues --    0.23068   0.23804   0.24356   0.24945   0.25622
 Alpha virt. eigenvalues --    0.26205   0.26568   0.27226   0.28106   0.28284
 Alpha virt. eigenvalues --    0.28381   0.29386   0.29537   0.30248   0.30348
 Alpha virt. eigenvalues --    0.30456   0.31395   0.32663   0.32850   0.33137
 Alpha virt. eigenvalues --    0.33713   0.34152   0.34891   0.35866   0.37127
 Alpha virt. eigenvalues --    0.38189   0.39148   0.42168   0.45597   0.46221
 Alpha virt. eigenvalues --    0.47641   0.48270   0.48409   0.48890   0.49434
 Alpha virt. eigenvalues --    0.49474   0.50037   0.50898   0.51370   0.52491
 Alpha virt. eigenvalues --    0.52936   0.54233   0.54482   0.55329   0.55504
 Alpha virt. eigenvalues --    0.55865   0.56250   0.57025   0.57348   0.58090
 Alpha virt. eigenvalues --    0.58501   0.58883   0.59470   0.60512   0.61001
 Alpha virt. eigenvalues --    0.61227   0.62102   0.62530   0.62853   0.63178
 Alpha virt. eigenvalues --    0.64204   0.64619   0.65080   0.65423   0.66069
 Alpha virt. eigenvalues --    0.66743   0.67251   0.67471   0.67712   0.68206
 Alpha virt. eigenvalues --    0.68873   0.69331   0.69823   0.69968   0.70141
 Alpha virt. eigenvalues --    0.70298   0.70613   0.70806   0.70947   0.71460
 Alpha virt. eigenvalues --    0.71557   0.72159   0.72606   0.73220   0.73685
 Alpha virt. eigenvalues --    0.74256   0.74615   0.74696   0.75032   0.75835
 Alpha virt. eigenvalues --    0.76114   0.76803   0.77892   0.78632   0.79221
 Alpha virt. eigenvalues --    0.79413   0.79709   0.80511   0.80897   0.81857
 Alpha virt. eigenvalues --    0.83211   0.84354   0.85556   0.86413   0.87273
 Alpha virt. eigenvalues --    0.87662   0.89191   0.90293   0.90791   0.92803
 Alpha virt. eigenvalues --    0.95998   0.97855   0.98717   1.00139   1.00443
 Alpha virt. eigenvalues --    1.01082   1.02352   1.03785   1.04275   1.04785
 Alpha virt. eigenvalues --    1.05716   1.06524   1.07254   1.07745   1.08624
 Alpha virt. eigenvalues --    1.08931   1.09908   1.10306   1.11117   1.11716
 Alpha virt. eigenvalues --    1.13561   1.13952   1.14788   1.16346   1.16382
 Alpha virt. eigenvalues --    1.17694   1.18153   1.19340   1.20239   1.21428
 Alpha virt. eigenvalues --    1.22682   1.23375   1.24804   1.26387   1.26684
 Alpha virt. eigenvalues --    1.27612   1.28189   1.28874   1.29505   1.30148
 Alpha virt. eigenvalues --    1.31190   1.31755   1.32317   1.32880   1.33482
 Alpha virt. eigenvalues --    1.34426   1.35875   1.36486   1.36787   1.37056
 Alpha virt. eigenvalues --    1.37529   1.38503   1.39438   1.40141   1.40452
 Alpha virt. eigenvalues --    1.41138   1.41839   1.42679   1.42847   1.43727
 Alpha virt. eigenvalues --    1.44549   1.45529   1.46794   1.46968   1.47310
 Alpha virt. eigenvalues --    1.48798   1.49243   1.49320   1.49698   1.50618
 Alpha virt. eigenvalues --    1.51114   1.52156   1.53515   1.53898   1.54921
 Alpha virt. eigenvalues --    1.55935   1.57776   1.57829   1.59566   1.60122
 Alpha virt. eigenvalues --    1.60709   1.61614   1.62306   1.63156   1.64204
 Alpha virt. eigenvalues --    1.65034   1.65444   1.65760   1.66044   1.66803
 Alpha virt. eigenvalues --    1.67945   1.68119   1.69225   1.69418   1.70524
 Alpha virt. eigenvalues --    1.70999   1.72443   1.72831   1.73941   1.74075
 Alpha virt. eigenvalues --    1.75684   1.76544   1.77323   1.77518   1.78551
 Alpha virt. eigenvalues --    1.79265   1.79921   1.80417   1.80933   1.81192
 Alpha virt. eigenvalues --    1.81778   1.82225   1.82862   1.83679   1.84014
 Alpha virt. eigenvalues --    1.84349   1.84982   1.85230   1.86489   1.86753
 Alpha virt. eigenvalues --    1.88033   1.88211   1.88345   1.89146   1.89299
 Alpha virt. eigenvalues --    1.89669   1.90105   1.90638   1.91122   1.91501
 Alpha virt. eigenvalues --    1.93317   1.93671   1.94231   1.94273   1.94473
 Alpha virt. eigenvalues --    1.95301   1.95732   1.96589   1.96967   1.97008
 Alpha virt. eigenvalues --    1.97300   1.97866   1.98405   1.98589   1.99310
 Alpha virt. eigenvalues --    1.99703   2.00367   2.01667   2.02899   2.04364
 Alpha virt. eigenvalues --    2.05483   2.07253   2.08728   2.09845   2.11343
 Alpha virt. eigenvalues --    2.11483   2.13163   2.14220   2.17373   2.18102
 Alpha virt. eigenvalues --    2.19511   2.20786   2.21588   2.21666   2.22371
 Alpha virt. eigenvalues --    2.22993   2.24266   2.28169   2.28697   2.31544
 Alpha virt. eigenvalues --    2.31974   2.32813   2.33945   2.35272   2.36087
 Alpha virt. eigenvalues --    2.37584   2.38324   2.39518   2.39826   2.40420
 Alpha virt. eigenvalues --    2.41686   2.42259   2.44943   2.45512   2.45841
 Alpha virt. eigenvalues --    2.46450   2.46551   2.47104   2.47599   2.48230
 Alpha virt. eigenvalues --    2.50646   2.51183   2.51408   2.53047   2.53695
 Alpha virt. eigenvalues --    2.54534   2.58658   2.66525   2.67662   2.68375
 Alpha virt. eigenvalues --    2.69240   2.70484   2.70630   2.73104   2.73438
 Alpha virt. eigenvalues --    2.74290   2.74410   2.75068   2.76146   2.76887
 Alpha virt. eigenvalues --    2.78126   2.78964   2.79320   2.80372   2.81826
 Alpha virt. eigenvalues --    2.82326   2.83630   2.84627   2.86528   2.86747
 Alpha virt. eigenvalues --    2.89207   2.89626   2.90651   2.91584   2.91734
 Alpha virt. eigenvalues --    2.92216   2.92999   2.93125   2.93772   2.94605
 Alpha virt. eigenvalues --    2.96887   2.97202   2.97714   2.99420   2.99994
 Alpha virt. eigenvalues --    3.00369   3.02113   3.03196   3.04020   3.04460
 Alpha virt. eigenvalues --    3.06093   3.06875   3.07742   3.08796   3.09411
 Alpha virt. eigenvalues --    3.11699   3.12943   3.13206   3.13989   3.14565
 Alpha virt. eigenvalues --    3.16749   3.16941   3.17762   3.18245   3.18865
 Alpha virt. eigenvalues --    3.19570   3.20817   3.21912   3.22128   3.22470
 Alpha virt. eigenvalues --    3.23713   3.23879   3.26104   3.26615   3.29783
 Alpha virt. eigenvalues --    3.34092   3.35984   3.40609   3.41701   3.41776
 Alpha virt. eigenvalues --    3.43686   3.44914   3.46492   3.47645   3.50492
 Alpha virt. eigenvalues --    3.50994   3.58724   3.60400   3.67867   3.70895
 Alpha virt. eigenvalues --    3.73256   3.79698   3.79895   3.81977   3.83153
 Alpha virt. eigenvalues --    3.84241   3.84897   3.88259
          Condensed to atoms (all electrons):
 Mulliken charges:
               1
     1  O   -0.544467
     2  Ti   1.213903
     3  O   -0.444125
     4  O   -0.536990
     5  O   -0.601749
     6  C    0.168605
     7  C    0.133066
     8  C    0.180790
     9  C    0.085813
    10  O   -0.390227
    11  C    0.140334
    12  C    0.150741
    13  O   -0.402583
    14  C    0.108365
    15  C    0.154706
    16  O   -0.414824
    17  H    0.047137
    18  H    0.049658
    19  H    0.048685
    20  H    0.042332
    21  H    0.066478
    22  H    0.073772
    23  H    0.049196
    24  H    0.054492
    25  H    0.038502
    26  H    0.053141
    27  H    0.034023
    28  H    0.037685
    29  H    0.048917
    30  H    0.043205
    31  H    0.047550
    32  H    0.032228
    33  O   -0.382790
    34  H    0.229407
    35  H    0.206926
    36  H    0.192827
    37  H    0.189769
    38  O   -0.344273
    39  H    0.278127
    40  C    0.375769
    41  O   -0.482588
    42  O   -0.275756
    43  C    0.134646
    44  O   -0.248369
    45  C    0.304801
    46  C    0.015443
    47  C   -0.111565
    48  C   -0.013981
    49  H   -0.014388
    50  C    0.321129
    51  H    0.080801
    52  O   -0.273584
    53  O   -0.195481
    54  H    0.244774
 Sum of Mulliken charges =  -0.00000
 Mulliken charges with hydrogens summed into heavy atoms:
               1
     1  O   -0.544467
     2  Ti   1.213903
     3  O   -0.165998
     4  O   -0.536990
     5  O   -0.601749
     6  C    0.260726
     7  C    0.212844
     8  C    0.277585
     9  C    0.176830
    10  O   -0.197400
    11  C    0.231977
    12  C    0.222448
    13  O   -0.212814
    14  C    0.248615
    15  C    0.258394
    16  O   -0.185418
    33  O   -0.175864
    38  O   -0.344273
    40  C    0.375769
    41  O   -0.482588
    42  O   -0.275756
    43  C    0.134646
    44  O   -0.248369
    45  C    0.304801
    46  C    0.001055
    47  C   -0.030764
    48  C   -0.013981
    50  C    0.321129
    52  O   -0.273584
    53  O    0.049293
 Electronic spatial extent (au):  <R**2>=          54997.5488
 Charge=              0.0000 electrons
 Dipole moment (field-independent basis, Debye):
    X=             -2.6460    Y=              1.0350    Z=             -1.1245  Tot=              3.0556
 Quadrupole moment (field-independent basis, Debye-Ang):
   XX=           -207.6895   YY=           -167.1743   ZZ=           -213.8243
   XY=             25.2854   XZ=            -23.1928   YZ=            -21.5036
 Traceless Quadrupole moment (field-independent basis, Debye-Ang):
   XX=            -11.4602   YY=             29.0551   ZZ=            -17.5949
   XY=             25.2854   XZ=            -23.1928   YZ=            -21.5036
 Octapole moment (field-independent basis, Debye-Ang**2):
  XXX=          -2906.1229  YYY=           2130.3532  ZZZ=           1321.2518  XYY=           -966.9823
  XXY=            942.9369  XXZ=            116.6651  XZZ=          -1003.7716  YZZ=           1079.1430
  YYZ=            250.0000  XYZ=             -7.4969
 Hexadecapole moment (field-independent basis, Debye-Ang**3):
 XXXX=         -30292.2570 YYYY=         -25292.5377 ZZZZ=         -14773.2162 XXXY=          12792.6594
 XXXZ=           2894.7347 YYYX=          11868.6311 YYYZ=           -910.9718 ZZZX=           5281.7065
 ZZZY=          -4181.9855 XXYY=          -9936.3999 XXZZ=          -7053.5927 YYZZ=          -7708.3023
 XXYZ=           -159.0328 YYXZ=            627.0143 ZZXY=           5320.4859
 N-N= 3.810875190580D+03 E-N=-1.346578657985D+04  KE= 2.471302482960D+03
   1 Symmetry operations used in ECPInt.
 ECPInt:  NShTT=   33153 NPrTT=  124242 LenC2=   27539 LenP2D=   67423.
 LDataN:  DoStor=T MaxTD1= 7 Len=  274
 D1PCM: PCM CHGder 1st derivatives, ID1Alg=3 FixD1E=F DoIter=F DoCFld=F I1PDM=0.
 Calling FoFJK, ICntrl=      2127 FMM=F ISym2X=0 I1Cent= 0 IOpClX= 0 NMat=1 NMatS=1 NMatT=0.
 -------------------------------------------------------------------
 Center     Atomic                   Forces (Hartrees/Bohr)
 Number     Number              X              Y              Z
 -------------------------------------------------------------------
      1        8          -0.000014980   -0.000038590   -0.000007488
      2       22           0.000024567    0.000002453    0.000033604
      3        8           0.000011297    0.000051398    0.000050057
      4        8          -0.000065619   -0.000001633   -0.000028738
      5        8           0.000049963   -0.000014966   -0.000051997
      6        6          -0.000002885    0.000027937    0.000033516
      7        6          -0.000011972    0.000011477    0.000005939
      8        6           0.000019604   -0.000004977   -0.000014889
      9        6           0.000001691   -0.000026184   -0.000006753
     10        8          -0.000014057    0.000030891   -0.000001266
     11        6           0.000017246    0.000030449    0.000010507
     12        6           0.000015923   -0.000026213   -0.000016072
     13        8          -0.000014582   -0.000004307   -0.000007244
     14        6          -0.000075413   -0.000040758    0.000038238
     15        6           0.000007062    0.000022735   -0.000000136
     16        8           0.000010546    0.000020413   -0.000000149
     17        1          -0.000002679   -0.000002081    0.000001457
     18        1           0.000006268   -0.000002480   -0.000003962
     19        1          -0.000002934    0.000006184    0.000000939
     20        1           0.000011113    0.000001242    0.000005779
     21        1           0.000000499   -0.000019571   -0.000026396
     22        1          -0.000004560    0.000001346   -0.000002959
     23        1          -0.000001999    0.000006078   -0.000011388
     24        1          -0.000006391   -0.000000615   -0.000018432
     25        1          -0.000011655   -0.000009357    0.000003863
     26        1          -0.000005412   -0.000000533   -0.000001082
     27        1          -0.000008491   -0.000006504    0.000009645
     28        1          -0.000008614   -0.000007211   -0.000000540
     29        1          -0.000008919   -0.000006949   -0.000009546
     30        1           0.000003846   -0.000012662   -0.000000977
     31        1           0.000006098   -0.000003129    0.000006147
     32        1          -0.000010546    0.000011551    0.000004788
     33        8           0.000032363   -0.000008344   -0.000000650
     34        1          -0.000001107    0.000002298    0.000004856
     35        1          -0.000015558    0.000002132   -0.000013981
     36        1           0.000011542   -0.000003256   -0.000000543
     37        1          -0.000009614   -0.000003120    0.000003554
     38        8          -0.000008856    0.000052642    0.000068805
     39        1           0.000061273   -0.000023963   -0.000049563
     40        6          -0.000029941   -0.000042040   -0.000086590
     41        8           0.000009327   -0.000003432    0.000057644
     42        8           0.000000683    0.000005304   -0.000016942
     43        6          -0.000000935    0.000008115    0.000012492
     44        8          -0.000001710    0.000006548   -0.000001368
     45        6           0.000007324   -0.000004050    0.000007634
     46        6           0.000003266    0.000002892   -0.000003265
     47        6           0.000000902    0.000006849    0.000005533
     48        6           0.000003110    0.000010747   -0.000004952
     49        1           0.000004950    0.000000720    0.000001585
     50        6          -0.000003539    0.000005780    0.000021250
     51        1           0.000002557    0.000002629    0.000000150
     52        8           0.000006219   -0.000010792    0.000007293
     53        8           0.000009228   -0.000001116   -0.000011716
     54        1           0.000004503   -0.000001979    0.000004308
 -------------------------------------------------------------------
 Cartesian Forces:  Max     0.000086590 RMS     0.000021065

 GradGradGradGradGradGradGradGradGradGradGradGradGradGradGradGradGradGrad
 Berny optimization.
 FormGI is forming the generalized inverse of G from B-inverse, IUseBI=4.
 Internal  Forces:  Max     0.000079688 RMS     0.000018039
 Search for a local minimum.
 Step number   1 out of a maximum of  278 on scan point     1 out of    15
 All quantities printed in internal units (Hartrees-Bohrs-Radians)
 Mixed Optimization -- En-DIIS/RFO-DIIS
 Second derivative matrix not updated -- first step.
 ITU=  0
     Eigenvalues ---    0.00146   0.00173   0.00225   0.00286   0.00294
     Eigenvalues ---    0.00303   0.00315   0.00369   0.00405   0.00425
     Eigenvalues ---    0.00455   0.00490   0.00576   0.00700   0.00742
     Eigenvalues ---    0.00796   0.01068   0.01208   0.01448   0.01540
     Eigenvalues ---    0.01759   0.01912   0.01955   0.02016   0.02055
     Eigenvalues ---    0.02180   0.02303   0.02688   0.02871   0.03474
     Eigenvalues ---    0.03592   0.04167   0.04304   0.04333   0.04403
     Eigenvalues ---    0.04592   0.04643   0.04731   0.04785   0.04882
     Eigenvalues ---    0.04952   0.05002   0.05200   0.05442   0.05819
     Eigenvalues ---    0.05963   0.05992   0.06044   0.06311   0.06508
     Eigenvalues ---    0.06591   0.06879   0.07145   0.07519   0.07887
     Eigenvalues ---    0.08126   0.09198   0.09422   0.09616   0.09918
     Eigenvalues ---    0.09990   0.10326   0.10350   0.10451   0.10552
     Eigenvalues ---    0.10711   0.11310   0.12178   0.12401   0.12544
     Eigenvalues ---    0.13211   0.13509   0.14242   0.14332   0.15044
     Eigenvalues ---    0.15111   0.15478   0.15591   0.16984   0.17093
     Eigenvalues ---    0.17506   0.17751   0.18070   0.18310   0.19278
     Eigenvalues ---    0.19930   0.20288   0.20577   0.20963   0.21352
     Eigenvalues ---    0.22108   0.22898   0.23094   0.23291   0.24829
     Eigenvalues ---    0.25209   0.25775   0.26273   0.26552   0.28639
     Eigenvalues ---    0.28982   0.29557   0.29768   0.30156   0.30371
     Eigenvalues ---    0.31241   0.31958   0.32213   0.32494   0.32657
     Eigenvalues ---    0.32930   0.33019   0.33175   0.33241   0.33449
     Eigenvalues ---    0.33567   0.33733   0.33760   0.33816   0.33872
     Eigenvalues ---    0.34086   0.34414   0.34563   0.34807   0.35319
     Eigenvalues ---    0.36381   0.37385   0.38219   0.38381   0.39208
     Eigenvalues ---    0.39824   0.40717   0.40763   0.41583   0.41733
     Eigenvalues ---    0.42913   0.43324   0.43511   0.44465   0.46575
     Eigenvalues ---    0.47694   0.48864   0.49334   0.51676   0.52827
     Eigenvalues ---    0.53807   0.55596   0.57660   0.58987   0.69510
     Eigenvalues ---    0.82132   0.93674   0.95898   0.96992   2.06606
     Eigenvalues --- 1000.000001000.000001000.000001000.000001000.00000
     Eigenvalues --- 1000.000001000.000001000.000001000.000001000.00000
     Eigenvalues --- 1000.000001000.000001000.000001000.000001000.00000
     Eigenvalues --- 1000.000001000.000001000.000001000.000001000.00000
     Eigenvalues --- 1000.000001000.000001000.000001000.000001000.00000
     Eigenvalues --- 1000.000001000.000001000.000001000.000001000.00000
     Eigenvalues --- 1000.000001000.000001000.000001000.000001000.00000
     Eigenvalues --- 1000.000001000.000001000.000001000.000001000.00000
     Eigenvalues --- 1000.000001000.000001000.000001000.000001000.00000
     Eigenvalues --- 1000.000001000.000001000.000001000.000001000.00000
     Eigenvalues --- 1000.000001000.000001000.000001000.000001000.00000
     Eigenvalues --- 1000.000001000.000001000.000001000.000001000.00000
     Eigenvalues --- 1000.000001000.000001000.000001000.000001000.00000
     Eigenvalues --- 1000.000001000.000001000.000001000.000001000.00000
     Eigenvalues --- 1000.000001000.000001000.000001000.000001000.00000
     Eigenvalues --- 1000.000001000.000001000.000001000.000001000.00000
     Eigenvalues --- 1000.000001000.000001000.000001000.000001000.00000
     Eigenvalues --- 1000.000001000.000001000.000001000.000001000.00000
     Eigenvalues --- 1000.000001000.000001000.000001000.000001000.00000
     Eigenvalues --- 1000.000001000.000001000.000001000.000001000.00000
     Eigenvalues --- 1000.000001000.000001000.000001000.000001000.00000
     Eigenvalues --- 1000.000001000.000001000.000001000.000001000.00000
     Eigenvalues --- 1000.000001000.000001000.00000
 RFO step:  Lambda=-7.54634755D-07 EMin= 1.45643452D-03
 Linear search not attempted -- first point.
 Iteration  1 RMS(Cart)=  0.00130033 RMS(Int)=  0.00000202
 Iteration  2 RMS(Cart)=  0.00000244 RMS(Int)=  0.00000021
 Iteration  3 RMS(Cart)=  0.00000000 RMS(Int)=  0.00000021
 Iteration  1 RMS(Cart)=  0.00000000 RMS(Int)=  0.00000000
 Variable       Old X    -DE/DX   Delta X   Delta X   Delta X     New X
                                 (Linear)    (Quad)   (Total)
    R1        3.35640  -0.00004   0.00000  -0.00002  -0.00002   3.35638
    R2        2.63821   0.00001   0.00000   0.00004   0.00004   2.63825
    R3        3.33070  -0.00005   0.00000  -0.00011  -0.00011   3.33060
    R4        3.45787  -0.00005   0.00000  -0.00026  -0.00026   3.45760
    R5        3.77165  -0.00003   0.00000  -0.00011  -0.00011   3.77154
    R6        2.69722   0.00005   0.00000   0.00013   0.00013   2.69735
    R7        6.95156  -0.00001   0.00000   0.00000  -0.00000   6.95156
    R8        1.90325   0.00003   0.00000   0.00002   0.00002   1.90327
    R9        2.65302   0.00000   0.00000  -0.00009  -0.00009   2.65293
   R10        2.66117   0.00003   0.00000   0.00014   0.00014   2.66131
   R11        4.81554  -0.00000   0.00000   0.00363   0.00363   4.81917
   R12        2.87831   0.00001   0.00000   0.00003   0.00003   2.87834
   R13        2.08552  -0.00000   0.00000  -0.00003  -0.00003   2.08549
   R14        2.08369  -0.00001   0.00000  -0.00003  -0.00003   2.08367
   R15        2.08760  -0.00000   0.00000  -0.00003  -0.00003   2.08757
   R16        2.07989   0.00000   0.00000  -0.00001  -0.00001   2.07988
   R17        2.65429  -0.00002   0.00000  -0.00004  -0.00004   2.65425
   R18        2.88426   0.00001   0.00000   0.00002   0.00002   2.88428
   R19        2.08223  -0.00000   0.00000  -0.00001  -0.00001   2.08222
   R20        2.09059   0.00001   0.00000   0.00000   0.00000   2.09059
   R21        2.64676   0.00003   0.00000   0.00005   0.00005   2.64681
   R22        2.09423   0.00000   0.00000   0.00000   0.00000   2.09423
   R23        2.08286   0.00000   0.00000   0.00001   0.00001   2.08287
   R24        1.83119   0.00000   0.00000  -0.00000  -0.00000   1.83119
   R25        2.86882   0.00001   0.00000   0.00004   0.00004   2.86886
   R26        2.08745   0.00001   0.00000   0.00004   0.00004   2.08749
   R27        2.08207  -0.00000   0.00000  -0.00000  -0.00000   2.08206
   R28        2.64619   0.00001   0.00000   0.00003   0.00003   2.64622
   R29        2.09171   0.00000   0.00000  -0.00001  -0.00001   2.09170
   R30        2.08023  -0.00001   0.00000  -0.00001  -0.00001   2.08021
   R31        1.84159   0.00000   0.00000   0.00001   0.00001   1.84160
   R32        2.85886  -0.00004   0.00000  -0.00009  -0.00009   2.85876
   R33        2.08099  -0.00003   0.00000  -0.00006  -0.00006   2.08093
   R34        2.07592   0.00000   0.00000   0.00000   0.00000   2.07592
   R35        2.66392   0.00002   0.00000  -0.00002  -0.00002   2.66391
   R36        2.08544  -0.00001   0.00000  -0.00002  -0.00002   2.08542
   R37        2.08166   0.00001   0.00000   0.00004   0.00004   2.08170
   R38        1.84894   0.00000   0.00000   0.00003   0.00003   1.84897
   R39        1.82352  -0.00001   0.00000  -0.00004  -0.00004   1.82348
   R40        2.97336  -0.00001   0.00000   0.00022   0.00022   2.97358
   R41        2.31698  -0.00007   0.00000  -0.00010  -0.00010   2.31688
   R42        2.42110   0.00002   0.00000   0.00012   0.00012   2.42122
   R43        2.84301   0.00000   0.00000   0.00001   0.00001   2.84302
   R44        2.53583   0.00001   0.00000   0.00004   0.00004   2.53587
   R45        2.60285   0.00000   0.00000  -0.00003  -0.00003   2.60282
   R46        2.54617  -0.00001   0.00000  -0.00000  -0.00000   2.54617
   R47        2.26382   0.00000   0.00000   0.00001   0.00001   2.26382
   R48        2.76821   0.00001   0.00000   0.00001   0.00001   2.76822
   R49        2.71166  -0.00002   0.00000   0.00001   0.00001   2.71166
   R50        2.05106   0.00000   0.00000  -0.00000  -0.00000   2.05106
   R51        2.55824  -0.00000   0.00000  -0.00001  -0.00001   2.55823
   R52        2.05775   0.00000   0.00000   0.00000   0.00000   2.05775
   R53        2.83548  -0.00001   0.00000  -0.00002  -0.00002   2.83546
   R54        2.27899   0.00000   0.00000  -0.00001  -0.00001   2.27898
   R55        2.49297   0.00000   0.00000   0.00001   0.00001   2.49297
   R56        1.83783  -0.00000   0.00000  -0.00000  -0.00000   1.83783
    A1        2.48350  -0.00007   0.00000  -0.00045  -0.00045   2.48305
    A2        1.80167   0.00002   0.00000   0.00008   0.00008   1.80175
    A3        1.71304   0.00004   0.00000   0.00024   0.00024   1.71327
    A4        1.51445  -0.00005   0.00000  -0.00012  -0.00012   1.51433
    A5        2.03130  -0.00003   0.00000   0.00019   0.00019   2.03149
    A6        1.95219   0.00003   0.00000   0.00016   0.00016   1.95235
    A7        2.24615   0.00001   0.00000  -0.00044  -0.00044   2.24571
    A8        1.93765  -0.00002   0.00000   0.00021   0.00021   1.93786
    A9        2.43184  -0.00000   0.00000   0.00043   0.00043   2.43227
   A10        2.25218   0.00001   0.00000   0.00015   0.00015   2.25233
   A11        1.67359  -0.00000   0.00000  -0.00010  -0.00010   1.67350
   A12        2.12559   0.00001   0.00000   0.00066   0.00066   2.12624
   A13        1.92111   0.00002   0.00000   0.00005   0.00005   1.92116
   A14        1.90470  -0.00001   0.00000  -0.00011  -0.00011   1.90459
   A15        1.92324  -0.00001   0.00000  -0.00006  -0.00006   1.92318
   A16        1.92665  -0.00000   0.00000  -0.00009  -0.00009   1.92655
   A17        1.90087  -0.00000   0.00000   0.00010   0.00010   1.90097
   A18        1.88702   0.00001   0.00000   0.00012   0.00012   1.88714
   A19        1.91888  -0.00000   0.00000  -0.00008  -0.00008   1.91879
   A20        1.88721   0.00001   0.00000   0.00016   0.00016   1.88738
   A21        1.94856  -0.00000   0.00000  -0.00009  -0.00009   1.94847
   A22        1.87345   0.00000   0.00000   0.00001   0.00001   1.87346
   A23        1.96082   0.00001   0.00000   0.00005   0.00005   1.96088
   A24        1.87128  -0.00001   0.00000  -0.00003  -0.00003   1.87124
   A25        1.94244  -0.00000   0.00000  -0.00024  -0.00024   1.94220
   A26        1.91386   0.00000   0.00000   0.00002   0.00002   1.91388
   A27        1.90885  -0.00000   0.00000  -0.00000  -0.00000   1.90885
   A28        1.90443  -0.00000   0.00000  -0.00008  -0.00008   1.90435
   A29        1.91779   0.00000   0.00000   0.00022   0.00022   1.91802
   A30        1.87523   0.00000   0.00000   0.00009   0.00009   1.87532
   A31        1.94933   0.00002   0.00000   0.00024   0.00024   1.94957
   A32        1.89537   0.00000   0.00000   0.00005   0.00005   1.89542
   A33        1.90210  -0.00001   0.00000  -0.00026  -0.00026   1.90185
   A34        1.96460  -0.00001   0.00000  -0.00004  -0.00004   1.96456
   A35        1.88211  -0.00000   0.00000  -0.00004  -0.00004   1.88207
   A36        1.86774   0.00000   0.00000   0.00003   0.00003   1.86777
   A37        1.92343  -0.00001   0.00000  -0.00001  -0.00001   1.92342
   A38        1.93270   0.00003   0.00000   0.00016   0.00016   1.93286
   A39        1.90693  -0.00001   0.00000  -0.00004  -0.00004   1.90689
   A40        1.89967  -0.00001   0.00000   0.00000   0.00000   1.89968
   A41        1.92244  -0.00002   0.00000  -0.00013  -0.00013   1.92232
   A42        1.91449   0.00000   0.00000  -0.00000  -0.00000   1.91449
   A43        1.88686   0.00001   0.00000  -0.00000  -0.00000   1.88685
   A44        1.96188  -0.00000   0.00000  -0.00003  -0.00003   1.96185
   A45        1.88169   0.00001   0.00000   0.00008   0.00008   1.88176
   A46        1.90352  -0.00000   0.00000   0.00004   0.00004   1.90357
   A47        1.96233  -0.00001   0.00000  -0.00006  -0.00006   1.96226
   A48        1.87825   0.00000   0.00000  -0.00005  -0.00005   1.87820
   A49        1.87365  -0.00000   0.00000   0.00003   0.00003   1.87368
   A50        1.88449   0.00002   0.00000   0.00004   0.00004   1.88453
   A51        1.92572  -0.00005   0.00000  -0.00022  -0.00022   1.92550
   A52        1.90051   0.00001   0.00000   0.00003   0.00003   1.90054
   A53        1.90224   0.00001   0.00000  -0.00001  -0.00001   1.90223
   A54        1.92395   0.00002   0.00000   0.00022   0.00022   1.92416
   A55        1.91589   0.00002   0.00000   0.00004   0.00004   1.91593
   A56        1.89507  -0.00000   0.00000  -0.00005  -0.00005   1.89501
   A57        1.95738  -0.00002   0.00000   0.00004   0.00004   1.95742
   A58        1.88465   0.00000   0.00000   0.00001   0.00001   1.88467
   A59        1.91099  -0.00001   0.00000  -0.00019  -0.00019   1.91080
   A60        1.93499   0.00002   0.00000   0.00003   0.00003   1.93503
   A61        1.89393   0.00001   0.00000   0.00013   0.00013   1.89406
   A62        1.88036   0.00000   0.00000  -0.00004  -0.00004   1.88033
   A63        1.89985   0.00001   0.00000   0.00014   0.00014   1.89999
   A64        1.74818  -0.00008   0.00000  -0.00094  -0.00094   1.74724
   A65        1.89471  -0.00000   0.00000   0.00003   0.00003   1.89474
   A66        1.79034  -0.00002   0.00000   0.00038   0.00037   1.79071
   A67        2.78265  -0.00002   0.00000  -0.00119  -0.00119   2.78146
   A68        2.20389  -0.00005   0.00000  -0.00008  -0.00008   2.20381
   A69        2.09409   0.00008   0.00000   0.00010   0.00010   2.09419
   A70        1.98514  -0.00003   0.00000  -0.00002  -0.00002   1.98512
   A71        2.14852  -0.00001   0.00000  -0.00001  -0.00001   2.14852
   A72        1.99533   0.00004   0.00000  -0.00001  -0.00001   1.99532
   A73        2.14706  -0.00004   0.00000   0.00003   0.00003   2.14709
   A74        2.14053  -0.00000   0.00000  -0.00002  -0.00002   2.14051
   A75        2.06508   0.00000   0.00000   0.00001   0.00001   2.06510
   A76        2.01630   0.00001   0.00000   0.00002   0.00002   2.01632
   A77        2.20180  -0.00001   0.00000  -0.00004  -0.00004   2.20176
   A78        2.05839   0.00001   0.00000   0.00002   0.00002   2.05841
   A79        2.09925  -0.00001   0.00000   0.00001   0.00001   2.09925
   A80        2.12553  -0.00001   0.00000  -0.00003  -0.00003   2.12550
   A81        2.10344  -0.00000   0.00000  -0.00001  -0.00001   2.10343
   A82        2.03856  -0.00000   0.00000  -0.00002  -0.00002   2.03854
   A83        2.14118   0.00000   0.00000   0.00003   0.00003   2.14120
   A84        2.09904  -0.00000   0.00000  -0.00001  -0.00001   2.09904
   A85        2.04583  -0.00002   0.00000  -0.00002  -0.00002   2.04581
   A86        2.13822   0.00002   0.00000   0.00002   0.00002   2.13824
   A87        2.13779  -0.00001   0.00000   0.00001   0.00001   2.13780
   A88        1.97738  -0.00001   0.00000  -0.00004  -0.00004   1.97734
   A89        2.16801   0.00002   0.00000   0.00003   0.00003   2.16804
   A90        1.90756  -0.00000   0.00000  -0.00002  -0.00002   1.90754
   A91        2.42530   0.00003   0.00000  -0.00007  -0.00007   2.42523
   A92        3.24107  -0.00001   0.00000   0.00030   0.00030   3.24138
    D1        2.14344  -0.00000   0.00000  -0.00128  -0.00128   2.14216
    D2       -2.05131  -0.00002   0.00000  -0.00097  -0.00097  -2.05228
    D3        0.19395  -0.00002   0.00000  -0.00141  -0.00141   0.19253
    D4        1.22381  -0.00001   0.00000   0.00214   0.00214   1.22595
    D5       -2.95056  -0.00001   0.00000   0.00190   0.00190  -2.94866
    D6       -0.89842  -0.00000   0.00000   0.00203   0.00203  -0.89640
    D7        2.71814   0.00003   0.00000  -0.00127  -0.00127   2.71687
    D8        0.86442  -0.00001   0.00000  -0.00167  -0.00168   0.86275
    D9       -1.96231  -0.00002   0.00000  -0.00134  -0.00134  -1.96364
   D10        0.10825  -0.00003   0.00000  -0.00064  -0.00064   0.10761
   D11        2.55082  -0.00001   0.00000   0.00051   0.00051   2.55133
   D12        2.01438   0.00001   0.00000  -0.00035  -0.00035   2.01402
   D13       -1.82624   0.00002   0.00000   0.00080   0.00080  -1.82544
   D14       -1.50437   0.00001   0.00000  -0.00060  -0.00060  -1.50498
   D15        0.93819   0.00003   0.00000   0.00055   0.00055   0.93875
   D16        3.04297  -0.00002   0.00000  -0.00048  -0.00048   3.04250
   D17       -0.17130  -0.00001   0.00000  -0.00013  -0.00013  -0.17143
   D18        1.15111  -0.00003   0.00000  -0.00051  -0.00051   1.15061
   D19       -2.06316  -0.00001   0.00000  -0.00016  -0.00016  -2.06332
   D20       -1.32550  -0.00002   0.00000  -0.00035  -0.00035  -1.32585
   D21        1.74341  -0.00001   0.00000  -0.00001  -0.00001   1.74341
   D22        2.35645  -0.00001   0.00000  -0.00064  -0.00064   2.35582
   D23       -1.81297  -0.00001   0.00000  -0.00049  -0.00049  -1.81347
   D24        0.25155  -0.00001   0.00000  -0.00055  -0.00055   0.25100
   D25        2.01511   0.00003   0.00000  -0.00371  -0.00371   2.01140
   D26       -1.73751   0.00001   0.00000   0.00143   0.00143  -1.73608
   D27        0.38295   0.00001   0.00000   0.00135   0.00135   0.38430
   D28        2.43980   0.00000   0.00000   0.00133   0.00133   2.44112
   D29        1.71683   0.00000   0.00000  -0.00072  -0.00072   1.71611
   D30       -2.44947   0.00000   0.00000  -0.00087  -0.00087  -2.45034
   D31       -0.37995  -0.00000   0.00000  -0.00083  -0.00083  -0.38078
   D32       -0.57212  -0.00001   0.00000  -0.00181  -0.00181  -0.57393
   D33        1.54477  -0.00001   0.00000  -0.00197  -0.00197   1.54280
   D34       -2.66890  -0.00002   0.00000  -0.00193  -0.00193  -2.67083
   D35        0.85910  -0.00003   0.00000  -0.00010  -0.00010   0.85900
   D36       -2.91104  -0.00001   0.00000   0.00069   0.00069  -2.91035
   D37        1.13028   0.00000   0.00000  -0.00004  -0.00004   1.13024
   D38       -0.91001  -0.00001   0.00000  -0.00010  -0.00010  -0.91011
   D39       -2.96443   0.00000   0.00000  -0.00010  -0.00010  -2.96454
   D40       -0.97343   0.00000   0.00000   0.00013   0.00013  -0.97331
   D41       -3.01373  -0.00000   0.00000   0.00007   0.00007  -3.01366
   D42        1.21504   0.00000   0.00000   0.00007   0.00007   1.21510
   D43       -3.04264   0.00000   0.00000  -0.00002  -0.00002  -3.04267
   D44        1.20025  -0.00000   0.00000  -0.00008  -0.00008   1.20017
   D45       -0.85417   0.00000   0.00000  -0.00008  -0.00008  -0.85426
   D46       -1.16993  -0.00001   0.00000  -0.00374  -0.00374  -1.17367
   D47        0.99512  -0.00001   0.00000  -0.00388  -0.00388   0.99125
   D48        3.04928  -0.00001   0.00000  -0.00386  -0.00386   3.04542
   D49        3.09144   0.00000   0.00000  -0.00073  -0.00073   3.09071
   D50       -1.01505   0.00000   0.00000  -0.00059  -0.00059  -1.01564
   D51        1.01381   0.00000   0.00000  -0.00066  -0.00066   1.01314
   D52        0.97709   0.00000   0.00000  -0.00055  -0.00055   0.97654
   D53       -3.12940   0.00000   0.00000  -0.00041  -0.00041  -3.12980
   D54       -1.10054   0.00000   0.00000  -0.00048  -0.00048  -1.10102
   D55       -1.07472  -0.00000   0.00000  -0.00075  -0.00075  -1.07547
   D56        1.10197  -0.00000   0.00000  -0.00060  -0.00060   1.10137
   D57        3.13083  -0.00000   0.00000  -0.00068  -0.00068   3.13015
   D58        1.30497   0.00000   0.00000  -0.00019  -0.00019   1.30479
   D59       -0.83258  -0.00001   0.00000  -0.00040  -0.00040  -0.83298
   D60       -2.88876  -0.00000   0.00000  -0.00039  -0.00039  -2.88915
   D61        1.02659  -0.00000   0.00000  -0.00036  -0.00036   1.02624
   D62       -3.08411  -0.00000   0.00000  -0.00040  -0.00040  -3.08451
   D63       -1.05495   0.00000   0.00000  -0.00030  -0.00030  -1.05526
   D64       -1.08471  -0.00000   0.00000  -0.00032  -0.00032  -1.08504
   D65        1.08777  -0.00000   0.00000  -0.00037  -0.00037   1.08740
   D66        3.11693   0.00000   0.00000  -0.00027  -0.00027   3.11665
   D67        3.12364   0.00000   0.00000  -0.00025  -0.00025   3.12339
   D68       -0.98706   0.00000   0.00000  -0.00029  -0.00029  -0.98736
   D69        1.04210   0.00001   0.00000  -0.00019  -0.00019   1.04190
   D70        0.87932   0.00001   0.00000   0.00029   0.00029   0.87962
   D71       -1.24795  -0.00000   0.00000   0.00026   0.00026  -1.24769
   D72        2.97557   0.00001   0.00000   0.00029   0.00029   2.97586
   D73        1.04045  -0.00001   0.00000  -0.00020  -0.00020   1.04025
   D74       -3.10570  -0.00000   0.00000  -0.00012  -0.00012  -3.10582
   D75       -1.06292  -0.00000   0.00000  -0.00026  -0.00026  -1.06318
   D76       -1.05928   0.00000   0.00000  -0.00023  -0.00023  -1.05951
   D77        1.07775   0.00001   0.00000  -0.00015  -0.00015   1.07760
   D78        3.12053   0.00001   0.00000  -0.00029  -0.00029   3.12024
   D79        3.13717  -0.00001   0.00000  -0.00032  -0.00032   3.13685
   D80       -1.00898  -0.00001   0.00000  -0.00025  -0.00025  -1.00923
   D81        1.03379  -0.00001   0.00000  -0.00039  -0.00039   1.03341
   D82       -0.73381  -0.00002   0.00000  -0.00001  -0.00001  -0.73383
   D83        1.38103  -0.00006   0.00000  -0.00013  -0.00013   1.38089
   D84       -2.80284  -0.00003   0.00000   0.00002   0.00002  -2.80282
   D85        0.32773   0.00001   0.00000  -0.00086  -0.00086   0.32688
   D86       -1.78046   0.00001   0.00000  -0.00093  -0.00093  -1.78138
   D87        2.44097  -0.00001   0.00000  -0.00098  -0.00098   2.43999
   D88        0.25788   0.00005   0.00000   0.00503   0.00503   0.26290
   D89        0.19117  -0.00002   0.00000  -0.00092  -0.00092   0.19025
   D90       -2.93687  -0.00002   0.00000  -0.00098  -0.00098  -2.93785
   D91       -0.07147  -0.00001   0.00000  -0.00031  -0.00031  -0.07178
   D92        3.04572  -0.00001   0.00000  -0.00018  -0.00018   3.04554
   D93        3.08207  -0.00001   0.00000  -0.00036  -0.00036   3.08170
   D94       -0.08394  -0.00001   0.00000  -0.00023  -0.00023  -0.08417
   D95        3.12657  -0.00000   0.00000   0.00004   0.00004   3.12661
   D96        0.00928  -0.00000   0.00000  -0.00009  -0.00009   0.00919
   D97        3.12822   0.00000   0.00000   0.00004   0.00004   3.12827
   D98       -0.01726  -0.00000   0.00000   0.00004   0.00004  -0.01722
   D99       -3.10877   0.00001   0.00000  -0.00009  -0.00009  -3.10886
   D100       0.02559   0.00000   0.00000  -0.00009  -0.00009   0.02550
   D101       0.00641   0.00000   0.00000   0.00006   0.00006   0.00646
   D102       3.14077   0.00000   0.00000   0.00005   0.00005   3.14082
   D103       0.01025   0.00000   0.00000   0.00003   0.00003   0.01028
   D104      -3.12624   0.00000   0.00000  -0.00003  -0.00003  -3.12627
   D105      -3.13559  -0.00000   0.00000   0.00003   0.00003  -3.13556
   D106       0.01111  -0.00000   0.00000  -0.00003  -0.00003   0.01108
   D107      -0.01282  -0.00001   0.00000   0.00002   0.00002  -0.01280
   D108       3.11440  -0.00001   0.00000   0.00009   0.00009   3.11449
   D109       3.13612  -0.00000   0.00000   0.00002   0.00002   3.13614
   D110      -0.01985  -0.00000   0.00000   0.00010   0.00010  -0.01975
   D111       0.00427   0.00000   0.00000  -0.00006  -0.00006   0.00421
   D112      -3.12217   0.00000   0.00000  -0.00014  -0.00014  -3.12230
   D113       3.14045   0.00000   0.00000   0.00000   0.00000   3.14045
   D114       0.01401   0.00000   0.00000  -0.00007  -0.00007   0.01394
   D115      -0.06552  -0.00000   0.00000   0.00026   0.00026  -0.06526
   D116       3.07894  -0.00000   0.00000   0.00015   0.00015   3.07909
   D117       3.06135  -0.00000   0.00000   0.00034   0.00034   3.06169
   D118      -0.07737  -0.00001   0.00000   0.00023   0.00023  -0.07714
   D119       3.12957   0.00000   0.00000   0.00002   0.00002   3.12959
   D120      -0.00909  -0.00000   0.00000  -0.00010  -0.00010  -0.00918
         Item               Value     Threshold  Converged?
 Maximum Force            0.000080     0.000450     YES
 RMS     Force            0.000018     0.000300     YES
 Maximum Displacement     0.005078     0.001800     NO 
 RMS     Displacement     0.001300     0.001200     NO 
 Predicted change in Energy=-3.773202D-07
 GradGradGradGradGradGradGradGradGradGradGradGradGradGradGradGradGradGrad

 Symmetry turned off by external request.
 Stoichiometry    C15H24O14Ti
 Framework group  C1[X(C15H24O14Ti)]
 Deg. of freedom   156
 Full point group                 C1      NOp   1
                          Input orientation:                          
 ---------------------------------------------------------------------
 Center     Atomic      Atomic             Coordinates (Angstroms)
 Number     Number       Type             X           Y           Z
 ---------------------------------------------------------------------
      1          8           0        6.310503   -3.630655    0.019169
      2         22           0        5.683292   -5.192405   -0.548405
      3          8           0        4.602752   -6.762729   -1.532276
      4          8           0        7.127111   -6.199451   -0.635391
      5          8           0        4.537473   -5.531276    0.837240
      6          6           0        4.186062   -4.703081    1.920720
      7          6           0        2.859003   -4.010121    1.640167
      8          6           0        6.375998   -2.277975   -0.320035
      9          6           0        5.009216   -1.609608   -0.198505
     10          8           0        5.077187   -0.237891   -0.473358
     11          6           0        7.483172   -7.556814   -0.594883
     12          6           0        7.982381   -7.940798    0.786453
     13          8           0        7.026450   -7.708681    1.783053
     14          6           0        3.416544   -7.437959   -1.114695
     15          6           0        3.765697   -8.617342   -0.233965
     16          8           0        4.473480   -8.227106    0.921004
     17          1           0        7.089429   -1.763532    0.343643
     18          1           0        6.753694   -2.177101   -1.354953
     19          1           0        4.295916   -2.140882   -0.859638
     20          1           0        4.642450   -1.729246    0.833980
     21          1           0        2.776964   -6.728925   -0.566233
     22          1           0        2.871744   -7.785825   -2.002925
     23          1           0        2.826952   -9.131319    0.035155
     24          1           0        4.386824   -9.328450   -0.801433
     25          1           0        6.606731   -8.171641   -0.867078
     26          1           0        8.274296   -7.739564   -1.339628
     27          1           0        8.304136   -8.999191    0.748182
     28          1           0        8.869875   -7.336380    1.028935
     29          1           0        4.113810   -5.315901    2.835678
     30          1           0        4.962482   -3.936850    2.081500
     31          1           0        2.049060   -4.758700    1.577101
     32          1           0        2.929620   -3.519615    0.657422
     33          8           0        2.587720   -3.008122    2.586323
     34          1           0        4.336264   -7.269501    1.067604
     35          1           0        2.435536   -3.426960    3.442205
[...]
 ---------------------------------------------------------------------
      1          8           0        6.424650   -3.827758    0.331649
      2         22           0        5.793503   -5.349675   -0.313132
      3          8           0        4.858454   -7.194293   -1.202352
      4          8           0        7.161522   -5.932440   -1.403603
      5          8           0        4.369420   -5.566345    0.905042
      6          6           0        3.739766   -4.517891    1.595051
      7          6           0        2.650933   -3.885577    0.735257
      8          6           0        6.787434   -2.576998   -0.184600
      9          6           0        5.732863   -1.535396    0.177527
     10          8           0        6.077325   -0.265604   -0.304120
     11          6           0        7.763408   -7.185967   -1.274444
     12          6           0        7.820360   -7.483797    0.222320
     13          8           0        6.626359   -6.951930    0.802770
     14          6           0        3.538248   -7.668082   -0.947835
     15          6           0        3.622438   -8.693663    0.162614
     16          8           0        4.375005   -8.189834    1.249552
     17          1           0        7.760730   -2.269945    0.230438
     18          1           0        6.895792   -2.636896   -1.283902
     19          1           0        4.747895   -1.878674   -0.193229
     20          1           0        5.657014   -1.482565    1.275291
     21          1           0        2.898084   -6.822716   -0.650696
     22          1           0        3.123412   -8.125669   -1.856953
     23          1           0        2.606791   -8.981674    0.478443
     24          1           0        4.138395   -9.595465   -0.196362
     25          1           0        7.169831   -7.955474   -1.797234
     26          1           0        8.777408   -7.186217   -1.706104
     27          1           0        7.910597   -8.554498    0.448608
     28          1           0        8.657534   -6.949965    0.691122
     29          1           0        3.296079   -4.905682    2.529955
     30          1           0        4.466508   -3.733092    1.869424
     31          1           0        1.876027   -4.639611    0.503868
     32          1           0        3.099682   -3.574492   -0.220850
     33          8           0        2.108666   -2.737004    1.338803
     34          1           0        4.119186   -7.248737    1.385952
     35          1           0        1.651977   -3.004829    2.145497
     36          1           0        5.757963   -0.159132   -1.212023
     37          1           0        5.861628   -7.602213    0.802465
     38          8           0        4.732144   -5.874554   -3.482714
     39          1           0        4.911746   -6.920905   -2.154906
     40          6           0        4.728639   -4.742933   -3.023087
     41          8           0        4.889488   -4.419067   -1.788350
     42          8           0        4.260120   -3.871792   -5.201877
     43          6           0        4.531012   -3.554786   -3.926323
     44          8           0        3.811506   -3.310314   -7.294919
     45          6           0        4.063370   -2.930120   -6.186852
     46          6           0        4.645220   -2.279956   -3.502894
     47          6           0        4.191957   -1.535322   -5.760082
     48          6           0        4.474059   -1.234017   -4.470573
     49          1           0        4.864805   -2.065205   -2.461051
     50          6           0        4.643164    0.179235   -3.995864
     51          1           0        4.056142   -0.773023   -6.525634
     52          8           0        4.988491    0.449946   -2.872624
     53          8           0        4.382562    1.076853   -4.927139
     54          1           0        4.522492    1.967571   -4.562719
 ---------------------------------------------------------------------
 Rotational constants (GHZ):           0.2023995           0.0948867           0.0819958

 **********************************************************************

            Population analysis using the SCF Density.

 **********************************************************************

 Alpha  occ. eigenvalues -- -180.54347 -20.53601 -19.72707 -19.70472 -19.67217
 Alpha  occ. eigenvalues --  -19.66606 -19.65998 -19.65505 -19.64457 -19.64378
 Alpha  occ. eigenvalues --  -19.64147 -19.63818 -19.62869 -19.62163 -19.62087
 Alpha  occ. eigenvalues --  -19.61890 -17.24031 -17.23952 -17.23819 -10.72648
 Alpha  occ. eigenvalues --  -10.71562 -10.71090 -10.66073 -10.62153 -10.61126
 Alpha  occ. eigenvalues --  -10.61001 -10.60570 -10.60472 -10.60377 -10.59986
 Alpha  occ. eigenvalues --  -10.59656 -10.59460 -10.59365 -10.59136  -2.65029
 Alpha  occ. eigenvalues --   -1.71865  -1.71482  -1.71190  -1.26643  -1.25613
 Alpha  occ. eigenvalues --   -1.21484  -1.17507  -1.16452  -1.15855  -1.15725
 Alpha  occ. eigenvalues --   -1.13542  -1.12919  -1.12544  -1.11675  -1.10079
 Alpha  occ. eigenvalues --   -1.09060  -1.08059  -0.96626  -0.89972  -0.84074
 Alpha  occ. eigenvalues --   -0.82326  -0.81232  -0.80795  -0.80490  -0.79053
 Alpha  occ. eigenvalues --   -0.72788  -0.72019  -0.70565  -0.69652  -0.69479
 Alpha  occ. eigenvalues --   -0.69073  -0.63914  -0.63540  -0.63311  -0.61944
 Alpha  occ. eigenvalues --   -0.61099  -0.59772  -0.59543  -0.59358  -0.58738
 Alpha  occ. eigenvalues --   -0.58625  -0.57851  -0.57273  -0.56944  -0.56905
 Alpha  occ. eigenvalues --   -0.56293  -0.56255  -0.55377  -0.54887  -0.54725
 Alpha  occ. eigenvalues --   -0.54188  -0.53191  -0.52905  -0.51546  -0.51368
 Alpha  occ. eigenvalues --   -0.50971  -0.50265  -0.49797  -0.48967  -0.48869
 Alpha  occ. eigenvalues --   -0.48686  -0.48188  -0.47776  -0.46984  -0.46107
 Alpha  occ. eigenvalues --   -0.46025  -0.44209  -0.43116  -0.42240  -0.42117
 Alpha  occ. eigenvalues --   -0.41415  -0.41318  -0.40999  -0.40897  -0.40327
 Alpha  occ. eigenvalues --   -0.40009  -0.39305  -0.38619  -0.38215  -0.37405
 Alpha  occ. eigenvalues --   -0.37057  -0.36684  -0.36632  -0.36224  -0.34864
 Alpha  occ. eigenvalues --   -0.34636  -0.33138  -0.32549  -0.31488
 Alpha virt. eigenvalues --   -0.07683  -0.03065  -0.02059  -0.00647  -0.00101
 Alpha virt. eigenvalues --    0.02895   0.04357   0.06697   0.07484   0.08618
 Alpha virt. eigenvalues --    0.09394   0.10135   0.10422   0.10778   0.11035
 Alpha virt. eigenvalues --    0.13017   0.13408   0.13627   0.13942   0.14710
 Alpha virt. eigenvalues --    0.14735   0.15312   0.16183   0.16683   0.16972
 Alpha virt. eigenvalues --    0.17265   0.17853   0.18285   0.18775   0.19611
 Alpha virt. eigenvalues --    0.19874   0.20723   0.21276   0.21524   0.22466
 Alpha virt. eigenvalues --    0.23247   0.24424   0.24975   0.25499   0.26004
 Alpha virt. eigenvalues --    0.26464   0.27080   0.27606   0.28096   0.28438
 Alpha virt. eigenvalues --    0.28700   0.29238   0.29691   0.30624   0.30755
 Alpha virt. eigenvalues --    0.31420   0.31852   0.32916   0.33558   0.33656
 Alpha virt. eigenvalues --    0.35233   0.35892   0.36897   0.38039   0.39042
 Alpha virt. eigenvalues --    0.39697   0.41875   0.43615   0.45652   0.46389
 Alpha virt. eigenvalues --    0.47431   0.47587   0.47928   0.48638   0.49239
 Alpha virt. eigenvalues --    0.49583   0.50729   0.51325   0.51675   0.52056
 Alpha virt. eigenvalues --    0.52784   0.53574   0.53759   0.54815   0.55059
 Alpha virt. eigenvalues --    0.55295   0.55687   0.56933   0.57980   0.58186
 Alpha virt. eigenvalues --    0.59338   0.59582   0.59787   0.60640   0.61280
 Alpha virt. eigenvalues --    0.61642   0.62160   0.62813   0.63081   0.63811
 Alpha virt. eigenvalues --    0.64447   0.64774   0.65066   0.65619   0.66137
 Alpha virt. eigenvalues --    0.66270   0.67065   0.67448   0.68341   0.68768
 Alpha virt. eigenvalues --    0.69585   0.69789   0.69898   0.70191   0.70502
 Alpha virt. eigenvalues --    0.70887   0.70964   0.71432   0.71498   0.71931
 Alpha virt. eigenvalues --    0.72097   0.72418   0.72448   0.72642   0.73278
 Alpha virt. eigenvalues --    0.73944   0.74248   0.74616   0.75572   0.76096
 Alpha virt. eigenvalues --    0.76462   0.76644   0.77802   0.78235   0.80210
 Alpha virt. eigenvalues --    0.80585   0.81004   0.81522   0.81992   0.82509
 Alpha virt. eigenvalues --    0.83049   0.84835   0.85534   0.88083   0.88256
 Alpha virt. eigenvalues --    0.88835   0.89676   0.92561   0.94249   0.94919
 Alpha virt. eigenvalues --    0.96879   0.98173   0.99414   1.00532   1.01689
 Alpha virt. eigenvalues --    1.01999   1.03417   1.04294   1.05259   1.06109
 Alpha virt. eigenvalues --    1.06951   1.07317   1.08112   1.08633   1.09775
 Alpha virt. eigenvalues --    1.10255   1.10708   1.11308   1.11858   1.12801
 Alpha virt. eigenvalues --    1.14161   1.14570   1.16025   1.17431   1.18770
 Alpha virt. eigenvalues --    1.19244   1.20621   1.21316   1.22630   1.23084
 Alpha virt. eigenvalues --    1.23901   1.24952   1.25449   1.26775   1.27045
 Alpha virt. eigenvalues --    1.27548   1.28560   1.29492   1.30501   1.31676
 Alpha virt. eigenvalues --    1.32561   1.32747   1.33250   1.34364   1.34827
 Alpha virt. eigenvalues --    1.35439   1.36616   1.37289   1.37555   1.38028
 Alpha virt. eigenvalues --    1.39053   1.39208   1.40228   1.41049   1.41571
 Alpha virt. eigenvalues --    1.42560   1.42988   1.43171   1.44188   1.44505
 Alpha virt. eigenvalues --    1.45261   1.45693   1.46792   1.47430   1.48827
 Alpha virt. eigenvalues --    1.49312   1.50076   1.50493   1.51097   1.52194
 Alpha virt. eigenvalues --    1.52420   1.53882   1.54746   1.55532   1.56860
 Alpha virt. eigenvalues --    1.57465   1.58784   1.59297   1.60286   1.60982
 Alpha virt. eigenvalues --    1.61488   1.62676   1.64346   1.65014   1.65203
 Alpha virt. eigenvalues --    1.65620   1.66039   1.66294   1.67085   1.68076
 Alpha virt. eigenvalues --    1.68842   1.69394   1.70425   1.70809   1.72288
 Alpha virt. eigenvalues --    1.73112   1.73398   1.74212   1.75134   1.76144
 Alpha virt. eigenvalues --    1.76911   1.77909   1.78193   1.78340   1.79019
 Alpha virt. eigenvalues --    1.79225   1.79982   1.80140   1.80865   1.81379
 Alpha virt. eigenvalues --    1.81871   1.83147   1.83518   1.84248   1.84558
 Alpha virt. eigenvalues --    1.85076   1.85962   1.86788   1.87167   1.88149
 Alpha virt. eigenvalues --    1.88347   1.88543   1.89588   1.90206   1.90496
 Alpha virt. eigenvalues --    1.91144   1.92032   1.92517   1.92754   1.92876
 Alpha virt. eigenvalues --    1.93499   1.94365   1.94771   1.95429   1.96066
 Alpha virt. eigenvalues --    1.96354   1.97015   1.97358   1.97891   1.98327
 Alpha virt. eigenvalues --    1.98632   1.99069   1.99916   2.00724   2.01197
 Alpha virt. eigenvalues --    2.02141   2.03207   2.04617   2.05128   2.06102
 Alpha virt. eigenvalues --    2.06688   2.07733   2.08838   2.10975   2.12074
 Alpha virt. eigenvalues --    2.12619   2.14186   2.15527   2.17746   2.18018
 Alpha virt. eigenvalues --    2.18959   2.21294   2.21635   2.22142   2.22789
 Alpha virt. eigenvalues --    2.23437   2.24616   2.28407   2.30260   2.31225
 Alpha virt. eigenvalues --    2.31588   2.32338   2.34096   2.34616   2.36143
 Alpha virt. eigenvalues --    2.38149   2.38917   2.39894   2.40599   2.41063
 Alpha virt. eigenvalues --    2.41476   2.42387   2.45121   2.45506   2.45913
 Alpha virt. eigenvalues --    2.46577   2.46822   2.47078   2.47642   2.48301
 Alpha virt. eigenvalues --    2.49026   2.50482   2.53496   2.54621   2.54751
 Alpha virt. eigenvalues --    2.56600   2.58687   2.66330   2.67618   2.68398
 Alpha virt. eigenvalues --    2.69439   2.70781   2.71351   2.73169   2.73831
 Alpha virt. eigenvalues --    2.74864   2.76856   2.77138   2.78007   2.78316
 Alpha virt. eigenvalues --    2.78838   2.80344   2.80744   2.81741   2.82576
 Alpha virt. eigenvalues --    2.82780   2.84250   2.85354   2.86254   2.87343
 Alpha virt. eigenvalues --    2.87868   2.89804   2.89946   2.91502   2.92258
 Alpha virt. eigenvalues --    2.92614   2.93170   2.93669   2.95093   2.95729
 Alpha virt. eigenvalues --    2.96532   2.96906   2.99080   3.00044   3.00364
 Alpha virt. eigenvalues --    3.02090   3.02532   3.04165   3.04271   3.05455
 Alpha virt. eigenvalues --    3.06819   3.07845   3.08716   3.09527   3.10828
 Alpha virt. eigenvalues --    3.11146   3.12329   3.13103   3.13713   3.15324
 Alpha virt. eigenvalues --    3.15570   3.16745   3.17207   3.18089   3.20286
 Alpha virt. eigenvalues --    3.20572   3.21996   3.22164   3.22899   3.23657
 Alpha virt. eigenvalues --    3.23934   3.26014   3.28678   3.29808   3.33422
 Alpha virt. eigenvalues --    3.34301   3.36490   3.38218   3.40184   3.42654
 Alpha virt. eigenvalues --    3.44497   3.44878   3.46861   3.47580   3.48803
 Alpha virt. eigenvalues --    3.50933   3.58625   3.61619   3.67740   3.71137
 Alpha virt. eigenvalues --    3.74193   3.79758   3.80273   3.81479   3.81946
 Alpha virt. eigenvalues --    3.83309   3.84354   3.87448
          Condensed to atoms (all electrons):
 Mulliken charges:
               1
     1  O   -0.539201
     2  Ti   1.069179
     3  O   -0.420921
     4  O   -0.543414
     5  O   -0.616081
     6  C    0.175471
     7  C    0.117614
     8  C    0.192087
     9  C    0.100112
    10  O   -0.394179
    11  C    0.182967
    12  C    0.132849
    13  O   -0.416069
    14  C    0.103592
    15  C    0.152009
    16  O   -0.412748
    17  H    0.049477
    18  H    0.035362
    19  H    0.040524
    20  H    0.048038
    21  H    0.055841
    22  H    0.071200
    23  H    0.058682
    24  H    0.056369
    25  H    0.041344
    26  H    0.053725
    27  H    0.074874
    28  H    0.068447
    29  H    0.033557
    30  H    0.028269
    31  H    0.045160
    32  H    0.038425
    33  O   -0.386453
    34  H    0.230606
    35  H    0.204099
    36  H    0.194563
    37  H    0.266151
    38  O   -0.334086
    39  H    0.263370
    40  C    0.386215
    41  O   -0.473689
    42  O   -0.275455
    43  C    0.135495
    44  O   -0.249861
    45  C    0.304520
    46  C    0.006679
    47  C   -0.112705
    48  C   -0.015796
    49  H   -0.002567
    50  C    0.321210
    51  H    0.080115
    52  O   -0.273825
    53  O   -0.195676
    54  H    0.244531
 Sum of Mulliken charges =  -0.00000
 Mulliken charges with hydrogens summed into heavy atoms:
               1
     1  O   -0.539201
     2  Ti   1.069179
     3  O   -0.157551
     4  O   -0.543414
     5  O   -0.616081
     6  C    0.237297
     7  C    0.201199
     8  C    0.276926
     9  C    0.188674
    10  O   -0.199617
    11  C    0.278036
    12  C    0.276169
    13  O   -0.149917
    14  C    0.230632
    15  C    0.267059
    16  O   -0.182142
    33  O   -0.182354
    38  O   -0.334086
    40  C    0.386215
    41  O   -0.473689
    42  O   -0.275455
    43  C    0.135495
    44  O   -0.249861
    45  C    0.304520
    46  C    0.004112
    47  C   -0.032590
    48  C   -0.015796
    50  C    0.321210
    52  O   -0.273825
    53  O    0.048855
 Electronic spatial extent (au):  <R**2>=          53613.4210
 Charge=             -0.0000 electrons
 Dipole moment (field-independent basis, Debye):
    X=             -1.6346    Y=             -1.6211    Z=              2.0490  Tot=              3.0819
 Quadrupole moment (field-independent basis, Debye-Ang):
   XX=           -188.5464   YY=           -136.0792   ZZ=           -217.9343
   XY=             -5.9223   XZ=              0.0482   YZ=            -37.5114
 Traceless Quadrupole moment (field-independent basis, Debye-Ang):
   XX=             -7.6931   YY=             44.7741   ZZ=            -37.0810
   XY=             -5.9223   XZ=              0.0482   YZ=            -37.5114
 Octapole moment (field-independent basis, Debye-Ang**2):
  XXX=          -2687.6787  YYY=           1832.2112  ZZZ=           1257.7805  XYY=           -686.2041
  XXY=            638.3408  XXZ=            277.3695  XZZ=          -1043.1213  YZZ=           1087.4883
  YYZ=            369.3154  XYZ=           -136.4773
 Hexadecapole moment (field-independent basis, Debye-Ang**3):
 XXXX=         -28433.6542 YYYY=         -22226.6271 ZZZZ=         -12718.1128 XXXY=          10012.1751
 XXXZ=           4006.3501 YYYX=           9344.1745 YYYZ=          -2145.3549 ZZZX=           5352.1884
 ZZZY=          -4286.9987 XXYY=          -7488.6171 XXZZ=          -7005.9681 YYZZ=          -7454.2246
 XXYZ=          -1249.0372 YYXZ=           1588.0168 ZZXY=           5311.6391
 N-N= 3.926249763612D+03 E-N=-1.369821941116D+04  KE= 2.471267628181D+03
 1\1\GINC-R6I6N31\Scan\RM062X\def2SVP\C15H24O14Ti1\HMAYES\14-Aug-2019\0
 \\# m062x/Def2SVP nosymm scf=xqc opt=(ReadFC,ModRedundant) CPHF=Grid=F
 ine SCRF=(Solvent=1,2-EthaneDiol,Read) guess=read geom=allcheck\\based
  on TiOBu4 complex\\0,1\O,6.4246502682,-3.82775761,0.331649323\Ti,5.79
 35032668,-5.3496754143,-0.3131320194\O,4.8584538423,-7.1942933829,-1.2
 023519525\O,7.1615217302,-5.9324397771,-1.4036029608\O,4.3694196216,-5
 .5663452331,0.905042044\C,3.7397657745,-4.517891014,1.5950512851\C,2.6
 509332087,-3.8855770828,0.7352569878\C,6.787433521,-2.5769984639,-0.18
 45997437\C,5.7328630544,-1.5353957087,0.1775266304\O,6.0773247368,-0.2
 656041877,-0.3041201899\C,7.7634079406,-7.1859672504,-1.2744444373\C,7
 .820359718,-7.4837971228,0.222319558\O,6.6263585689,-6.9519297202,0.80
 27698978\C,3.5382475113,-7.6680816149,-0.9478345191\C,3.6224375098,-8.
 6936625745,0.1626135362\O,4.3750051246,-8.1898341344,1.2495524158\H,7.
 7607300438,-2.269945131,0.2304379007\H,6.8957917255,-2.6368955083,-1.2
 839024023\H,4.7478945523,-1.8786744281,-0.1932287114\H,5.6570138758,-1
 .4825654077,1.2752910469\H,2.8980839698,-6.822715895,-0.6506956528\H,3
 .1234121944,-8.1256687909,-1.8569528879\H,2.6067906986,-8.9816739138,0
 .4784425007\H,4.1383950359,-9.5954647317,-0.1963617767\H,7.169830628,-
 7.9554739869,-1.7972341081\H,8.7774083245,-7.1862174138,-1.7061036794\
 H,7.9105973205,-8.5544978489,0.4486081696\H,8.6575337284,-6.9499653764
 ,0.6911224337\H,3.2960790396,-4.9056817811,2.5299554379\H,4.4665084813
 ,-3.7330924547,1.8694239618\H,1.8760268405,-4.6396106535,0.503867869\H
 ,3.0996818123,-3.5744920208,-0.2208502353\O,2.108666424,-2.7370044988,
 1.3388028801\H,4.1191861011,-7.2487369015,1.385951933\H,1.6519771012,-
 3.004828664,2.1454972413\H,5.7579627927,-0.1591316817,-1.2120233392\H,
 5.8616277143,-7.602213425,0.8024654189\O,4.7321441798,-5.874553522,-3.
 4827143494\H,4.9117457915,-6.9209053255,-2.1549058725\C,4.7286390136,-
 4.7429327488,-3.0230872002\O,4.8894880773,-4.4190673494,-1.788350289\O
 ,4.2601196158,-3.8717923247,-5.201877039\C,4.5310122996,-3.5547864139,
 -3.9263233642\O,3.8115055675,-3.3103136505,-7.2949191923\C,4.063370125
 4,-2.9301198472,-6.1868524134\C,4.6452199287,-2.2799560117,-3.50289359
 27\C,4.1919572055,-1.5353223853,-5.760082157\C,4.4740589694,-1.2340166
 656,-4.4705732898\H,4.864805198,-2.065205441,-2.4610512942\C,4.6431640
 045,0.1792348108,-3.9958642391\H,4.0561418471,-0.7730229697,-6.5256339
 783\O,4.9884908045,0.4499459975,-2.8726240665\O,4.3825615999,1.0768534
 388,-4.9271386953\H,4.5224919696,1.9675712136,-4.5627188228\\Version=E
 S64L-G16RevB.01\HF=-2486.8690945,-2486.8690373,-2486.8689501,-2486.868
 746,-2486.8684709,-2486.8681436,-2486.8822685,-2486.8832532,-2486.8839
 54,-2486.8843265,-2486.8843556,-2486.8840559,-2486.8833752,-2486.88227
 35,-2486.8807457\RMSD=4.474e-09,4.949e-09,8.412e-09,7.370e-09,5.492e-0
 9,8.657e-09,7.094e-09,7.546e-09,6.502e-09,9.857e-09,5.685e-09,6.136e-0
 9,4.694e-09,4.224e-09,7.195e-09\PG=C01 [X(C15H24O14Ti1)]\\@

 Job cpu time:       5 days 11 hours 33 minutes 39.9 seconds.
 Elapsed time:       0 days  3 hours 47 minutes 49.0 seconds.
 File lengths (MBytes):  RWF=   1278 Int=      0 D2E=      0 Chk=     55 Scr=      1
 Normal termination of Gaussian 16 at Wed Aug 14 23:43:38 2019.
