 Entering Gaussian System, Link 0=g16
 Initial command:
 /opt/gaussian/16.B.01/g16/l1.exe "/oasis/scratch/comet/mayes/temp_project/Gau-28964.inp" -scrdir="/oasis/scratch/comet/mayes/temp_project/"
 Entering Link 1 = /opt/gaussian/16.B.01/g16/l1.exe PID=     28965.
  
 Copyright (c) 1988-2017, Gaussian, Inc.  All Rights Reserved.
  
 This is part of the Gaussian(R) 16 program.  It is based on
 the Gaussian(R) 09 system (copyright 2009, Gaussian, Inc.),
 the Gaussian(R) 03 system (copyright 2003, Gaussian, Inc.),
 the Gaussian(R) 98 system (copyright 1998, Gaussian, Inc.),
 the Gaussian(R) 94 system (copyright 1995, Gaussian, Inc.),
 the Gaussian 92(TM) system (copyright 1992, Gaussian, Inc.),
 the Gaussian 90(TM) system (copyright 1990, Gaussian, Inc.),
 the Gaussian 88(TM) system (copyright 1988, Gaussian, Inc.),
 the Gaussian 86(TM) system (copyright 1986, Carnegie Mellon
 University), and the Gaussian 82(TM) system (copyright 1983,
 Carnegie Mellon University). Gaussian is a federally registered
 trademark of Gaussian, Inc.
  
 This software contains proprietary and confidential information,
 including trade secrets, belonging to Gaussian, Inc.
  
 This software is provided under written license and may be
 used, copied, transmitted, or stored only in accord with that
 written license.
  
 The following legend is applicable only to US Government
 contracts under FAR:
  
                    RESTRICTED RIGHTS LEGEND
  
 Use, reproduction and disclosure by the US Government is
 subject to restrictions as set forth in subparagraphs (a)
 and (c) of the Commercial Computer Software - Restricted
 Rights clause in FAR 52.227-19.
  
 Gaussian, Inc.
 340 Quinnipiac St., Bldg. 40, Wallingford CT 06492
  
  
 ---------------------------------------------------------------
 Warning -- This program may not be used in any manner that
 competes with the business of Gaussian, Inc. or will provide
 assistance to any competitor of Gaussian, Inc.  The licensee
 of this program is prohibited from giving any competitor of
 Gaussian, Inc. access to this program.  By using this program,
 the user acknowledges that Gaussian, Inc. is engaged in the
 business of creating and licensing software in the field of
 computational chemistry and represents and warrants to the
 licensee that it is not a competitor of Gaussian, Inc. and that
 it will not use this program in any manner prohibited above.
 ---------------------------------------------------------------
  

 Cite this work as:
 Gaussian 16, Revision B.01,
 M. J. Frisch, G. W. Trucks, H. B. Schlegel, G. E. Scuseria, 
 M. A. Robb, J. R. Cheeseman, G. Scalmani, V. Barone, 
 G. A. Petersson, H. Nakatsuji, X. Li, M. Caricato, A. V. Marenich, 
 J. Bloino, B. G. Janesko, R. Gomperts, B. Mennucci, H. P. Hratchian, 
 J. V. Ortiz, A. F. Izmaylov, J. L. Sonnenberg, D. Williams-Young, 
 F. Ding, F. Lipparini, F. Egidi, J. Goings, B. Peng, A. Petrone, 
 T. Henderson, D. Ranasinghe, V. G. Zakrzewski, J. Gao, N. Rega, 
 G. Zheng, W. Liang, M. Hada, M. Ehara, K. Toyota, R. Fukuda, 
 J. Hasegawa, M. Ishida, T. Nakajima, Y. Honda, O. Kitao, H. Nakai, 
 T. Vreven, K. Throssell, J. A. Montgomery, Jr., J. E. Peralta, 
 F. Ogliaro, M. J. Bearpark, J. J. Heyd, E. N. Brothers, K. N. Kudin, 
 V. N. Staroverov, T. A. Keith, R. Kobayashi, J. Normand, 
 K. Raghavachari, A. P. Rendell, J. C. Burant, S. S. Iyengar, 
 J. Tomasi, M. Cossi, J. M. Millam, M. Klene, C. Adamo, R. Cammi, 
 J. W. Ochterski, R. L. Martin, K. Morokuma, O. Farkas, 
 J. B. Foresman, and D. J. Fox, Gaussian, Inc., Wallingford CT, 2016.
 
 ******************************************
 Gaussian 16:  ES64L-G16RevB.01 20-Dec-2017
                 6-Aug-2019 
 ******************************************
 %RWF=/oasis/scratch/comet/mayes/temp_project/ethygly2_tzvp.rwf
 %NoSave
 %OldChk=/oasis/scratch/comet/mayes/temp_project/ethygly2.chk
 %Chk=/oasis/scratch/comet/mayes/temp_project/ethygly2_tzvp.chk
 %cpu=0-23
 SetSPE:  set environment variable "MP_BIND" = "yes"
 SetSPE:  set environment variable "MP_BLIST" = "0,1,2,3,4,5,6,7,8,9,10,11,12,13,14,15,16,17,18,19,20,21,22,23"
 Will use up to   24 processors via shared memory.
 %mem=100GB
 Copying data from "/oasis/scratch/comet/mayes/temp_project/ethygly2.chk" to current chk file "/oasis/scratch/comet/mayes/temp_project/ethygly2_tzvp.chk"
 IOpt=  2 FromEx=T IUOpen= 4 IOptOp= 5 NList=   0 IFRang= 0 IUIn= 4 IUOut= 2.
 ----------------------------------------------------------------------
 # geom=allcheck guess=read m062x/Def2TZVP nosymm scf=xqc opt=ReadFC fr
 eq=NoRaman SCRF=(Solvent=1,2-EthaneDiol,Read) CPHF=Grid=Fine
 ----------------------------------------------------------------------
 1/10=3,18=20,19=15,26=3,29=7,38=1,40=2/1,3;
 2/9=110,12=2,15=1,40=1/2;
 3/5=44,7=101,11=2,14=-4,25=1,30=1,70=2203,71=1,72=30,74=-55,116=-2/1,2,3;
 4/5=1/1;
 5/5=2,8=3,13=1,38=6,53=30/2,8;
 6/7=2,8=2,9=2,10=2,28=1/1;
 7/30=1/1,2,3,16;
 1/18=20,19=15,26=3/3(2);
 2/9=110,15=1/2;
 99//99;
 2/9=110,15=1/2;
 3/5=44,7=101,11=2,14=-2,25=1,30=1,70=2205,71=1,72=30,74=-55/1,2,3;
 4/5=5,16=3,69=1/1;
 5/5=2,8=3,13=1,38=5,53=30/2,8;
 7/30=1/1,2,3,16;
 1/18=20,19=15,26=3/3(-5);
 2/9=110,15=1/2;
 6/7=2,8=2,9=2,10=2,19=2,28=1/1;
 99/9=1/99;
 Structure from the checkpoint file:  "/oasis/scratch/comet/mayes/temp_project/ethygly2_tzvp.chk"
 ---------------------------------------
 conformation testing of ethylene glycol
 ---------------------------------------
 Charge =  0 Multiplicity = 1
 Redundant internal coordinates found in file.  (old form).
 C,0,-1.3605401342,1.2536360396,-0.0020595222
 C,0,-0.102570958,0.3956190275,0.0385871853
 H,0,-1.4126988747,1.7680668435,-0.9782790215
 H,0,-1.2914627441,2.0333405857,0.7730698247
 O,0,-2.5184346921,0.5045063694,0.2714736554
 O,0,1.0553440729,1.1447490636,-0.2348462133
 H,0,-0.1715803628,-0.3840729723,-0.7365553339
 H,0,-0.0505044269,-0.1188178943,1.0148130148
 H,0,-2.6551755565,-0.1139379293,-0.456242772
 H,0,1.1918336764,1.7634408667,0.4927091826
 Recover connectivity data from disk.

 GradGradGradGradGradGradGradGradGradGradGradGradGradGradGradGradGradGrad
 Berny optimization.
 Initialization pass.
 Force constant matrix read from checkpoint file:
 "/oasis/scratch/comet/mayes/temp_project/ethygly2_tzvp.chk"
                           ----------------------------
                           !    Initial Parameters    !
                           ! (Angstroms and Degrees)  !
 --------------------------                            --------------------------
 ! Name  Definition              Value          Derivative Info.                !
 --------------------------------------------------------------------------------
 ! R1    R(1,2)                  1.5233         D2E/DX2 =    0.2916             !
 ! R2    R(1,3)                  1.1047         D2E/DX2 =    0.3302             !
 ! R3    R(1,4)                  1.1016         D2E/DX2 =    0.3392             !
 ! R4    R(1,5)                  1.406          D2E/DX2 =    0.3924             !
 ! R5    R(2,6)                  1.406          D2E/DX2 =    0.3924             !
 ! R6    R(2,7)                  1.1016         D2E/DX2 =    0.3392             !
 ! R7    R(2,8)                  1.1047         D2E/DX2 =    0.3302             !
 ! R8    R(5,9)                  0.9648         D2E/DX2 =    0.5381             !
 ! R9    R(6,10)                 0.9648         D2E/DX2 =    0.5381             !
 ! A1    A(2,1,3)              108.958          D2E/DX2 =    0.0706             !
 ! A2    A(2,1,4)              109.1547         D2E/DX2 =    0.0715             !
 ! A3    A(2,1,5)              112.0125         D2E/DX2 =    0.1496             !
 ! A4    A(3,1,4)              107.1672         D2E/DX2 =    0.0267             !
 ! A5    A(3,1,5)              112.4057         D2E/DX2 =    0.0643             !
 ! A6    A(4,1,5)              106.9702         D2E/DX2 =    0.061              !
 ! A7    A(1,2,6)              112.0134         D2E/DX2 =    0.1496             !
 ! A8    A(1,2,7)              109.1574         D2E/DX2 =    0.0715             !
 ! A9    A(1,2,8)              108.954          D2E/DX2 =    0.0706             !
 ! A10   A(6,2,7)              106.9698         D2E/DX2 =    0.061              !
 ! A11   A(6,2,8)              112.4062         D2E/DX2 =    0.0643             !
 ! A12   A(7,2,8)              107.1677         D2E/DX2 =    0.0267             !
 ! A13   A(1,5,9)              108.152          D2E/DX2 =    0.1815             !
 ! A14   A(2,6,10)             108.1526         D2E/DX2 =    0.1815             !
 ! D1    D(3,1,2,6)             55.0036         D2E/DX2 =    0.0181             !
 ! D2    D(3,1,2,7)            -63.2731         D2E/DX2 =    0.0178             !
 ! D3    D(3,1,2,8)           -179.9973         D2E/DX2 =    0.0154             !
 ! D4    D(4,1,2,6)            -61.7207         D2E/DX2 =    0.0181             !
 ! D5    D(4,1,2,7)           -179.9975         D2E/DX2 =    0.0161             !
 ! D6    D(4,1,2,8)             63.2784         D2E/DX2 =    0.0178             !
 ! D7    D(5,1,2,6)           -179.9956         D2E/DX2 =    0.0193             !
 ! D8    D(5,1,2,7)             61.7276         D2E/DX2 =    0.0181             !
 ! D9    D(5,1,2,8)            -54.9966         D2E/DX2 =    0.0181             !
 ! D10   D(2,1,5,9)            -67.2506         D2E/DX2 =    0.0163             !
 ! D11   D(3,1,5,9)             55.8229         D2E/DX2 =    0.0227             !
 ! D12   D(4,1,5,9)            173.185          D2E/DX2 =    0.0234             !
 ! D13   D(1,2,6,10)            67.2241         D2E/DX2 =    0.0163             !
 ! D14   D(7,2,6,10)          -173.2078         D2E/DX2 =    0.0234             !
 ! D15   D(8,2,6,10)           -55.8451         D2E/DX2 =    0.0227             !
 --------------------------------------------------------------------------------
 Trust Radius=3.00D-01 FncErr=1.00D-07 GrdErr=1.00D-06 EigMax=2.50D+02 EigMin=1.00D-04
 Number of steps in this run=     48 maximum allowed number of steps=    100.
 GradGradGradGradGradGradGradGradGradGradGradGradGradGradGradGradGradGrad

                          Input orientation:                          
 ---------------------------------------------------------------------
 Center     Atomic      Atomic             Coordinates (Angstroms)
 Number     Number       Type             X           Y           Z
 ---------------------------------------------------------------------
      1          6           0       -1.360540    1.253636   -0.002060
      2          6           0       -0.102571    0.395619    0.038587
      3          1           0       -1.412699    1.768067   -0.978279
      4          1           0       -1.291463    2.033341    0.773070
      5          8           0       -2.518435    0.504506    0.271474
      6          8           0        1.055344    1.144749   -0.234846
      7          1           0       -0.171580   -0.384073   -0.736555
      8          1           0       -0.050504   -0.118818    1.014813
      9          1           0       -2.655176   -0.113938   -0.456243
     10          1           0        1.191834    1.763441    0.492709
 ---------------------------------------------------------------------
                    Distance matrix (angstroms):
                    1          2          3          4          5
     1  C    0.000000
     2  C    1.523264   0.000000
     3  H    1.104701   2.152688   0.000000
     4  H    1.101606   2.152919   1.775469   0.000000
     5  O    1.405964   2.429504   2.093112   2.023461   0.000000
     6  O    2.429515   1.405962   2.651877   2.704254   3.665810
     7  H    2.152952   1.101602   2.496099   3.062188   2.704334
     8  H    2.152639   1.104705   3.064037   2.496038   2.651748
     9  H    1.937169   2.649584   2.314781   2.825195   0.964750
    10  H    2.649398   1.937175   2.991223   2.513605   3.924277
                    6          7          8          9         10
     6  O    0.000000
     7  H    2.023451   0.000000
     8  H    2.093120   1.775475   0.000000
     9  H    3.924445   2.513920   2.991378   0.000000
    10  H    0.964752   2.825209   2.314929   4.384580   0.000000
 Symmetry turned off by external request.
 Stoichiometry    C2H6O2
 Framework group  C1[X(C2H6O2)]
 Deg. of freedom    24
 Full point group                 C1      NOp   1
 Rotational constants (GHZ):          29.4821277           3.9542201           3.7126362
 Standard basis: def2TZVP (5D, 7F)
   160 basis functions,   252 primitive gaussians,   180 cartesian basis functions
    17 alpha electrons       17 beta electrons
       nuclear repulsion energy       130.4542321669 Hartrees.
 NAtoms=   10 NActive=   10 NUniq=   10 SFac= 1.00D+00 NAtFMM=   60 NAOKFM=F Big=F
 Integral buffers will be    131072 words long.
 Raffenetti 2 integral format.
 Two-electron integral symmetry is turned off.
 Using the following non-standard input for PCM:
 PDENS=7.0
 --- end of non-standard input.
 ------------------------------------------------------------------------------
 Polarizable Continuum Model (PCM)
 =================================
 Model                : PCM.
 Atomic radii         : UFF (Universal Force Field).
 Polarization charges : Total charges.
 Charge compensation  : None.
 Solution method      : On-the-fly selection.
 Cavity type          : Scaled VdW (van der Waals Surface) (Alpha=1.100).
 Cavity algorithm     : GePol (No added spheres)
                        Default sphere list used, NSphG=   10.
                        Lebedev-Laikov grids with approx.  7.0 points / Ang**2.
                        Smoothing algorithm: York/Karplus (Gamma=1.0000).
                        Polarization charges: spherical gaussians, with
                                              point-specific exponents (IZeta= 3).
                        Self-potential: point-specific (ISelfS= 7).
                        Self-field    : sphere-specific E.n sum rule (ISelfD= 2).
 1st derivatives      : Analytical E(r).r(x)/FMM algorithm (CHGder, D1EAlg=3).
                        Cavity 1st derivative terms included.
 Solvent              : 1,2-EthaneDiol, Eps=  40.245000 Eps(inf)=   2.050051
 ------------------------------------------------------------------------------
 Spheres list:
 ISph  on   Nord     Re0    Alpha      Xe            Ye            Ze
    1   C      1    1.9255  1.100     -1.360540      1.253636     -0.002060
    2   C      2    1.9255  1.100     -0.102571      0.395619      0.038587
    3   H      3    1.4430  1.100     -1.412699      1.768067     -0.978279
    4   H      4    1.4430  1.100     -1.291463      2.033341      0.773070
    5   O      5    1.7500  1.100     -2.518435      0.504506      0.271474
    6   O      6    1.7500  1.100      1.055344      1.144749     -0.234846
    7   H      7    1.4430  1.100     -0.171580     -0.384073     -0.736555
    8   H      8    1.4430  1.100     -0.050504     -0.118818      1.014813
    9   H      9    1.4430  1.100     -2.655176     -0.113938     -0.456243
   10   H     10    1.4430  1.100      1.191834      1.763441      0.492709
 ------------------------------------------------------------------------------
 One-electron integrals computed using PRISM.
   1 Symmetry operations used in ECPInt.
 ECPInt:  NShTT=    2346 NPrTT=    6892 LenC2=    2326 LenP2D=    5850.
 LDataN:  DoStor=T MaxTD1= 6 Len=  172
 NBasis=   160 RedAO= T EigKep=  4.95D-04  NBF=   160
 NBsUse=   160 1.00D-06 EigRej= -1.00D+00 NBFU=   160
 Initial guess from the checkpoint file:  "/oasis/scratch/comet/mayes/temp_project/ethygly2_tzvp.chk"
 B after Tr=     0.000000    0.000000    0.000000
         Rot=    1.000000    0.000000    0.000000    0.000000 Ang=   0.00 deg.
 Keep R1 ints in memory in canonical form, NReq=107202126.
 Requested convergence on RMS density matrix=1.00D-08 within  32 cycles.
 Requested convergence on MAX density matrix=1.00D-06.
 Requested convergence on             energy=1.00D-06.
 No special actions if energy rises.
 Inv3:  Mode=1 IEnd=     5762988.
 Iteration    1 A*A^-1 deviation from unit magnitude is 2.66D-15 for    617.
 Iteration    1 A*A^-1 deviation from orthogonality  is 1.93D-15 for   1074     86.
 Iteration    1 A^-1*A deviation from unit magnitude is 2.55D-15 for    619.
 Iteration    1 A^-1*A deviation from orthogonality  is 2.00D-15 for   1312    306.
 Error on total polarization charges =  0.00805
 SCF Done:  E(RM062X) =  -230.257012094     A.U. after   10 cycles
            NFock= 10  Conv=0.44D-08     -V/T= 2.0046
 QCSCF skips out because SCF is already converged.

 **********************************************************************

            Population analysis using the SCF Density.

 **********************************************************************

 Alpha  occ. eigenvalues --  -19.63279 -19.63279 -10.58257 -10.58219  -1.16124
 Alpha  occ. eigenvalues --   -1.14990  -0.83042  -0.71856  -0.60024  -0.59084
 Alpha  occ. eigenvalues --   -0.54305  -0.50273  -0.47692  -0.45090  -0.38916
 Alpha  occ. eigenvalues --   -0.38874  -0.34071
 Alpha virt. eigenvalues --    0.06739   0.06910   0.11671   0.12979   0.14365
 Alpha virt. eigenvalues --    0.17615   0.19775   0.21236   0.23540   0.25055
 Alpha virt. eigenvalues --    0.30915   0.31905   0.33002   0.36410   0.40163
 Alpha virt. eigenvalues --    0.41480   0.41704   0.45423   0.45483   0.48453
 Alpha virt. eigenvalues --    0.50236   0.52102   0.55477   0.56425   0.59494
 Alpha virt. eigenvalues --    0.60173   0.62066   0.64508   0.67205   0.77714
 Alpha virt. eigenvalues --    0.81941   0.82462   0.87124   0.87854   0.91288
 Alpha virt. eigenvalues --    0.97560   1.05024   1.09378   1.09575   1.21239
 Alpha virt. eigenvalues --    1.24944   1.37748   1.39723   1.47297   1.49340
 Alpha virt. eigenvalues --    1.51649   1.54431   1.56553   1.61361   1.62031
 Alpha virt. eigenvalues --    1.63943   1.66259   1.76926   1.82687   1.83533
 Alpha virt. eigenvalues --    1.85148   1.87837   1.90001   1.91161   1.96945
 Alpha virt. eigenvalues --    2.01933   2.05693   2.08942   2.12482   2.21200
 Alpha virt. eigenvalues --    2.25877   2.27994   2.31344   2.32409   2.34215
 Alpha virt. eigenvalues --    2.36063   2.39046   2.46958   2.48206   2.50053
 Alpha virt. eigenvalues --    2.61307   2.61503   2.63761   2.67675   2.71994
 Alpha virt. eigenvalues --    2.72166   2.80191   2.81910   2.86177   2.91695
 Alpha virt. eigenvalues --    2.98195   3.00350   3.06449   3.09932   3.14751
 Alpha virt. eigenvalues --    3.15684   3.19713   3.22241   3.28844   3.29661
 Alpha virt. eigenvalues --    3.34182   3.36708   3.37347   3.50901   3.53311
 Alpha virt. eigenvalues --    3.53568   3.75943   3.83956   3.84990   3.86833
 Alpha virt. eigenvalues --    3.89979   3.95394   4.09758   4.17070   4.19156
 Alpha virt. eigenvalues --    4.38865   4.43953   4.52403   4.65720   4.70530
 Alpha virt. eigenvalues --    5.26488   5.26890   5.33027   5.38530   5.45768
 Alpha virt. eigenvalues --    5.46896   5.67516   5.71349   5.79609   5.81764
 Alpha virt. eigenvalues --    5.87916   5.93644   6.24752   6.24903   6.43795
 Alpha virt. eigenvalues --    6.44791   6.65096   6.65165   6.72926   6.79857
 Alpha virt. eigenvalues --    6.91956   6.95316   7.09344   7.13071  22.47655
 Alpha virt. eigenvalues --   22.57874  43.84786  43.91964
          Condensed to atoms (all electrons):
               1          2          3          4          5          6
     1  C    4.910794   0.339205   0.418908   0.394280   0.218781  -0.046462
     2  C    0.339205   4.910846  -0.058512  -0.042344  -0.046491   0.218764
     3  H    0.418908  -0.058512   0.599192  -0.048618  -0.038691   0.010887
     4  H    0.394280  -0.042344  -0.048618   0.582503  -0.033365   0.001414
     5  O    0.218781  -0.046491  -0.038691  -0.033365   8.093345   0.005935
     6  O   -0.046462   0.218764   0.010887   0.001414   0.005935   8.093343
     7  H   -0.042338   0.394277  -0.014155   0.010675   0.001418  -0.033366
     8  H   -0.058501   0.418880   0.013020  -0.014158   0.010889  -0.038694
     9  H   -0.037924  -0.005994  -0.009544   0.009952   0.304032   0.000200
    10  H   -0.005995  -0.037931  -0.001127   0.005411   0.000200   0.304029
               7          8          9         10
     1  C   -0.042338  -0.058501  -0.037924  -0.005995
     2  C    0.394277   0.418880  -0.005994  -0.037931
     3  H   -0.014155   0.013020  -0.009544  -0.001127
     4  H    0.010675  -0.014158   0.009952   0.005411
     5  O    0.001418   0.010889   0.304032   0.000200
     6  O   -0.033366  -0.038694   0.000200   0.304029
     7  H    0.582500  -0.048621   0.005408   0.009953
     8  H   -0.048621   0.599228  -0.001127  -0.009538
     9  H    0.005408  -0.001127   0.391070   0.000025
    10  H    0.009953  -0.009538   0.000025   0.391080
 Mulliken charges:
               1
     1  C   -0.090747
     2  C   -0.090700
     3  H    0.128641
     4  H    0.134248
     5  O   -0.516054
     6  O   -0.516049
     7  H    0.134247
     8  H    0.128622
     9  H    0.343901
    10  H    0.343892
 Sum of Mulliken charges =  -0.00000
 Mulliken charges with hydrogens summed into heavy atoms:
               1
     1  C    0.172142
     2  C    0.172169
     5  O   -0.172153
     6  O   -0.172158
 Electronic spatial extent (au):  <R**2>=            490.0115
 Charge=             -0.0000 electrons
 Dipole moment (field-independent basis, Debye):
    X=             -0.0006    Y=              0.0005    Z=             -0.0005  Tot=              0.0009
 Quadrupole moment (field-independent basis, Debye-Ang):
   XX=            -30.9345   YY=            -22.3914   ZZ=            -24.3920
   XY=              2.6448   XZ=              6.6891   YZ=              3.1402
 Traceless Quadrupole moment (field-independent basis, Debye-Ang):
   XX=             -5.0285   YY=              3.5145   ZZ=              1.5140
   XY=              2.6448   XZ=              6.6891   YZ=              3.1402
 Octapole moment (field-independent basis, Debye-Ang**2):
  XXX=             67.8856  YYY=            -55.3935  ZZZ=             -1.3384  XYY=             20.7451
  XXY=            -29.3804  XXZ=            -10.3551  XZZ=             18.0880  YZZ=            -19.9996
  YYZ=              4.7699  XYZ=              3.2669
 Hexadecapole moment (field-independent basis, Debye-Ang**3):
 XXXX=           -421.0233 YYYY=           -158.0434 ZZZZ=            -42.5249 XXXY=             67.5656
 XXXZ=             49.0393 YYYX=             41.5278 YYYZ=             11.4118 ZZZX=             15.3631
 ZZZY=              2.3304 XXYY=            -89.0825 XXZZ=            -69.0609 YYZZ=            -32.9657
 XXYZ=              4.0013 YYXZ=              9.4138 ZZXY=             11.4515
 N-N= 1.304542321669D+02 E-N=-8.014430019393D+02  KE= 2.291969969696D+02
   1 Symmetry operations used in ECPInt.
 ECPInt:  NShTT=    2346 NPrTT=    6892 LenC2=    2326 LenP2D=    5850.
 LDataN:  DoStor=T MaxTD1= 7 Len=  274
 D1PCM: PCM CHGder 1st derivatives, ID1Alg=3 FixD1E=F DoIter=F DoCFld=F I1PDM=0.
 Calling FoFJK, ICntrl=      2127 FMM=F ISym2X=0 I1Cent= 0 IOpClX= 0 NMat=1 NMatS=1 NMatT=0.
 -------------------------------------------------------------------
 Center     Atomic                   Forces (Hartrees/Bohr)
 Number     Number              X              Y              Z
 -------------------------------------------------------------------
      1        6           0.008003034    0.011623031   -0.001319317
      2        6          -0.008004098   -0.011622456    0.001322652
      3        1          -0.001148202   -0.003440709    0.004937753
      4        1          -0.001132590   -0.004304134   -0.003595757
      5        8          -0.003262696   -0.003653122   -0.001947134
      6        8           0.003261969    0.003656064    0.001944715
      7        1           0.001130242    0.004303833    0.003595030
      8        1           0.001151723    0.003439826   -0.004939311
      9        1          -0.000767000    0.000681925    0.001739557
     10        1           0.000767618   -0.000684258   -0.001738188
 -------------------------------------------------------------------
 Cartesian Forces:  Max     0.011623031 RMS     0.004494686

 GradGradGradGradGradGradGradGradGradGradGradGradGradGradGradGradGradGrad
 Berny optimization.
 FormGI is forming the generalized inverse of G from B-inverse, IUseBI=4.
 Internal  Forces:  Max     0.005908050 RMS     0.002331686
 Search for a local minimum.
 Step number   1 out of a maximum of   48
 All quantities printed in internal units (Hartrees-Bohrs-Radians)
 Mixed Optimization -- RFO/linear search
 Second derivative matrix not updated -- first step.
 ITU=  0
     Eigenvalues ---    0.00266   0.00307   0.00335   0.04675   0.04926
     Eigenvalues ---    0.05238   0.06566   0.09401   0.10727   0.12088
     Eigenvalues ---    0.14924   0.16480   0.17394   0.17484   0.26301
     Eigenvalues ---    0.29749   0.32842   0.33057   0.33876   0.33944
     Eigenvalues ---    0.40742   0.43417   0.53890   0.53893
 RFO step:  Lambda=-8.47501408D-04 EMin= 2.65767860D-03
 Linear search not attempted -- first point.
 Iteration  1 RMS(Cart)=  0.01079952 RMS(Int)=  0.00013862
 Iteration  2 RMS(Cart)=  0.00011801 RMS(Int)=  0.00006933
 Iteration  3 RMS(Cart)=  0.00000001 RMS(Int)=  0.00006933
 Variable       Old X    -DE/DX   Delta X   Delta X   Delta X     New X
                                 (Linear)    (Quad)   (Total)
    R1        2.87855  -0.00090   0.00000  -0.00617  -0.00617   2.87238
    R2        2.08758  -0.00591   0.00000  -0.01949  -0.01949   2.06809
    R3        2.08173  -0.00566   0.00000  -0.01804  -0.01804   2.06370
    R4        2.65689   0.00487   0.00000   0.01855   0.01855   2.67544
    R5        2.65688   0.00487   0.00000   0.01856   0.01856   2.67544
    R6        2.08173  -0.00565   0.00000  -0.01803  -0.01803   2.06369
    R7        2.08759  -0.00591   0.00000  -0.01950  -0.01950   2.06809
    R8        1.82311  -0.00163   0.00000  -0.00356  -0.00356   1.81956
    R9        1.82312  -0.00163   0.00000  -0.00356  -0.00356   1.81956
    A1        1.90168   0.00104   0.00000   0.01033   0.01021   1.91188
    A2        1.90511   0.00067   0.00000   0.00947   0.00938   1.91449
    A3        1.95499  -0.00053   0.00000  -0.00803  -0.00803   1.94696
    A4        1.87042   0.00013   0.00000   0.01350   0.01331   1.88373
    A5        1.96185  -0.00099   0.00000  -0.01563  -0.01561   1.94624
    A6        1.86698  -0.00028   0.00000  -0.00831  -0.00827   1.85871
    A7        1.95500  -0.00053   0.00000  -0.00805  -0.00804   1.94696
    A8        1.90516   0.00067   0.00000   0.00943   0.00934   1.91449
    A9        1.90161   0.00104   0.00000   0.01041   0.01028   1.91189
   A10        1.86698  -0.00028   0.00000  -0.00830  -0.00827   1.85871
   A11        1.96186  -0.00099   0.00000  -0.01564  -0.01562   1.94623
   A12        1.87043   0.00013   0.00000   0.01349   0.01330   1.88373
   A13        1.88761   0.00214   0.00000   0.00820   0.00820   1.89580
   A14        1.88762   0.00214   0.00000   0.00818   0.00818   1.89580
    D1        0.95999   0.00088   0.00000   0.01812   0.01819   0.97818
    D2       -1.10432   0.00112   0.00000   0.02725   0.02738  -1.07695
    D3       -3.14155   0.00000   0.00000  -0.00003  -0.00003  -3.14157
    D4       -1.07723  -0.00024   0.00000  -0.00915  -0.00921  -1.08644
    D5       -3.14155   0.00000   0.00000  -0.00002  -0.00002  -3.14157
    D6        1.10442  -0.00112   0.00000  -0.02730  -0.02743   1.07699
    D7       -3.14152  -0.00000   0.00000  -0.00006  -0.00006  -3.14157
    D8        1.07735   0.00024   0.00000   0.00907   0.00913   1.08648
    D9       -0.95987  -0.00088   0.00000  -0.01820  -0.01827  -0.97814
   D10       -1.17374   0.00001   0.00000  -0.01415  -0.01419  -1.18793
   D11        0.97429   0.00024   0.00000  -0.01835  -0.01830   0.95599
   D12        3.02265  -0.00033   0.00000  -0.01580  -0.01581   3.00683
   D13        1.17328  -0.00001   0.00000   0.01450   0.01453   1.18781
   D14       -3.02305   0.00033   0.00000   0.01608   0.01609  -3.00695
   D15       -0.97468  -0.00024   0.00000   0.01862   0.01857  -0.95611
         Item               Value     Threshold  Converged?
 Maximum Force            0.005908     0.000450     NO 
 RMS     Force            0.002332     0.000300     NO 
 Maximum Displacement     0.029746     0.001800     NO 
 RMS     Displacement     0.010805     0.001200     NO 
 Predicted change in Energy=-4.270241D-04
 GradGradGradGradGradGradGradGradGradGradGradGradGradGradGradGradGradGrad

                          Input orientation:                          
 ---------------------------------------------------------------------
 Center     Atomic      Atomic             Coordinates (Angstroms)
 Number     Number       Type             X           Y           Z
 ---------------------------------------------------------------------
      1          6           0       -1.356087    1.257207   -0.003421
      2          6           0       -0.107059    0.392085    0.039957
      3          1           0       -1.420960    1.758069   -0.974301
      4          1           0       -1.297438    2.027147    0.768815
      5          8           0       -2.521813    0.501678    0.269887
      6          8           0        1.058671    1.147618   -0.233326
      7          1           0       -0.165696   -0.377842   -0.732293
      8          1           0       -0.042196   -0.108792    1.010830
      9          1           0       -2.670786   -0.108586   -0.459839
     10          1           0        1.207574    1.757946    0.496362
 ---------------------------------------------------------------------
                    Distance matrix (angstroms):
                    1          2          3          4          5
     1  C    0.000000
     2  C    1.519996   0.000000
     3  H    1.094386   2.149644   0.000000
     4  H    1.092060   2.149806   1.768083   0.000000
     5  O    1.415782   2.428150   2.082883   2.018682   0.000000
     6  O    2.428151   1.415782   2.658997   2.707233   3.672918
     7  H    2.149807   1.092060   2.489251   3.052563   2.707251
     8  H    2.149644   1.094386   3.053999   2.489265   2.658980
     9  H    1.949909   2.659542   2.304591   2.820821   0.962868
    10  H    2.659489   1.949908   3.011983   2.534125   3.941805
                    6          7          8          9         10
     6  O    0.000000
     7  H    2.018680   0.000000
     8  H    2.082882   1.768083   0.000000
     9  H    3.941853   2.534207   3.012035   0.000000
    10  H    0.962869   2.820825   2.304628   4.409075   0.000000
 Symmetry turned off by external request.
 Stoichiometry    C2H6O2
 Framework group  C1[X(C2H6O2)]
 Deg. of freedom    24
 Full point group                 C1      NOp   1
 Rotational constants (GHZ):          29.5062364           3.9418875           3.7010813
 Standard basis: def2TZVP (5D, 7F)
   160 basis functions,   252 primitive gaussians,   180 cartesian basis functions
    17 alpha electrons       17 beta electrons
       nuclear repulsion energy       130.3331247142 Hartrees.
 NAtoms=   10 NActive=   10 NUniq=   10 SFac= 1.00D+00 NAtFMM=   60 NAOKFM=F Big=F
 Integral buffers will be    131072 words long.
 Raffenetti 2 integral format.
 Two-electron integral symmetry is turned off.
 ------------------------------------------------------------------------------
 Polarizable Continuum Model (PCM)
 =================================
 Model                : PCM.
 Atomic radii         : UFF (Universal Force Field).
 Polarization charges : Total charges.
 Charge compensation  : None.
 Solution method      : On-the-fly selection.
 Cavity type          : Scaled VdW (van der Waals Surface) (Alpha=1.100).
 Cavity algorithm     : GePol (No added spheres)
                        Default sphere list used, NSphG=   10.
                        Lebedev-Laikov grids with approx.  7.0 points / Ang**2.
                        Smoothing algorithm: York/Karplus (Gamma=1.0000).
                        Polarization charges: spherical gaussians, with
                                              point-specific exponents (IZeta= 3).
                        Self-potential: point-specific (ISelfS= 7).
                        Self-field    : sphere-specific E.n sum rule (ISelfD= 2).
 1st derivatives      : Analytical E(r).r(x)/FMM algorithm (CHGder, D1EAlg=3).
                        Cavity 1st derivative terms included.
 Solvent              : 1,2-EthaneDiol, Eps=  40.245000 Eps(inf)=   2.050051
 ------------------------------------------------------------------------------
 Spheres list:
 ISph  on   Nord     Re0    Alpha      Xe            Ye            Ze
    1   C      1    1.9255  1.100     -1.356087      1.257207     -0.003421
    2   C      2    1.9255  1.100     -0.107059      0.392085      0.039957
    3   H      3    1.4430  1.100     -1.420960      1.758069     -0.974301
    4   H      4    1.4430  1.100     -1.297438      2.027147      0.768815
    5   O      5    1.7500  1.100     -2.521813      0.501678      0.269887
    6   O      6    1.7500  1.100      1.058671      1.147618     -0.233326
    7   H      7    1.4430  1.100     -0.165696     -0.377842     -0.732293
    8   H      8    1.4430  1.100     -0.042196     -0.108792      1.010830
    9   H      9    1.4430  1.100     -2.670786     -0.108586     -0.459839
   10   H     10    1.4430  1.100      1.207574      1.757946      0.496362
 ------------------------------------------------------------------------------
 One-electron integrals computed using PRISM.
   1 Symmetry operations used in ECPInt.
 ECPInt:  NShTT=    2346 NPrTT=    6892 LenC2=    2326 LenP2D=    5850.
 LDataN:  DoStor=T MaxTD1= 6 Len=  172
 NBasis=   160 RedAO= T EigKep=  4.84D-04  NBF=   160
 NBsUse=   160 1.00D-06 EigRej= -1.00D+00 NBFU=   160
 Initial guess from the checkpoint file:  "/oasis/scratch/comet/mayes/temp_project/ethygly2_tzvp.chk"
 B after Tr=     0.000278    0.000286    0.000572
         Rot=    1.000000   -0.000178    0.000416   -0.000090 Ang=  -0.05 deg.
 ExpMin= 9.52D-02 ExpMax= 2.70D+04 ExpMxC= 9.22D+02 IAcc=3 IRadAn=         5 AccDes= 0.00D+00
 Harris functional with IExCor= 1009 and IRadAn=       5 diagonalized for initial guess.
 HarFok:  IExCor= 1009 AccDes= 0.00D+00 IRadAn=         5 IDoV= 1 UseB2=F ITyADJ=14
 ICtDFT=  3500011 ScaDFX=  1.000000  1.000000  1.000000  1.000000
 FoFCou: FMM=F IPFlag=           0 FMFlag=      100000 FMFlg1=           0
         NFxFlg=           0 DoJE=T BraDBF=F KetDBF=T FulRan=T
         wScrn=  0.000000 ICntrl=       500 IOpCl=  0 I1Cent=   200000004 NGrid=           0
         NMat0=    1 NMatS0=      1 NMatT0=    0 NMatD0=    1 NMtDS0=    0 NMtDT0=    0
 Symmetry not used in FoFCou.
 Keep R1 ints in memory in canonical form, NReq=107202126.
 Requested convergence on RMS density matrix=1.00D-08 within  32 cycles.
 Requested convergence on MAX density matrix=1.00D-06.
 Requested convergence on             energy=1.00D-06.
 No special actions if energy rises.
 Inv3:  Mode=1 IEnd=     5796300.
 Iteration    1 A*A^-1 deviation from unit magnitude is 2.89D-15 for    362.
 Iteration    1 A*A^-1 deviation from orthogonality  is 2.66D-15 for   1239    789.
 Iteration    1 A^-1*A deviation from unit magnitude is 2.89D-15 for    362.
 Iteration    1 A^-1*A deviation from orthogonality  is 2.53D-15 for   1315    307.
 Error on total polarization charges =  0.00792
 SCF Done:  E(RM062X) =  -230.257453117     A.U. after    9 cycles
            NFock=  9  Conv=0.33D-08     -V/T= 2.0045
 QCSCF skips out because SCF is already converged.
   1 Symmetry operations used in ECPInt.
 ECPInt:  NShTT=    2346 NPrTT=    6892 LenC2=    2326 LenP2D=    5850.
 LDataN:  DoStor=T MaxTD1= 7 Len=  274
 D1PCM: PCM CHGder 1st derivatives, ID1Alg=3 FixD1E=F DoIter=F DoCFld=F I1PDM=0.
 Calling FoFJK, ICntrl=      2127 FMM=F ISym2X=0 I1Cent= 0 IOpClX= 0 NMat=1 NMatS=1 NMatT=0.
 -------------------------------------------------------------------
 Center     Atomic                   Forces (Hartrees/Bohr)
 Number     Number              X              Y              Z
 -------------------------------------------------------------------
      1        6           0.000388081    0.000546357   -0.000055496
      2        6          -0.000387725   -0.000546492    0.000055402
      3        1          -0.000019799   -0.000084284    0.000104078
      4        1          -0.000041087   -0.000144868   -0.000081289
      5        8          -0.000228335   -0.000243624    0.000021311
      6        8           0.000227969    0.000244238   -0.000021714
      7        1           0.000041095    0.000144676    0.000081482
      8        1           0.000019519    0.000084445   -0.000103881
      9        1          -0.000025768    0.000080318    0.000059023
     10        1           0.000026050   -0.000080768   -0.000058916
 -------------------------------------------------------------------
 Cartesian Forces:  Max     0.000546492 RMS     0.000203693

 GradGradGradGradGradGradGradGradGradGradGradGradGradGradGradGradGradGrad
 Berny optimization.
 Using GEDIIS/GDIIS optimizer.
 FormGI is forming the generalized inverse of G from B-inverse, IUseBI=4.
 Internal  Forces:  Max     0.000316713 RMS     0.000093652
 Search for a local minimum.
 Step number   2 out of a maximum of   48
 All quantities printed in internal units (Hartrees-Bohrs-Radians)
 Mixed Optimization -- En-DIIS/RFO-DIIS
 Update second derivatives using D2CorX and points    1    2
 DE= -4.41D-04 DEPred=-4.27D-04 R= 1.03D+00
 TightC=F SS=  1.41D+00  RLast= 8.79D-02 DXNew= 5.0454D-01 2.6369D-01
 Trust test= 1.03D+00 RLast= 8.79D-02 DXMaxT set to 3.00D-01
 ITU=  1  0
 Use linear search instead of GDIIS.
     Eigenvalues ---    0.00266   0.00307   0.00335   0.04674   0.04882
     Eigenvalues ---    0.05238   0.06567   0.09398   0.10684   0.12088
     Eigenvalues ---    0.14923   0.16478   0.17441   0.17484   0.26089
     Eigenvalues ---    0.29741   0.32842   0.33042   0.33672   0.33876
     Eigenvalues ---    0.40742   0.43214   0.53863   0.53890
 RFO step:  Lambda=-6.71685498D-07 EMin= 2.65767846D-03
 Quartic linear search produced a step of  0.04027.
 Iteration  1 RMS(Cart)=  0.00149710 RMS(Int)=  0.00000466
 Iteration  2 RMS(Cart)=  0.00000299 RMS(Int)=  0.00000297
 Iteration  3 RMS(Cart)=  0.00000000 RMS(Int)=  0.00000297
 Variable       Old X    -DE/DX   Delta X   Delta X   Delta X     New X
                                 (Linear)    (Quad)   (Total)
    R1        2.87238   0.00000  -0.00025   0.00014  -0.00011   2.87226
    R2        2.06809  -0.00012  -0.00079   0.00025  -0.00053   2.06756
    R3        2.06370  -0.00017  -0.00073   0.00010  -0.00062   2.06307
    R4        2.67544   0.00032   0.00075   0.00048   0.00123   2.67667
    R5        2.67544   0.00032   0.00075   0.00048   0.00123   2.67667
    R6        2.06369  -0.00017  -0.00073   0.00010  -0.00062   2.06307
    R7        2.06809  -0.00012  -0.00079   0.00025  -0.00053   2.06756
    R8        1.81956  -0.00007  -0.00014  -0.00003  -0.00017   1.81938
    R9        1.81956  -0.00007  -0.00014  -0.00003  -0.00018   1.81938
    A1        1.91188   0.00003   0.00041  -0.00009   0.00031   1.91220
    A2        1.91449   0.00005   0.00038   0.00015   0.00052   1.91501
    A3        1.94696  -0.00008  -0.00032  -0.00041  -0.00073   1.94623
    A4        1.88373   0.00001   0.00054   0.00029   0.00082   1.88454
    A5        1.94624   0.00000  -0.00063   0.00015  -0.00048   1.94575
    A6        1.85871  -0.00001  -0.00033  -0.00005  -0.00038   1.85832
    A7        1.94696  -0.00008  -0.00032  -0.00041  -0.00074   1.94623
    A8        1.91449   0.00005   0.00038   0.00015   0.00052   1.91501
    A9        1.91189   0.00003   0.00041  -0.00009   0.00031   1.91220
   A10        1.85871  -0.00001  -0.00033  -0.00005  -0.00038   1.85832
   A11        1.94623   0.00000  -0.00063   0.00015  -0.00048   1.94575
   A12        1.88373   0.00001   0.00054   0.00029   0.00082   1.88454
   A13        1.89580   0.00003   0.00033  -0.00042  -0.00009   1.89571
   A14        1.89580   0.00003   0.00033  -0.00042  -0.00009   1.89571
    D1        0.97818   0.00003   0.00073   0.00015   0.00089   0.97907
    D2       -1.07695   0.00006   0.00110   0.00037   0.00148  -1.07547
    D3       -3.14157   0.00000  -0.00000  -0.00001  -0.00001  -3.14159
    D4       -1.08644  -0.00003  -0.00037  -0.00023  -0.00061  -1.08705
    D5       -3.14157  -0.00000  -0.00000  -0.00001  -0.00001  -3.14159
    D6        1.07699  -0.00006  -0.00110  -0.00040  -0.00151   1.07548
    D7       -3.14157  -0.00000  -0.00000  -0.00001  -0.00001  -3.14159
    D8        1.08648   0.00003   0.00037   0.00021   0.00058   1.08706
    D9       -0.97814  -0.00003  -0.00074  -0.00017  -0.00091  -0.97906
   D10       -1.18793  -0.00000  -0.00057  -0.00408  -0.00465  -1.19258
   D11        0.95599  -0.00002  -0.00074  -0.00439  -0.00512   0.95087
   D12        3.00683  -0.00001  -0.00064  -0.00399  -0.00463   3.00220
   D13        1.18781   0.00000   0.00059   0.00418   0.00476   1.19257
   D14       -3.00695   0.00001   0.00065   0.00409   0.00474  -3.00221
   D15       -0.95611   0.00002   0.00075   0.00449   0.00523  -0.95088
         Item               Value     Threshold  Converged?
 Maximum Force            0.000317     0.000450     YES
 RMS     Force            0.000094     0.000300     YES
 Maximum Displacement     0.003716     0.001800     NO 
 RMS     Displacement     0.001497     0.001200     NO 
 Predicted change in Energy=-1.015828D-06
 GradGradGradGradGradGradGradGradGradGradGradGradGradGradGradGradGradGrad

                          Input orientation:                          
 ---------------------------------------------------------------------
 Center     Atomic      Atomic             Coordinates (Angstroms)
 Number     Number       Type             X           Y           Z
 ---------------------------------------------------------------------
      1          6           0       -1.356087    1.257166   -0.003503
      2          6           0       -0.107070    0.392140    0.040035
      3          1           0       -1.421886    1.756939   -0.974565
      4          1           0       -1.298151    2.027012    0.768414
      5          8           0       -2.521697    0.500503    0.270524
      6          8           0        1.058541    1.148803   -0.233983
      7          1           0       -0.165003   -0.377702   -0.731886
      8          1           0       -0.041275   -0.107639    1.011094
      9          1           0       -2.672704   -0.107095   -0.460885
     10          1           0        1.209541    1.756403    0.497426
 ---------------------------------------------------------------------
                    Distance matrix (angstroms):
                    1          2          3          4          5
     1  C    0.000000
     2  C    1.519937   0.000000
     3  H    1.094104   2.149612   0.000000
     4  H    1.091730   2.149887   1.768113   0.000000
     5  O    1.416431   2.428022   2.082897   2.018710   0.000000
     6  O    2.428022   1.416431   2.659099   2.707406   3.673272
     7  H    2.149888   1.091730   2.489044   3.052470   2.707412
     8  H    2.149611   1.094104   3.053781   2.489049   2.659093
     9  H    1.950356   2.661322   2.302833   2.820458   0.962776
    10  H    2.661318   1.950355   3.015156   2.536766   3.943464
                    6          7          8          9         10
     6  O    0.000000
     7  H    2.018709   0.000000
     8  H    2.082897   1.768113   0.000000
     9  H    3.943470   2.536777   3.015152   0.000000
    10  H    0.962776   2.820458   2.302835   4.411668   0.000000
 Symmetry turned off by external request.
 Stoichiometry    C2H6O2
 Framework group  C1[X(C2H6O2)]
 Deg. of freedom    24
 Full point group                 C1      NOp   1
 Rotational constants (GHZ):          29.4987448           3.9409111           3.7004177
 Standard basis: def2TZVP (5D, 7F)
   160 basis functions,   252 primitive gaussians,   180 cartesian basis functions
    17 alpha electrons       17 beta electrons
       nuclear repulsion energy       130.3173489042 Hartrees.
 NAtoms=   10 NActive=   10 NUniq=   10 SFac= 1.00D+00 NAtFMM=   60 NAOKFM=F Big=F
 Integral buffers will be    131072 words long.
 Raffenetti 2 integral format.
 Two-electron integral symmetry is turned off.
 ------------------------------------------------------------------------------
 Polarizable Continuum Model (PCM)
 =================================
 Model                : PCM.
 Atomic radii         : UFF (Universal Force Field).
 Polarization charges : Total charges.
 Charge compensation  : None.
 Solution method      : On-the-fly selection.
 Cavity type          : Scaled VdW (van der Waals Surface) (Alpha=1.100).
 Cavity algorithm     : GePol (No added spheres)
                        Default sphere list used, NSphG=   10.
                        Lebedev-Laikov grids with approx.  7.0 points / Ang**2.
                        Smoothing algorithm: York/Karplus (Gamma=1.0000).
                        Polarization charges: spherical gaussians, with
                                              point-specific exponents (IZeta= 3).
                        Self-potential: point-specific (ISelfS= 7).
                        Self-field    : sphere-specific E.n sum rule (ISelfD= 2).
 1st derivatives      : Analytical E(r).r(x)/FMM algorithm (CHGder, D1EAlg=3).
                        Cavity 1st derivative terms included.
 Solvent              : 1,2-EthaneDiol, Eps=  40.245000 Eps(inf)=   2.050051
 ------------------------------------------------------------------------------
 Spheres list:
 ISph  on   Nord     Re0    Alpha      Xe            Ye            Ze
    1   C      1    1.9255  1.100     -1.356087      1.257166     -0.003503
    2   C      2    1.9255  1.100     -0.107070      0.392140      0.040035
    3   H      3    1.4430  1.100     -1.421886      1.756939     -0.974565
    4   H      4    1.4430  1.100     -1.298151      2.027012      0.768414
    5   O      5    1.7500  1.100     -2.521697      0.500503      0.270524
    6   O      6    1.7500  1.100      1.058541      1.148803     -0.233983
    7   H      7    1.4430  1.100     -0.165003     -0.377702     -0.731886
    8   H      8    1.4430  1.100     -0.041275     -0.107639      1.011094
    9   H      9    1.4430  1.100     -2.672704     -0.107095     -0.460885
   10   H     10    1.4430  1.100      1.209541      1.756403      0.497426
 ------------------------------------------------------------------------------
 One-electron integrals computed using PRISM.
   1 Symmetry operations used in ECPInt.
 ECPInt:  NShTT=    2346 NPrTT=    6892 LenC2=    2326 LenP2D=    5850.
 LDataN:  DoStor=T MaxTD1= 6 Len=  172
 NBasis=   160 RedAO= T EigKep=  4.83D-04  NBF=   160
 NBsUse=   160 1.00D-06 EigRej= -1.00D+00 NBFU=   160
 Initial guess from the checkpoint file:  "/oasis/scratch/comet/mayes/temp_project/ethygly2_tzvp.chk"
 B after Tr=     0.000605    0.000561   -0.000398
         Rot=    1.000000   -0.000021   -0.000116   -0.000200 Ang=  -0.03 deg.
 Keep R1 ints in memory in canonical form, NReq=107202126.
 Requested convergence on RMS density matrix=1.00D-08 within  32 cycles.
 Requested convergence on MAX density matrix=1.00D-06.
 Requested convergence on             energy=1.00D-06.
 No special actions if energy rises.
 Inv3:  Mode=1 IEnd=     5812992.
 Iteration    1 A*A^-1 deviation from unit magnitude is 3.77D-15 for    594.
 Iteration    1 A*A^-1 deviation from orthogonality  is 1.57D-15 for   1332    398.
 Iteration    1 A^-1*A deviation from unit magnitude is 3.11D-15 for    594.
 Iteration    1 A^-1*A deviation from orthogonality  is 2.19D-15 for   1317    308.
 Error on total polarization charges =  0.00791
 SCF Done:  E(RM062X) =  -230.257454167     A.U. after    7 cycles
            NFock=  7  Conv=0.91D-08     -V/T= 2.0045
 QCSCF skips out because SCF is already converged.
   1 Symmetry operations used in ECPInt.
 ECPInt:  NShTT=    2346 NPrTT=    6892 LenC2=    2326 LenP2D=    5850.
 LDataN:  DoStor=T MaxTD1= 7 Len=  274
 D1PCM: PCM CHGder 1st derivatives, ID1Alg=3 FixD1E=F DoIter=F DoCFld=F I1PDM=0.
 Calling FoFJK, ICntrl=      2127 FMM=F ISym2X=0 I1Cent= 0 IOpClX= 0 NMat=1 NMatS=1 NMatT=0.
 -------------------------------------------------------------------
 Center     Atomic                   Forces (Hartrees/Bohr)
 Number     Number              X              Y              Z
 -------------------------------------------------------------------
      1        6           0.000021037    0.000010324    0.000008074
      2        6          -0.000020914   -0.000010382   -0.000008163
      3        1           0.000000891    0.000020362    0.000004966
      4        1           0.000016037    0.000003347    0.000020480
      5        8          -0.000010805    0.000002025    0.000017712
      6        8           0.000010761   -0.000001898   -0.000017727
      7        1          -0.000016093   -0.000003381   -0.000020405
      8        1          -0.000000942   -0.000020353   -0.000004894
      9        1          -0.000016126    0.000024528    0.000006441
     10        1           0.000016154   -0.000024573   -0.000006484
 -------------------------------------------------------------------
 Cartesian Forces:  Max     0.000024573 RMS     0.000014327

 GradGradGradGradGradGradGradGradGradGradGradGradGradGradGradGradGradGrad
 Berny optimization.
 Using GEDIIS/GDIIS optimizer.
 FormGI is forming the generalized inverse of G from B-inverse, IUseBI=4.
 Internal  Forces:  Max     0.000017637 RMS     0.000005151
 Search for a local minimum.
 Step number   3 out of a maximum of   48
 All quantities printed in internal units (Hartrees-Bohrs-Radians)
 Mixed Optimization -- En-DIIS/RFO-DIIS
 Swapping is turned off.
 Update second derivatives using D2CorX and points    1    2    3
 DE= -1.05D-06 DEPred=-1.02D-06 R= 1.03D+00
 TightC=F SS=  1.41D+00  RLast= 1.25D-02 DXNew= 5.0454D-01 3.7586D-02
 Trust test= 1.03D+00 RLast= 1.25D-02 DXMaxT set to 3.00D-01
 ITU=  1  1  0
     Eigenvalues ---    0.00266   0.00296   0.00335   0.04674   0.04906
     Eigenvalues ---    0.05238   0.06569   0.09398   0.10654   0.12088
     Eigenvalues ---    0.14918   0.16478   0.17427   0.17484   0.26026
     Eigenvalues ---    0.29714   0.32842   0.33179   0.33876   0.34211
     Eigenvalues ---    0.40742   0.42640   0.53889   0.53890
 En-DIIS/RFO-DIIS/Sim-DIIS IScMMF=       -3 using points:     3    2
 RFO step:  Lambda=-3.01301405D-09.
 DidBck=F Rises=F RFO-DIIS coefs:    1.12671   -0.12671
 Iteration  1 RMS(Cart)=  0.00019920 RMS(Int)=  0.00000007
 Iteration  2 RMS(Cart)=  0.00000006 RMS(Int)=  0.00000002
 Variable       Old X    -DE/DX   Delta X   Delta X   Delta X     New X
                                 (Linear)    (Quad)   (Total)
    R1        2.87226  -0.00000  -0.00001   0.00000  -0.00001   2.87225
    R2        2.06756   0.00001  -0.00007   0.00009   0.00002   2.06758
    R3        2.06307   0.00001  -0.00008   0.00009   0.00001   2.06309
    R4        2.67667   0.00002   0.00016  -0.00009   0.00006   2.67673
    R5        2.67667   0.00002   0.00016  -0.00009   0.00006   2.67673
    R6        2.06307   0.00001  -0.00008   0.00009   0.00001   2.06309
    R7        2.06756   0.00001  -0.00007   0.00009   0.00002   2.06758
    R8        1.81938   0.00000  -0.00002   0.00002  -0.00000   1.81938
    R9        1.81938   0.00000  -0.00002   0.00002  -0.00000   1.81938
    A1        1.91220   0.00000   0.00004  -0.00003   0.00001   1.91221
    A2        1.91501   0.00000   0.00007  -0.00004   0.00002   1.91504
    A3        1.94623  -0.00000  -0.00009   0.00006  -0.00004   1.94619
    A4        1.88454  -0.00000   0.00010  -0.00009   0.00001   1.88455
    A5        1.94575   0.00000  -0.00006   0.00006  -0.00000   1.94575
    A6        1.85832  -0.00000  -0.00005   0.00004  -0.00001   1.85832
    A7        1.94623  -0.00000  -0.00009   0.00006  -0.00004   1.94619
    A8        1.91501   0.00000   0.00007  -0.00004   0.00002   1.91504
    A9        1.91220   0.00000   0.00004  -0.00003   0.00001   1.91221
   A10        1.85832  -0.00000  -0.00005   0.00004  -0.00001   1.85832
   A11        1.94575   0.00000  -0.00006   0.00006  -0.00000   1.94575
   A12        1.88454  -0.00000   0.00010  -0.00010   0.00001   1.88455
   A13        1.89571   0.00000  -0.00001   0.00002   0.00000   1.89572
   A14        1.89571   0.00000  -0.00001   0.00002   0.00000   1.89572
    D1        0.97907  -0.00000   0.00011  -0.00010   0.00001   0.97908
    D2       -1.07547   0.00000   0.00019  -0.00016   0.00003  -1.07544
    D3       -3.14159  -0.00000  -0.00000  -0.00000  -0.00001  -3.14159
    D4       -1.08705  -0.00000  -0.00008   0.00006  -0.00002  -1.08707
    D5       -3.14159  -0.00000  -0.00000  -0.00000  -0.00001  -3.14159
    D6        1.07548  -0.00000  -0.00019   0.00015  -0.00004   1.07544
    D7       -3.14159  -0.00000  -0.00000  -0.00000  -0.00001  -3.14159
    D8        1.08706   0.00000   0.00007  -0.00007   0.00001   1.08707
    D9       -0.97906   0.00000  -0.00012   0.00009  -0.00002  -0.97908
   D10       -1.19258  -0.00000  -0.00059  -0.00007  -0.00066  -1.19324
   D11        0.95087  -0.00000  -0.00065  -0.00002  -0.00067   0.95020
   D12        3.00220  -0.00000  -0.00059  -0.00008  -0.00067   3.00154
   D13        1.19257   0.00000   0.00060   0.00006   0.00067   1.19324
   D14       -3.00221   0.00000   0.00060   0.00007   0.00067  -3.00154
   D15       -0.95088   0.00000   0.00066   0.00002   0.00068  -0.95020
         Item               Value     Threshold  Converged?
 Maximum Force            0.000018     0.000450     YES
 RMS     Force            0.000005     0.000300     YES
 Maximum Displacement     0.000520     0.001800     YES
 RMS     Displacement     0.000199     0.001200     YES
 Predicted change in Energy=-5.500912D-09
 Optimization completed.
    -- Stationary point found.
                           ----------------------------
                           !   Optimized Parameters   !
                           ! (Angstroms and Degrees)  !
 --------------------------                            --------------------------
 ! Name  Definition              Value          Derivative Info.                !
 --------------------------------------------------------------------------------
 ! R1    R(1,2)                  1.5199         -DE/DX =    0.0                 !
 ! R2    R(1,3)                  1.0941         -DE/DX =    0.0                 !
 ! R3    R(1,4)                  1.0917         -DE/DX =    0.0                 !
 ! R4    R(1,5)                  1.4164         -DE/DX =    0.0                 !
 ! R5    R(2,6)                  1.4164         -DE/DX =    0.0                 !
 ! R6    R(2,7)                  1.0917         -DE/DX =    0.0                 !
 ! R7    R(2,8)                  1.0941         -DE/DX =    0.0                 !
 ! R8    R(5,9)                  0.9628         -DE/DX =    0.0                 !
 ! R9    R(6,10)                 0.9628         -DE/DX =    0.0                 !
 ! A1    A(2,1,3)              109.561          -DE/DX =    0.0                 !
 ! A2    A(2,1,4)              109.7221         -DE/DX =    0.0                 !
 ! A3    A(2,1,5)              111.5105         -DE/DX =    0.0                 !
 ! A4    A(3,1,4)              107.9764         -DE/DX =    0.0                 !
 ! A5    A(3,1,5)              111.4835         -DE/DX =    0.0                 !
 ! A6    A(4,1,5)              106.4741         -DE/DX =    0.0                 !
 ! A7    A(1,2,6)              111.5106         -DE/DX =    0.0                 !
 ! A8    A(1,2,7)              109.7222         -DE/DX =    0.0                 !
 ! A9    A(1,2,8)              109.561          -DE/DX =    0.0                 !
 ! A10   A(6,2,7)              106.474          -DE/DX =    0.0                 !
 ! A11   A(6,2,8)              111.4835         -DE/DX =    0.0                 !
 ! A12   A(7,2,8)              107.9764         -DE/DX =    0.0                 !
 ! A13   A(1,5,9)              108.6164         -DE/DX =    0.0                 !
 ! A14   A(2,6,10)             108.6164         -DE/DX =    0.0                 !
 ! D1    D(3,1,2,6)             56.0965         -DE/DX =    0.0                 !
 ! D2    D(3,1,2,7)            -61.6198         -DE/DX =    0.0                 !
 ! D3    D(3,1,2,8)           -179.9996         -DE/DX =    0.0                 !
 ! D4    D(4,1,2,6)            -62.2833         -DE/DX =    0.0                 !
 ! D5    D(4,1,2,7)           -179.9996         -DE/DX =    0.0                 !
 ! D6    D(4,1,2,8)             61.6205         -DE/DX =    0.0                 !
 ! D7    D(5,1,2,6)           -179.9996         -DE/DX =    0.0                 !
 ! D8    D(5,1,2,7)             62.2841         -DE/DX =    0.0                 !
 ! D9    D(5,1,2,8)            -56.0958         -DE/DX =    0.0                 !
 ! D10   D(2,1,5,9)            -68.3298         -DE/DX =    0.0                 !
 ! D11   D(3,1,5,9)             54.4808         -DE/DX =    0.0                 !
 ! D12   D(4,1,5,9)            172.0136         -DE/DX =    0.0                 !
 ! D13   D(1,2,6,10)            68.3293         -DE/DX =    0.0                 !
 ! D14   D(7,2,6,10)          -172.0141         -DE/DX =    0.0                 !
 ! D15   D(8,2,6,10)           -54.4813         -DE/DX =    0.0                 !
 --------------------------------------------------------------------------------
 GradGradGradGradGradGradGradGradGradGradGradGradGradGradGradGradGradGrad

                          Input orientation:                          
 ---------------------------------------------------------------------
 Center     Atomic      Atomic             Coordinates (Angstroms)
 Number     Number       Type             X           Y           Z
 ---------------------------------------------------------------------
      1          6           0       -1.356087    1.257166   -0.003503
      2          6           0       -0.107070    0.392140    0.040035
      3          1           0       -1.421886    1.756939   -0.974565
      4          1           0       -1.298151    2.027012    0.768414
      5          8           0       -2.521697    0.500503    0.270524
      6          8           0        1.058541    1.148803   -0.233983
      7          1           0       -0.165003   -0.377702   -0.731886
      8          1           0       -0.041275   -0.107639    1.011094
      9          1           0       -2.672704   -0.107095   -0.460885
     10          1           0        1.209541    1.756403    0.497426
 ---------------------------------------------------------------------
                    Distance matrix (angstroms):
                    1          2          3          4          5
     1  C    0.000000
     2  C    1.519937   0.000000
     3  H    1.094104   2.149612   0.000000
     4  H    1.091730   2.149887   1.768113   0.000000
     5  O    1.416431   2.428022   2.082897   2.018710   0.000000
     6  O    2.428022   1.416431   2.659099   2.707406   3.673272
     7  H    2.149888   1.091730   2.489044   3.052470   2.707412
     8  H    2.149611   1.094104   3.053781   2.489049   2.659093
     9  H    1.950356   2.661322   2.302833   2.820458   0.962776
    10  H    2.661318   1.950355   3.015156   2.536766   3.943464
                    6          7          8          9         10
     6  O    0.000000
     7  H    2.018709   0.000000
     8  H    2.082897   1.768113   0.000000
     9  H    3.943470   2.536777   3.015152   0.000000
    10  H    0.962776   2.820458   2.302835   4.411668   0.000000
 Symmetry turned off by external request.
 Stoichiometry    C2H6O2
 Framework group  C1[X(C2H6O2)]
 Deg. of freedom    24
 Full point group                 C1      NOp   1
 Rotational constants (GHZ):          29.4987448           3.9409111           3.7004177

 **********************************************************************

            Population analysis using the SCF Density.

 **********************************************************************

 Alpha  occ. eigenvalues --  -19.63131 -19.63131 -10.58129 -10.58090  -1.15760
 Alpha  occ. eigenvalues --   -1.14615  -0.83300  -0.71993  -0.60103  -0.58787
 Alpha  occ. eigenvalues --   -0.54267  -0.50330  -0.47488  -0.45005  -0.39206
 Alpha  occ. eigenvalues --   -0.38876  -0.34202
 Alpha virt. eigenvalues --    0.06734   0.06923   0.11756   0.13075   0.14415
 Alpha virt. eigenvalues --    0.17646   0.19680   0.21111   0.23551   0.24904
 Alpha virt. eigenvalues --    0.30865   0.32098   0.32702   0.36267   0.40383
 Alpha virt. eigenvalues --    0.41380   0.41737   0.45236   0.45706   0.48633
 Alpha virt. eigenvalues --    0.50582   0.52651   0.55588   0.56564   0.59989
 Alpha virt. eigenvalues --    0.60439   0.62290   0.64500   0.67515   0.77733
 Alpha virt. eigenvalues --    0.82132   0.82500   0.86756   0.87939   0.91186
 Alpha virt. eigenvalues --    0.97482   1.04744   1.09306   1.09556   1.21270
 Alpha virt. eigenvalues --    1.24938   1.37269   1.40074   1.47017   1.48956
 Alpha virt. eigenvalues --    1.51985   1.54079   1.56879   1.61617   1.62077
 Alpha virt. eigenvalues --    1.64065   1.66034   1.77327   1.82651   1.83681
 Alpha virt. eigenvalues --    1.85708   1.87389   1.90020   1.91053   1.96784
 Alpha virt. eigenvalues --    2.02537   2.05888   2.09160   2.12758   2.21518
 Alpha virt. eigenvalues --    2.26104   2.27580   2.31448   2.32613   2.34588
 Alpha virt. eigenvalues --    2.37049   2.38777   2.47729   2.49007   2.51030
 Alpha virt. eigenvalues --    2.61365   2.62231   2.63881   2.68100   2.72099
 Alpha virt. eigenvalues --    2.72157   2.80513   2.82851   2.86287   2.92035
 Alpha virt. eigenvalues --    2.98343   3.00362   3.05942   3.09384   3.13676
 Alpha virt. eigenvalues --    3.14961   3.19662   3.22009   3.29155   3.30952
 Alpha virt. eigenvalues --    3.34911   3.37116   3.37456   3.50685   3.53535
 Alpha virt. eigenvalues --    3.53868   3.76413   3.84409   3.84474   3.87103
 Alpha virt. eigenvalues --    3.89868   3.95622   4.10090   4.19840   4.21164
 Alpha virt. eigenvalues --    4.39843   4.45978   4.53350   4.66649   4.70166
 Alpha virt. eigenvalues --    5.26134   5.26677   5.32509   5.37588   5.46025
 Alpha virt. eigenvalues --    5.47051   5.66490   5.70374   5.78402   5.80426
 Alpha virt. eigenvalues --    5.86771   5.91927   6.25175   6.25617   6.43700
 Alpha virt. eigenvalues --    6.44931   6.64645   6.65091   6.72329   6.79595
 Alpha virt. eigenvalues --    6.92332   6.95325   7.09261   7.12851  22.47461
 Alpha virt. eigenvalues --   22.58547  43.84632  43.91458
          Condensed to atoms (all electrons):
               1          2          3          4          5          6
     1  C    4.904702   0.334584   0.421701   0.395546   0.217863  -0.045958
     2  C    0.334584   4.904703  -0.056716  -0.041990  -0.045958   0.217862
     3  H    0.421701  -0.056716   0.592765  -0.047608  -0.039021   0.010270
     4  H    0.395546  -0.041990  -0.047608   0.579101  -0.033250   0.001672
     5  O    0.217863  -0.045958  -0.039021  -0.033250   8.099411   0.005920
     6  O   -0.045958   0.217862   0.010270   0.001672   0.005920   8.099412
     7  H   -0.041990   0.395546  -0.013962   0.010561   0.001672  -0.033251
     8  H   -0.056716   0.421701   0.012697  -0.013962   0.010270  -0.039021
     9  H   -0.036230  -0.005907  -0.009582   0.009703   0.304253   0.000166
    10  H   -0.005907  -0.036231  -0.001116   0.005118   0.000166   0.304253
               7          8          9         10
     1  C   -0.041990  -0.056716  -0.036230  -0.005907
     2  C    0.395546   0.421701  -0.005907  -0.036231
     3  H   -0.013962   0.012697  -0.009582  -0.001116
     4  H    0.010561  -0.013962   0.009703   0.005118
     5  O    0.001672   0.010270   0.304253   0.000166
     6  O   -0.033251  -0.039021   0.000166   0.304253
     7  H    0.579101  -0.047608   0.005118   0.009703
     8  H   -0.047608   0.592765  -0.001116  -0.009581
     9  H    0.005118  -0.001116   0.390337   0.000020
    10  H    0.009703  -0.009581   0.000020   0.390337
 Mulliken charges:
               1
     1  C   -0.087595
     2  C   -0.087594
     3  H    0.130572
     4  H    0.135110
     5  O   -0.521327
     6  O   -0.521327
     7  H    0.135110
     8  H    0.130572
     9  H    0.343239
    10  H    0.343239
 Sum of Mulliken charges =  -0.00000
 Mulliken charges with hydrogens summed into heavy atoms:
               1
     1  C    0.178088
     2  C    0.178088
     5  O   -0.178088
     6  O   -0.178088
 Electronic spatial extent (au):  <R**2>=            490.7955
 Charge=             -0.0000 electrons
 Dipole moment (field-independent basis, Debye):
    X=             -0.0000    Y=              0.0000    Z=             -0.0000  Tot=              0.0000
 Quadrupole moment (field-independent basis, Debye-Ang):
   XX=            -30.8927   YY=            -22.3999   ZZ=            -24.2851
   XY=              2.5216   XZ=              6.8300   YZ=              3.1525
 Traceless Quadrupole moment (field-independent basis, Debye-Ang):
   XX=             -5.0335   YY=              3.4593   ZZ=              1.5742
   XY=              2.5216   XZ=              6.8300   YZ=              3.1525
 Octapole moment (field-independent basis, Debye-Ang**2):
  XXX=             67.8012  YYY=            -55.4165  ZZZ=             -1.3309  XYY=             20.5462
  XXY=            -29.1653  XXZ=            -10.5578  XZZ=             18.0160  YZZ=            -19.9116
  YYZ=              4.7903  XYZ=              3.3722
 Hexadecapole moment (field-independent basis, Debye-Ang**3):
 XXXX=           -421.4750 YYYY=           -157.7012 ZZZZ=            -41.9670 XXXY=             67.2001
 XXXZ=             50.0682 YYYX=             40.6445 YYYZ=             11.4635 ZZZX=             15.4279
 ZZZY=              2.3625 XXYY=            -88.9089 XXZZ=            -69.0033 YYZZ=            -32.7327
 XXYZ=              4.0172 YYXZ=              9.5230 ZZXY=             11.2196
 N-N= 1.303173489042D+02 E-N=-8.012192937957D+02  KE= 2.292276905190D+02
 1\1\GINC-COMET-14-02\FOpt\RM062X\def2TZVP\C2H6O2\MAYES\06-Aug-2019\0\\
 # geom=allcheck guess=read m062x/Def2TZVP nosymm scf=xqc opt=ReadFC fr
 eq=NoRaman SCRF=(Solvent=1,2-EthaneDiol,Read) CPHF=Grid=Fine\\conforma
 tion testing of ethylene glycol\\0,1\C,-1.356086967,1.2571656678,-0.00
 35028538\C,-0.1070701595,0.3921397891,0.0400347262\H,-1.4218856619,1.7
 569393803,-0.9745646886\H,-1.2981508656,2.0270116758,0.7684139159\O,-2
 .5216970874,0.5005031738,0.2705236065\O,1.0585411454,1.1488034885,-0.2
 339834346\H,-0.1650025972,-0.3777021779,-0.7318863584\H,-0.0412749115,
 -0.1076387257,1.0110942575\H,-2.6727038664,-0.1070953617,-0.4608852882
 \H,1.2095409712,1.75640309,0.4974261175\\Version=ES64L-G16RevB.01\HF=-
 230.2574542\RMSD=9.116e-09\RMSF=1.433e-05\Dipole=-0.0000064,0.,-0.0000
 04\Quadrupole=-3.7422657,2.5719199,1.1703457,1.874734,5.0779645,2.3438
 261\PG=C01 [X(C2H6O2)]\\@


 HE WHO LAUGHS LAST PROBABLY DIDN'T GET THE JOKE.
 Job cpu time:       0 days  0 hours  9 minutes 41.4 seconds.
 Elapsed time:       0 days  0 hours  0 minutes 28.3 seconds.
 File lengths (MBytes):  RWF=     50 Int=      0 D2E=      0 Chk=      9 Scr=      1
 Normal termination of Gaussian 16 at Tue Aug  6 20:46:14 2019.
 Link1:  Proceeding to internal job step number  2.
 --------------------------------------------------------------------
 #N Geom=AllCheck Guess=TCheck SCRF=Check GenChk RM062X/def2TZVP Freq
 --------------------------------------------------------------------
 1/10=4,29=7,30=1,38=1,40=1/1,3;
 2/12=2,15=1,40=1/2;
 3/5=44,7=101,11=2,14=-4,25=1,30=1,70=2,71=2,74=-55,116=1,140=1/1,2,3;
 4/5=101/1;
 5/5=2,8=3,13=1,38=6,98=1/2,8;
 8/6=4,10=90,11=11/1;
 11/6=1,8=1,9=11,15=111,16=1,31=1/1,2,10;
 10/6=1,31=1,60=4/2;
 6/7=2,8=2,9=2,10=2,28=1/1;
 7/8=1,10=1,25=1,30=1/1,2,3,16;
 1/10=4,30=1/3;
 99//99;
 Structure from the checkpoint file:  "/oasis/scratch/comet/mayes/temp_project/ethygly2_tzvp.chk"
 ---------------------------------------
 conformation testing of ethylene glycol
 ---------------------------------------
 Charge =  0 Multiplicity = 1
 Redundant internal coordinates found in file.  (old form).
 C,0,-1.356086967,1.2571656678,-0.0035028538
 C,0,-0.1070701595,0.3921397891,0.0400347262
 H,0,-1.4218856619,1.7569393803,-0.9745646886
 H,0,-1.2981508656,2.0270116758,0.7684139159
 O,0,-2.5216970874,0.5005031738,0.2705236065
 O,0,1.0585411454,1.1488034885,-0.2339834346
 H,0,-0.1650025972,-0.3777021779,-0.7318863584
 H,0,-0.0412749115,-0.1076387257,1.0110942575
 H,0,-2.6727038664,-0.1070953617,-0.4608852882
 H,0,1.2095409712,1.75640309,0.4974261175
 Recover connectivity data from disk.

 GradGradGradGradGradGradGradGradGradGradGradGradGradGradGradGradGradGrad
 Berny optimization.
 Initialization pass.
                           ----------------------------
                           !    Initial Parameters    !
                           ! (Angstroms and Degrees)  !
 --------------------------                            --------------------------
 ! Name  Definition              Value          Derivative Info.                !
 --------------------------------------------------------------------------------
 ! R1    R(1,2)                  1.5199         calculate D2E/DX2 analytically  !
 ! R2    R(1,3)                  1.0941         calculate D2E/DX2 analytically  !
 ! R3    R(1,4)                  1.0917         calculate D2E/DX2 analytically  !
 ! R4    R(1,5)                  1.4164         calculate D2E/DX2 analytically  !
 ! R5    R(2,6)                  1.4164         calculate D2E/DX2 analytically  !
 ! R6    R(2,7)                  1.0917         calculate D2E/DX2 analytically  !
 ! R7    R(2,8)                  1.0941         calculate D2E/DX2 analytically  !
 ! R8    R(5,9)                  0.9628         calculate D2E/DX2 analytically  !
 ! R9    R(6,10)                 0.9628         calculate D2E/DX2 analytically  !
 ! A1    A(2,1,3)              109.561          calculate D2E/DX2 analytically  !
 ! A2    A(2,1,4)              109.7221         calculate D2E/DX2 analytically  !
 ! A3    A(2,1,5)              111.5105         calculate D2E/DX2 analytically  !
 ! A4    A(3,1,4)              107.9764         calculate D2E/DX2 analytically  !
 ! A5    A(3,1,5)              111.4835         calculate D2E/DX2 analytically  !
 ! A6    A(4,1,5)              106.4741         calculate D2E/DX2 analytically  !
 ! A7    A(1,2,6)              111.5106         calculate D2E/DX2 analytically  !
 ! A8    A(1,2,7)              109.7222         calculate D2E/DX2 analytically  !
 ! A9    A(1,2,8)              109.561          calculate D2E/DX2 analytically  !
 ! A10   A(6,2,7)              106.474          calculate D2E/DX2 analytically  !
 ! A11   A(6,2,8)              111.4835         calculate D2E/DX2 analytically  !
 ! A12   A(7,2,8)              107.9764         calculate D2E/DX2 analytically  !
 ! A13   A(1,5,9)              108.6164         calculate D2E/DX2 analytically  !
 ! A14   A(2,6,10)             108.6164         calculate D2E/DX2 analytically  !
 ! D1    D(3,1,2,6)             56.0965         calculate D2E/DX2 analytically  !
 ! D2    D(3,1,2,7)            -61.6198         calculate D2E/DX2 analytically  !
 ! D3    D(3,1,2,8)           -179.9996         calculate D2E/DX2 analytically  !
 ! D4    D(4,1,2,6)            -62.2833         calculate D2E/DX2 analytically  !
 ! D5    D(4,1,2,7)           -179.9996         calculate D2E/DX2 analytically  !
 ! D6    D(4,1,2,8)             61.6205         calculate D2E/DX2 analytically  !
 ! D7    D(5,1,2,6)           -179.9996         calculate D2E/DX2 analytically  !
 ! D8    D(5,1,2,7)             62.2841         calculate D2E/DX2 analytically  !
 ! D9    D(5,1,2,8)            -56.0958         calculate D2E/DX2 analytically  !
 ! D10   D(2,1,5,9)            -68.3298         calculate D2E/DX2 analytically  !
 ! D11   D(3,1,5,9)             54.4808         calculate D2E/DX2 analytically  !
 ! D12   D(4,1,5,9)            172.0136         calculate D2E/DX2 analytically  !
 ! D13   D(1,2,6,10)            68.3293         calculate D2E/DX2 analytically  !
 ! D14   D(7,2,6,10)          -172.0141         calculate D2E/DX2 analytically  !
 ! D15   D(8,2,6,10)           -54.4813         calculate D2E/DX2 analytically  !
 --------------------------------------------------------------------------------
 Trust Radius=3.00D-01 FncErr=1.00D-07 GrdErr=1.00D-07 EigMax=2.50D+02 EigMin=1.00D-04
 Number of steps in this run=      2 maximum allowed number of steps=      2.
 GradGradGradGradGradGradGradGradGradGradGradGradGradGradGradGradGradGrad

                          Input orientation:                          
 ---------------------------------------------------------------------
 Center     Atomic      Atomic             Coordinates (Angstroms)
 Number     Number       Type             X           Y           Z
 ---------------------------------------------------------------------
      1          6           0       -1.356087    1.257166   -0.003503
      2          6           0       -0.107070    0.392140    0.040035
      3          1           0       -1.421886    1.756939   -0.974565
      4          1           0       -1.298151    2.027012    0.768414
      5          8           0       -2.521697    0.500503    0.270524
      6          8           0        1.058541    1.148803   -0.233983
      7          1           0       -0.165003   -0.377702   -0.731886
      8          1           0       -0.041275   -0.107639    1.011094
      9          1           0       -2.672704   -0.107095   -0.460885
     10          1           0        1.209541    1.756403    0.497426
 ---------------------------------------------------------------------
                    Distance matrix (angstroms):
                    1          2          3          4          5
     1  C    0.000000
     2  C    1.519937   0.000000
     3  H    1.094104   2.149612   0.000000
     4  H    1.091730   2.149887   1.768113   0.000000
     5  O    1.416431   2.428022   2.082897   2.018710   0.000000
     6  O    2.428022   1.416431   2.659099   2.707406   3.673272
     7  H    2.149888   1.091730   2.489044   3.052470   2.707412
     8  H    2.149611   1.094104   3.053781   2.489049   2.659093
     9  H    1.950356   2.661322   2.302833   2.820458   0.962776
    10  H    2.661318   1.950355   3.015156   2.536766   3.943464
                    6          7          8          9         10
     6  O    0.000000
     7  H    2.018709   0.000000
     8  H    2.082897   1.768113   0.000000
     9  H    3.943470   2.536777   3.015152   0.000000
    10  H    0.962776   2.820458   2.302835   4.411668   0.000000
 Symmetry turned off by external request.
 Stoichiometry    C2H6O2
 Framework group  C1[X(C2H6O2)]
 Deg. of freedom    24
 Full point group                 C1      NOp   1
 Rotational constants (GHZ):          29.4987448           3.9409111           3.7004177
 Standard basis: def2TZVP (5D, 7F)
   160 basis functions,   252 primitive gaussians,   180 cartesian basis functions
    17 alpha electrons       17 beta electrons
       nuclear repulsion energy       130.3173489042 Hartrees.
 NAtoms=   10 NActive=   10 NUniq=   10 SFac= 1.00D+00 NAtFMM=   60 NAOKFM=F Big=F
 Integral buffers will be    131072 words long.
 Raffenetti 2 integral format.
 Two-electron integral symmetry is turned off.
 Force inversion solution in PCM.
 ------------------------------------------------------------------------------
 Polarizable Continuum Model (PCM)
 =================================
 Model                : PCM.
 Atomic radii         : UFF (Universal Force Field).
 Polarization charges : Total charges.
 Charge compensation  : None.
 Solution method      : Matrix inversion.
 Cavity type          : Scaled VdW (van der Waals Surface) (Alpha=1.100).
 Cavity algorithm     : GePol (No added spheres)
                        Default sphere list used, NSphG=   10.
                        Lebedev-Laikov grids with approx.  7.0 points / Ang**2.
                        Smoothing algorithm: York/Karplus (Gamma=1.0000).
                        Polarization charges: spherical gaussians, with
                                              point-specific exponents (IZeta= 3).
                        Self-potential: point-specific (ISelfS= 7).
                        Self-field    : sphere-specific E.n sum rule (ISelfD= 2).
 1st derivatives      : Analytical E(r).r(x)/FMM algorithm (CHGder, D1EAlg=3).
                        Cavity 1st derivative terms included.
 2nd derivatives      : Analytical E(r).r(xy)/FMM algorithm (CHGder, D2EAlg=3).
                        Cavity 2nd derivative terms included.
 Solvent              : 1,2-EthaneDiol, Eps=  40.245000 Eps(inf)=   2.050051
 ------------------------------------------------------------------------------
 Spheres list:
 ISph  on   Nord     Re0    Alpha      Xe            Ye            Ze
    1   C      1    1.9255  1.100     -1.356087      1.257166     -0.003503
    2   C      2    1.9255  1.100     -0.107070      0.392140      0.040035
    3   H      3    1.4430  1.100     -1.421886      1.756939     -0.974565
    4   H      4    1.4430  1.100     -1.298151      2.027012      0.768414
    5   O      5    1.7500  1.100     -2.521697      0.500503      0.270524
    6   O      6    1.7500  1.100      1.058541      1.148803     -0.233983
    7   H      7    1.4430  1.100     -0.165003     -0.377702     -0.731886
    8   H      8    1.4430  1.100     -0.041275     -0.107639      1.011094
    9   H      9    1.4430  1.100     -2.672704     -0.107095     -0.460885
   10   H     10    1.4430  1.100      1.209541      1.756403      0.497426
 ------------------------------------------------------------------------------
 One-electron integrals computed using PRISM.
   1 Symmetry operations used in ECPInt.
 ECPInt:  NShTT=    2346 NPrTT=    6892 LenC2=    2326 LenP2D=    5850.
 LDataN:  DoStor=T MaxTD1= 6 Len=  172
 NBasis=   160 RedAO= T EigKep=  4.83D-04  NBF=   160
 NBsUse=   160 1.00D-06 EigRej= -1.00D+00 NBFU=   160
 Initial guess from the checkpoint file:  "/oasis/scratch/comet/mayes/temp_project/ethygly2_tzvp.chk"
 B after Tr=     0.000000    0.000000    0.000000
         Rot=    1.000000    0.000000    0.000000    0.000000 Ang=   0.00 deg.
 Keep R1 ints in memory in canonical form, NReq=107202126.
 Requested convergence on RMS density matrix=1.00D-08 within  32 cycles.
 Requested convergence on MAX density matrix=1.00D-06.
 Requested convergence on             energy=1.00D-06.
 No special actions if energy rises.
 Inv3:  Mode=1 IEnd=     5812992.
 Iteration    1 A*A^-1 deviation from unit magnitude is 4.00D-15 for    594.
 Iteration    1 A*A^-1 deviation from orthogonality  is 1.81D-15 for   1332    398.
 Iteration    1 A^-1*A deviation from unit magnitude is 4.22D-15 for    594.
 Iteration    1 A^-1*A deviation from orthogonality  is 2.11D-15 for   1317    308.
 Error on total polarization charges =  0.00791
 SCF Done:  E(RM062X) =  -230.257454167     A.U. after    1 cycles
            NFock=  1  Conv=0.18D-08     -V/T= 2.0045
 QCSCF skips out because SCF is already converged.
 DoSCS=F DFT=T ScalE2(SS,OS)=  1.000000  1.000000
 Range of M.O.s used for correlation:     1   160
 NBasis=   160 NAE=    17 NBE=    17 NFC=     0 NFV=     0
 NROrb=    160 NOA=    17 NOB=    17 NVA=   143 NVB=   143

 **** Warning!!: The largest alpha MO coefficient is  0.13687466D+02

   1 Symmetry operations used in ECPInt.
 ECPInt:  NShTT=    2346 NPrTT=    6892 LenC2=    2326 LenP2D=    5850.
 LDataN:  DoStor=T MaxTD1= 7 Len=  274
[...]
      2        6          -0.000020899   -0.000010389   -0.000008156
      3        1           0.000000893    0.000020366    0.000004965
      4        1           0.000016040    0.000003354    0.000020489
      5        8          -0.000010805    0.000002020    0.000017712
      6        8           0.000010762   -0.000001893   -0.000017727
      7        1          -0.000016095   -0.000003388   -0.000020414
      8        1          -0.000000944   -0.000020357   -0.000004894
      9        1          -0.000016125    0.000024528    0.000006440
     10        1           0.000016153   -0.000024572   -0.000006483
 -------------------------------------------------------------------
 Cartesian Forces:  Max     0.000024572 RMS     0.000014327
 FormGI is forming the generalized inverse of G from B-inverse, IUseBI=4.

 GradGradGradGradGradGradGradGradGradGradGradGradGradGradGradGradGradGrad
 Berny optimization.
 Internal  Forces:  Max     0.000017641 RMS     0.000005153
 Search for a local minimum.
 Step number   1 out of a maximum of    2
 All quantities printed in internal units (Hartrees-Bohrs-Radians)
 Second derivative matrix not updated -- analytic derivatives used.
 ITU=  0
     Eigenvalues ---    0.00242   0.00272   0.00296   0.04655   0.04853
     Eigenvalues ---    0.05243   0.06459   0.09583   0.10496   0.11986
     Eigenvalues ---    0.14867   0.16489   0.17088   0.17170   0.25875
     Eigenvalues ---    0.29393   0.33105   0.33254   0.33867   0.33990
     Eigenvalues ---    0.38323   0.41020   0.53587   0.53592
 Angle between quadratic step and forces=  78.12 degrees.
 Linear search not attempted -- first point.
 Iteration  1 RMS(Cart)=  0.00021255 RMS(Int)=  0.00000008
 Iteration  2 RMS(Cart)=  0.00000007 RMS(Int)=  0.00000000
 Variable       Old X    -DE/DX   Delta X   Delta X   Delta X     New X
                                 (Linear)    (Quad)   (Total)
    R1        2.87226  -0.00000   0.00000  -0.00001  -0.00001   2.87225
    R2        2.06756   0.00001   0.00000   0.00002   0.00002   2.06758
    R3        2.06307   0.00001   0.00000   0.00002   0.00002   2.06309
    R4        2.67667   0.00002   0.00000   0.00006   0.00006   2.67673
    R5        2.67667   0.00002   0.00000   0.00006   0.00006   2.67673
    R6        2.06307   0.00001   0.00000   0.00002   0.00002   2.06309
    R7        2.06756   0.00001   0.00000   0.00002   0.00002   2.06758
    R8        1.81938   0.00000   0.00000  -0.00000  -0.00000   1.81938
    R9        1.81938   0.00000   0.00000  -0.00000  -0.00000   1.81938
    A1        1.91220   0.00000   0.00000   0.00001   0.00001   1.91221
    A2        1.91501   0.00000   0.00000   0.00002   0.00002   1.91504
    A3        1.94623  -0.00000   0.00000  -0.00004  -0.00004   1.94619
    A4        1.88454  -0.00000   0.00000   0.00001   0.00001   1.88455
    A5        1.94575   0.00000   0.00000   0.00000   0.00000   1.94576
    A6        1.85832  -0.00000   0.00000  -0.00000  -0.00000   1.85832
    A7        1.94623  -0.00000   0.00000  -0.00004  -0.00004   1.94619
    A8        1.91501   0.00000   0.00000   0.00002   0.00002   1.91504
    A9        1.91220   0.00000   0.00000   0.00001   0.00001   1.91221
   A10        1.85832  -0.00000   0.00000  -0.00000  -0.00000   1.85832
   A11        1.94575   0.00000   0.00000   0.00000   0.00000   1.94576
   A12        1.88454  -0.00000   0.00000   0.00000   0.00000   1.88455
   A13        1.89571   0.00000   0.00000   0.00001   0.00001   1.89572
   A14        1.89571   0.00000   0.00000   0.00001   0.00001   1.89572
    D1        0.97907  -0.00000   0.00000   0.00001   0.00001   0.97908
    D2       -1.07547   0.00000   0.00000   0.00002   0.00002  -1.07545
    D3       -3.14159  -0.00000   0.00000  -0.00001  -0.00001  -3.14159
    D4       -1.08705  -0.00000   0.00000  -0.00002  -0.00002  -1.08707
    D5       -3.14159  -0.00000   0.00000  -0.00001  -0.00001   3.14159
    D6        1.07548  -0.00000   0.00000  -0.00003  -0.00003   1.07545
    D7       -3.14159  -0.00000   0.00000  -0.00001  -0.00001   3.14159
    D8        1.08706   0.00000   0.00000   0.00001   0.00001   1.08707
    D9       -0.97906   0.00000   0.00000  -0.00002  -0.00002  -0.97908
   D10       -1.19258  -0.00000   0.00000  -0.00071  -0.00071  -1.19329
   D11        0.95087  -0.00000   0.00000  -0.00072  -0.00072   0.95015
   D12        3.00220  -0.00000   0.00000  -0.00071  -0.00071   3.00149
   D13        1.19257   0.00000   0.00000   0.00072   0.00072   1.19329
   D14       -3.00221   0.00000   0.00000   0.00072   0.00072  -3.00149
   D15       -0.95088   0.00000   0.00000   0.00072   0.00072  -0.95015
         Item               Value     Threshold  Converged?
 Maximum Force            0.000018     0.000450     YES
 RMS     Force            0.000005     0.000300     YES
 Maximum Displacement     0.000555     0.001800     YES
 RMS     Displacement     0.000213     0.001200     YES
 Predicted change in Energy=-5.748945D-09
 Optimization completed.
    -- Stationary point found.
                           ----------------------------
                           !   Optimized Parameters   !
                           ! (Angstroms and Degrees)  !
 --------------------------                            --------------------------
 ! Name  Definition              Value          Derivative Info.                !
 --------------------------------------------------------------------------------
 ! R1    R(1,2)                  1.5199         -DE/DX =    0.0                 !
 ! R2    R(1,3)                  1.0941         -DE/DX =    0.0                 !
 ! R3    R(1,4)                  1.0917         -DE/DX =    0.0                 !
 ! R4    R(1,5)                  1.4164         -DE/DX =    0.0                 !
 ! R5    R(2,6)                  1.4164         -DE/DX =    0.0                 !
 ! R6    R(2,7)                  1.0917         -DE/DX =    0.0                 !
 ! R7    R(2,8)                  1.0941         -DE/DX =    0.0                 !
 ! R8    R(5,9)                  0.9628         -DE/DX =    0.0                 !
 ! R9    R(6,10)                 0.9628         -DE/DX =    0.0                 !
 ! A1    A(2,1,3)              109.561          -DE/DX =    0.0                 !
 ! A2    A(2,1,4)              109.7221         -DE/DX =    0.0                 !
 ! A3    A(2,1,5)              111.5105         -DE/DX =    0.0                 !
 ! A4    A(3,1,4)              107.9764         -DE/DX =    0.0                 !
 ! A5    A(3,1,5)              111.4835         -DE/DX =    0.0                 !
 ! A6    A(4,1,5)              106.4741         -DE/DX =    0.0                 !
 ! A7    A(1,2,6)              111.5106         -DE/DX =    0.0                 !
 ! A8    A(1,2,7)              109.7222         -DE/DX =    0.0                 !
 ! A9    A(1,2,8)              109.561          -DE/DX =    0.0                 !
 ! A10   A(6,2,7)              106.474          -DE/DX =    0.0                 !
 ! A11   A(6,2,8)              111.4835         -DE/DX =    0.0                 !
 ! A12   A(7,2,8)              107.9764         -DE/DX =    0.0                 !
 ! A13   A(1,5,9)              108.6164         -DE/DX =    0.0                 !
 ! A14   A(2,6,10)             108.6164         -DE/DX =    0.0                 !
 ! D1    D(3,1,2,6)             56.0965         -DE/DX =    0.0                 !
 ! D2    D(3,1,2,7)            -61.6198         -DE/DX =    0.0                 !
 ! D3    D(3,1,2,8)           -179.9996         -DE/DX =    0.0                 !
 ! D4    D(4,1,2,6)            -62.2833         -DE/DX =    0.0                 !
 ! D5    D(4,1,2,7)            180.0004         -DE/DX =    0.0                 !
 ! D6    D(4,1,2,8)             61.6205         -DE/DX =    0.0                 !
 ! D7    D(5,1,2,6)            180.0004         -DE/DX =    0.0                 !
 ! D8    D(5,1,2,7)             62.2841         -DE/DX =    0.0                 !
 ! D9    D(5,1,2,8)            -56.0958         -DE/DX =    0.0                 !
 ! D10   D(2,1,5,9)            -68.3298         -DE/DX =    0.0                 !
 ! D11   D(3,1,5,9)             54.4808         -DE/DX =    0.0                 !
 ! D12   D(4,1,5,9)            172.0136         -DE/DX =    0.0                 !
 ! D13   D(1,2,6,10)            68.3293         -DE/DX =    0.0                 !
 ! D14   D(7,2,6,10)          -172.0141         -DE/DX =    0.0                 !
 ! D15   D(8,2,6,10)           -54.4813         -DE/DX =    0.0                 !
 --------------------------------------------------------------------------------
 GradGradGradGradGradGradGradGradGradGradGradGradGradGradGradGradGradGrad


 ----------------------------------------------------------------------

 Electric dipole moment (input orientation):
 (Debye = 10**-18 statcoulomb cm , SI units = C m)
                  (au)            (Debye)         (10**-30 SI)
   Tot        0.000000D+00      0.000000D+00      0.000000D+00
   x          0.000000D+00      0.000000D+00      0.000000D+00
   y          0.000000D+00      0.000000D+00      0.000000D+00
   z          0.000000D+00      0.000000D+00      0.000000D+00

 Dipole polarizability, Alpha (input orientation).
 (esu units = cm**3 , SI units = C**2 m**2 J**-1)
 Alpha(0;0):
               (au)            (10**-24 esu)      (10**-40 SI)
   iso        0.408150D+02      0.604816D+01      0.672949D+01
   aniso      0.590671D+01      0.875284D+00      0.973885D+00
   xx         0.423477D+02      0.627528D+01      0.698219D+01
   yx         0.262473D+01      0.388944D+00      0.432759D+00
   yy         0.414739D+02      0.614580D+01      0.683812D+01
   zx         0.100164D+00      0.148428D-01      0.165149D-01
   zy         0.968245D+00      0.143479D+00      0.159642D+00
   zz         0.386235D+02      0.572341D+01      0.636815D+01

 ----------------------------------------------------------------------

 Dipole orientation:
     6         -1.34068308         -2.35770487          2.20337763
     6         -0.16655035         -0.74050988          0.14037103
     1          0.15376263         -3.27830271          3.29604680
     1         -2.50778164         -3.83130141          1.35328531
     8         -2.96035305         -0.91923476          3.77564132
     8          1.45310754         -2.17898248         -1.43190286
     1          1.00055885          0.73307908          0.99046193
     1         -1.66099590          0.18009713         -0.95229042
     1         -1.94949017          0.24804774          4.73780736
     1          0.44223663         -3.34626691         -2.39405840

 Electric dipole moment (dipole orientation):
 (Debye = 10**-18 statcoulomb cm , SI units = C m)
                  (au)            (Debye)         (10**-30 SI)
   Tot        0.000000D+00      0.000000D+00      0.000000D+00
   x          0.000000D+00      0.000000D+00      0.000000D+00
   y          0.000000D+00      0.000000D+00      0.000000D+00
   z          0.000000D+00      0.000000D+00      0.000000D+00

 Dipole polarizability, Alpha (dipole orientation).
 (esu units = cm**3 , SI units = C**2 m**2 J**-1)
 Alpha(0;0):
               (au)            (10**-24 esu)      (10**-40 SI)
   iso        0.408150D+02      0.604816D+01      0.672949D+01
   aniso      0.590671D+01      0.875284D+00      0.973885D+00
   xx         0.395944D+02      0.586728D+01      0.652823D+01
   yx        -0.609241D+00     -0.902803D-01     -0.100450D+00
   yy         0.415338D+02      0.615468D+01      0.684801D+01
   zx        -0.164503D+01     -0.243768D+00     -0.271228D+00
   zy         0.272456D+01      0.403737D+00      0.449219D+00
   zz         0.413168D+02      0.612252D+01      0.681223D+01

 ----------------------------------------------------------------------
 1\1\GINC-COMET-14-02\Freq\RM062X\def2TZVP\C2H6O2\MAYES\06-Aug-2019\0\\
 #N Geom=AllCheck Guess=TCheck SCRF=Check GenChk RM062X/def2TZVP Freq\\
 conformation testing of ethylene glycol\\0,1\C,-1.356086967,1.25716566
 78,-0.0035028538\C,-0.1070701595,0.3921397891,0.0400347262\H,-1.421885
 6619,1.7569393803,-0.9745646886\H,-1.2981508656,2.0270116758,0.7684139
 159\O,-2.5216970874,0.5005031738,0.2705236065\O,1.0585411454,1.1488034
 885,-0.2339834346\H,-0.1650025972,-0.3777021779,-0.7318863584\H,-0.041
 2749115,-0.1076387257,1.0110942575\H,-2.6727038664,-0.1070953617,-0.46
 08852882\H,1.2095409712,1.75640309,0.4974261175\\Version=ES64L-G16RevB
 .01\HF=-230.2574542\RMSD=1.795e-09\RMSF=1.433e-05\ZeroPoint=0.0859267\
 Thermal=0.0912444\Dipole=-0.0000064,0.,-0.000004\DipoleDeriv=0.760729,
 0.2266087,-0.066898,0.3289475,0.4940569,-0.0891654,-0.036971,-0.046078
 7,0.384249,0.7607282,0.2266094,-0.0668962,0.3289478,0.4940579,-0.08916
 4,-0.036969,-0.0460783,0.3842485,-0.0230402,-0.0135712,-0.016323,-0.00
 89831,-0.0299435,0.0877027,0.0065213,0.1453989,-0.1369686,0.0018172,-0
 .0163353,0.0006242,-0.0237298,-0.0617904,-0.0850094,-0.0126987,-0.1393
 325,-0.0451133,-1.1127883,-0.1998702,0.00347,-0.2740751,-0.7375731,0.1
 53855,-0.0175892,0.1097363,-0.4568764,-1.1127871,-0.1998711,0.0034676,
 -0.2740762,-0.7375739,0.1538537,-0.0175936,0.1097354,-0.4568766,0.0018
 177,-0.0163342,0.0006245,-0.0237292,-0.0617894,-0.0850093,-0.0126982,-
 0.1393325,-0.0451142,-0.0230402,-0.0135719,-0.0163226,-0.0089834,-0.02
 99447,0.0877032,0.0065219,0.1453993,-0.136968,0.3732822,0.0031677,0.07
 91264,-0.0221595,0.3352503,-0.0673831,0.0607379,-0.0697237,0.2547095,0
 .3732814,0.0031681,0.0791271,-0.0221592,0.3352499,-0.0673834,0.0607387
 ,-0.0697242,0.25471\Polar=42.3476921,2.6247275,41.4738916,0.1001644,0.
 9682455,38.6234844\Quadrupole=-3.7422652,2.57192,1.1703452,1.8747343,5
 .0779647,2.343826\PG=C01 [X(C2H6O2)]\NImag=0\\0.47100620,0.00487724,0.
 56733907,0.01290717,0.02619345,0.63021779,-0.13987768,0.07450951,-0.00
 956818,0.47100608,0.07450947,-0.14200973,0.00268152,0.00487684,0.56733
 894,-0.00956830,0.00268148,-0.08771874,0.01290636,0.02619313,0.6302182
 6,-0.05164622,0.01198120,-0.02619393,-0.00292409,0.01323886,-0.0258654
 8,0.06129153,0.01281324,-0.09903199,0.09300425,0.00380322,-0.00986910,
 0.02088196,-0.00664744,0.10911816,-0.02261509,0.09699183,-0.25997480,0
 .00168091,0.00024723,-0.00127234,0.01848377,-0.11196778,0.27587787,-0.
 04788714,0.00128361,-0.00136459,0.00018834,0.02108230,0.02144110,0.001
 32990,-0.00159808,-0.00315374,0.06187080,-0.00481776,-0.17249663,-0.12
 613705,0.00003216,-0.01571598,-0.01632755,0.00128369,0.01125686,0.0096
 8371,0.01230080,0.19378926,-0.00884865,-0.13330980,-0.19367954,-0.0012
 8947,0.00165190,0.00192245,-0.00055092,-0.01953753,-0.01915837,0.00738
 995,0.14286583,0.19846603,-0.18596194,-0.06560554,0.05002135,-0.031126
 66,-0.03284042,0.00899075,-0.00894295,-0.01043378,0.00633141,-0.010389
 14,-0.00977458,-0.00030205,0.28552831,-0.09102344,-0.12058904,0.020513
 87,0.00457485,0.00795356,-0.00299233,-0.02323169,-0.01258835,0.0061545
 4,-0.02987449,-0.01697216,0.00532748,0.18183089,0.34479069,0.01972909,
 -0.00512258,-0.09723443,0.00291203,0.00064042,0.00125369,0.03161223,0.
 01785107,0.00029543,-0.02394451,-0.01355892,0.00834952,-0.00826377,0.2
 2925839,0.40793226,-0.03112663,-0.03284045,0.00899055,-0.18596222,-0.0
 6560546,0.05002075,0.00274592,-0.00044520,-0.00136093,0.00314309,0.000
 03400,0.00121187,-0.01756141,0.00292658,0.00023859,0.28552778,0.004574
 87,0.00795351,-0.00299237,-0.09102367,-0.12058931,0.02051327,-0.000887
 34,0.00159287,-0.00112934,-0.00049267,0.00206381,0.00109800,0.00292660
 ,0.00108334,0.00016020,0.18182881,0.34479185,0.00291198,0.00064029,0.0
 0125370,0.01972843,-0.00512299,-0.09723388,0.00095070,-0.00151565,0.00
 075615,-0.00083908,0.00144876,0.00032329,0.00023860,0.00016021,0.00271
 345,-0.00826565,0.22925980,0.40793153,0.00018834,0.02108227,0.02144119
 ,-0.04788710,0.00128423,-0.00136393,0.00132675,-0.00102188,-0.00037687
 ,-0.00472710,0.00289360,-0.00033070,0.00314304,-0.00049271,-0.00083913
 ,-0.01038900,-0.02987445,-0.02394470,0.06187062,0.00003221,-0.01571589
 ,-0.01632754,-0.00481716,-0.17249520,-0.12613692,-0.00061504,0.0007898
 2,0.00023802,0.00289359,-0.00149890,0.00045058,0.00003407,0.00206377,0
 .00144873,-0.00977449,-0.01697222,-0.01355911,0.01230007,0.19378775,-0
 .00128950,0.00165193,0.00192247,-0.00884803,-0.13330974,-0.19368097,0.
 00064449,-0.00005917,0.00095264,-0.00033070,0.00045060,0.00162620,0.00
 121188,0.00109798,0.00032328,-0.00030217,0.00532724,0.00834938,0.00738
 941,0.14286580,0.19846766,-0.00292408,0.01323892,-0.02586541,-0.051645
 96,0.01198104,-0.02619310,-0.00471514,0.00303612,0.00019479,0.00132674
 ,-0.00061503,0.00064449,0.00274595,-0.00088733,0.00095066,-0.00894310,
 -0.02323189,0.03161209,0.00132991,0.00128365,-0.00055083,0.06129140,0.
 00380315,-0.00986917,0.02088198,0.01281311,-0.09903297,0.09300514,0.00
 303612,-0.00188190,0.00034920,-0.00102187,0.00078982,-0.00005917,-0.00
 044527,0.00159289,-0.00151567,-0.01043393,-0.01258845,0.01785098,-0.00
 159798,0.01125691,-0.01953739,-0.00664712,0.10911926,0.00168091,0.0002
 4727,-0.00127237,-0.02261432,0.09699267,-0.25997408,0.00019479,0.00034
 922,0.00151909,-0.00037687,0.00023803,0.00095262,-0.00136090,-0.001129
 37,0.00075617,0.00633137,0.00615442,0.00029572,-0.00315367,0.00968387,
 -0.01915844,0.01848295,-0.11196871,0.27587697,-0.01089759,-0.02661500,
 -0.02821109,-0.00087328,-0.00191173,-0.00215703,0.00146780,0.00037983,
 0.00065986,-0.00407762,-0.00204814,0.00157218,-0.03839460,-0.04484987,
 -0.02323534,0.00095938,0.00102719,0.00084015,-0.00077780,0.00071129,0.
 00050331,0.00006650,0.00011396,0.00015587,0.05226512,-0.00481153,-0.01
 834481,-0.01859339,0.00004254,0.00276464,0.00077526,0.00178540,0.00070
 405,-0.00066549,-0.00394054,-0.00130799,0.00213248,-0.06673290,-0.2071
 3690,-0.22913408,0.00104093,-0.00019778,-0.00002756,-0.00063261,0.0000
 9194,-0.00061973,0.00005624,-0.00009043,0.00009808,0.07312618,0.223676
 52,0.00566646,0.00860894,0.00626215,-0.00057407,0.00141716,0.00022377,
 0.00077889,0.00110711,0.00110442,0.00171512,0.00178159,0.00164360,-0.0
 5799021,-0.25840644,-0.32432797,0.00112293,0.00001565,-0.00006138,-0.0
 0053666,-0.00044498,-0.00044585,-0.00005454,-0.00011348,-0.00010010,0.
 04996404,0.24610022,0.31578880,-0.00087325,-0.00191175,-0.00215706,-0.
 01089742,-0.02661513,-0.02821113,0.00006651,0.00011396,0.00015588,-0.0
 0077787,0.00071126,0.00050331,0.00095941,0.00102720,0.00084015,-0.0383
 9380,-0.04484745,-0.02323251,-0.00407767,-0.00204820,0.00157214,0.0014
 6777,0.00037982,0.00065987,0.00026210,0.00006631,-0.00009197,0.0522642
 3,0.00004254,0.00276468,0.00077528,-0.00481141,-0.01834484,-0.01859344
 ,0.00005625,-0.00009043,0.00009808,-0.00063266,0.00009191,-0.00061976,
 0.00104093,-0.00019779,-0.00002756,-0.06673079,-0.20713760,-0.22913472
 ,-0.00394053,-0.00130798,0.00213247,0.00178539,0.00070404,-0.00066548,
 0.00006631,-0.00015925,-0.00006578,0.07312398,0.22367726,-0.00057406,0
 .00141718,0.00022377,0.00566634,0.00860871,0.00626184,-0.00005454,-0.0
 0011348,-0.00010010,-0.00053667,-0.00044499,-0.00044581,0.00112293,0.0
 0001566,-0.00006138,-0.05798731,-0.25840687,-0.32432795,0.00171505,0.0
 0178155,0.00164363,0.00077889,0.00110712,0.00110441,-0.00009196,-0.000
 06578,-0.00008745,0.04996132,0.24610092,0.31578902\\-0.00002102,-0.000
 01033,-0.00000807,0.00002090,0.00001039,0.00000816,-0.00000089,-0.0000
 2037,-0.00000497,-0.00001604,-0.00000335,-0.00002049,0.00001081,-0.000
 00202,-0.00001771,-0.00001076,0.00000189,0.00001773,0.00001610,0.00000
 339,0.00002041,0.00000094,0.00002036,0.00000489,0.00001613,-0.00002453
 ,-0.00000644,-0.00001615,0.00002457,0.00000648\\\@


 A COMPLEXITY IS MERELY A DISARRANGEMENT OF SIMPLICITIES.

                                    -- G. O. ABELL IN "EXPLORATION OF THE UNIVERSE"
 Job cpu time:       0 days  0 hours 24 minutes 57.8 seconds.
 Elapsed time:       0 days  0 hours  1 minutes  3.2 seconds.
 File lengths (MBytes):  RWF=     68 Int=      0 D2E=      0 Chk=     10 Scr=      1
 Normal termination of Gaussian 16 at Tue Aug  6 20:47:18 2019.
