 Entering Gaussian System, Link 0=g16
 Initial command:
 /nopt/nrel/apps/gaussian/g16B/g16/l1.exe "/dev/shm/Gau-441641.inp" -scrdir="/dev/shm/"
 Default is to use a total of  36 processors:
                               36 via shared-memory
                                1 via Linda
 Entering Link 1 = /nopt/nrel/apps/gaussian/g16B/g16/l1.exe PID=    441642.
  
 Copyright (c) 1988-2017, Gaussian, Inc.  All Rights Reserved.
  
 This is part of the Gaussian(R) 16 program.  It is based on
 the Gaussian(R) 09 system (copyright 2009, Gaussian, Inc.),
 the Gaussian(R) 03 system (copyright 2003, Gaussian, Inc.),
 the Gaussian(R) 98 system (copyright 1998, Gaussian, Inc.),
 the Gaussian(R) 94 system (copyright 1995, Gaussian, Inc.),
 the Gaussian 92(TM) system (copyright 1992, Gaussian, Inc.),
 the Gaussian 90(TM) system (copyright 1990, Gaussian, Inc.),
 the Gaussian 88(TM) system (copyright 1988, Gaussian, Inc.),
 the Gaussian 86(TM) system (copyright 1986, Carnegie Mellon
 University), and the Gaussian 82(TM) system (copyright 1983,
 Carnegie Mellon University). Gaussian is a federally registered
 trademark of Gaussian, Inc.
  
 This software contains proprietary and confidential information,
 including trade secrets, belonging to Gaussian, Inc.
  
 This software is provided under written license and may be
 used, copied, transmitted, or stored only in accord with that
 written license.
  
 The following legend is applicable only to US Government
 contracts under FAR:
  
                    RESTRICTED RIGHTS LEGEND
  
 Use, reproduction and disclosure by the US Government is
 subject to restrictions as set forth in subparagraphs (a)
 and (c) of the Commercial Computer Software - Restricted
 Rights clause in FAR 52.227-19.
  
 Gaussian, Inc.
 340 Quinnipiac St., Bldg. 40, Wallingford CT 06492
  
  
 ---------------------------------------------------------------
 Warning -- This program may not be used in any manner that
 competes with the business of Gaussian, Inc. or will provide
 assistance to any competitor of Gaussian, Inc.  The licensee
 of this program is prohibited from giving any competitor of
 Gaussian, Inc. access to this program.  By using this program,
 the user acknowledges that Gaussian, Inc. is engaged in the
 business of creating and licensing software in the field of
 computational chemistry and represents and warrants to the
 licensee that it is not a competitor of Gaussian, Inc. and that
 it will not use this program in any manner prohibited above.
 ---------------------------------------------------------------
  

 Cite this work as:
 Gaussian 16, Revision B.01,
 M. J. Frisch, G. W. Trucks, H. B. Schlegel, G. E. Scuseria, 
 M. A. Robb, J. R. Cheeseman, G. Scalmani, V. Barone, 
 G. A. Petersson, H. Nakatsuji, X. Li, M. Caricato, A. V. Marenich, 
 J. Bloino, B. G. Janesko, R. Gomperts, B. Mennucci, H. P. Hratchian, 
 J. V. Ortiz, A. F. Izmaylov, J. L. Sonnenberg, D. Williams-Young, 
 F. Ding, F. Lipparini, F. Egidi, J. Goings, B. Peng, A. Petrone, 
 T. Henderson, D. Ranasinghe, V. G. Zakrzewski, J. Gao, N. Rega, 
 G. Zheng, W. Liang, M. Hada, M. Ehara, K. Toyota, R. Fukuda, 
 J. Hasegawa, M. Ishida, T. Nakajima, Y. Honda, O. Kitao, H. Nakai, 
 T. Vreven, K. Throssell, J. A. Montgomery, Jr., J. E. Peralta, 
 F. Ogliaro, M. J. Bearpark, J. J. Heyd, E. N. Brothers, K. N. Kudin, 
 V. N. Staroverov, T. A. Keith, R. Kobayashi, J. Normand, 
 K. Raghavachari, A. P. Rendell, J. C. Burant, S. S. Iyengar, 
 J. Tomasi, M. Cossi, J. M. Millam, M. Klene, C. Adamo, R. Cammi, 
 J. W. Ochterski, R. L. Martin, K. Morokuma, O. Farkas, 
 J. B. Foresman, and D. J. Fox, Gaussian, Inc., Wallingford CT, 2016.
 
 ******************************************
 Gaussian 16:  ES64L-G16RevB.01 20-Dec-2017
                14-Aug-2019 
 ******************************************
 %RWF=/dev/shm/,5GB,/tmp/scratch/1148834/,-1
 %NoSave
 %OldChk=pdc2_eghtsct_ircf.chk
 %Chk=/dev/shm/pdc2_eghtsct_ircf_opt.chk
 Copying data from "pdc2_eghtsct_ircf.chk" to current chk file "/dev/shm/pdc2_eghtsct_ircf_opt.chk"
 IOpt=  2 FromEx=T IUOpen= 4 IOptOp= 5 NList=   0 IFRang= 0 IUIn= 4 IUOut= 2.
 Default route: CacheSize=180224 MaxDisk=256GB
 ----------------------------------------------------------------------
 # m062x/Def2TZVP nosymm scf=xqc opt freq=NoRaman CPHF=Grid=Fine SCRF=(
 Solvent=1,2-EthaneDiol,Read) guess=read geom=allcheck
 ----------------------------------------------------------------------
 1/4=180224,18=20,19=15,26=3,29=7,38=1,40=2/1,3;
 2/4=180224,9=110,12=2,15=1,40=1/2;
 3/4=180224,5=44,7=101,11=2,14=-4,25=1,30=1,70=2203,71=1,72=30,74=-55,116=-2/1,2,3;
 4/4=180224,5=1/1;
 5/4=180224,5=2,8=3,13=1,38=6,53=30/2,8;
 6/4=180224,7=2,8=2,9=2,10=2,28=1/1;
 7/4=180224,30=1/1,2,3,16;
 1/4=180224,18=20,19=15,26=3/3(2);
 2/4=180224,9=110,15=1/2;
 99/4=180224/99;
 2/4=180224,9=110,15=1/2;
 3/4=180224,5=44,7=101,11=2,14=-2,25=1,30=1,70=2205,71=1,72=30,74=-55/1,2,3;
 4/4=180224,5=5,16=3,69=1/1;
 5/4=180224,5=2,8=3,13=1,38=5,53=30/2,8;
 7/4=180224,30=1/1,2,3,16;
 1/4=180224,18=20,19=15,26=3/3(-5);
 2/4=180224,9=110,15=1/2;
 6/4=180224,7=2,8=2,9=2,10=2,19=2,28=1/1;
 99/4=180224,9=1/99;
 Structure from the checkpoint file:  "/dev/shm/pdc2_eghtsct_ircf_opt.chk"
 --------------------------
 based on pdc2_eghts_ts.log
 --------------------------
 Charge =  1 Multiplicity = 1
 No Z-Matrix found in chk file; cartesian coordinates used.
  H                                                 1.721720456095     -0.947688248340      2.644109737119
  C                                                -1.851567656557      0.897261246469     -0.976190548353
  C                                                 0.559956172390      1.403539456691      0.384469447524
  C                                                 0.086524544030      0.057799040707      0.223492278899
  C                                                -1.064187916734     -0.195554817240     -0.418876301162
  O                                                -1.340053393689      2.160232951925     -0.788531778080
  C                                                -0.190707069332      2.383270564367     -0.134270025902
  C                                                 0.937896539816     -1.026190116207      0.839650164754
  C                                                 0.205042793143      3.823303213753     -0.016755026082
  H                                                 1.472879015792      1.648508259738      0.906914745283
  H                                                -0.358272095932      5.551145031955     -0.484804006927
  O                                                 0.843516841773     -1.043030784457      2.245147856614
  O                                                 2.213116728651     -1.072454989599      0.431908443194
  O                                                -0.666422766166      4.636897246696     -0.591880487340
  O                                                 1.209500690693      4.162565719975      0.544037466737
  H                                                 0.838976709294     -2.950922312518     -1.160870143333
  C                                                 0.836563117517     -3.378563278852     -0.162246446953
  O                                                 0.360591333091     -5.579175023430     -0.924305442463
  H                                                 1.848070169904     -3.600382493458      0.167770040861
  H                                                 0.296894758171     -2.563503891132      1.678786476672
  O                                                 0.280125733792     -2.348715776481      0.711786399963
  C                                                -0.094500474152     -4.570167505340     -0.058853982708
  H                                                 1.108296485540     -6.034327159560     -0.522201277977
  H                                                -1.093867234094     -4.284112603024     -0.383301861824
  H                                                -0.151792016750     -4.913619664524      0.977494933618
  H                                                 2.379661271985     -0.566318405460     -0.376927853761
  H                                                -1.466415656790     -1.188064286038     -0.553616817760
  O                                                -2.884646857933      0.788432650896     -1.570771563819
 Recover connectivity data from disk.

 GradGradGradGradGradGradGradGradGradGradGradGradGradGradGradGradGradGrad
 Berny optimization.
 Initialization pass.
                           ----------------------------
                           !    Initial Parameters    !
                           ! (Angstroms and Degrees)  !
 --------------------------                            --------------------------
 ! Name  Definition              Value          Derivative Info.                !
 --------------------------------------------------------------------------------
 ! R1    R(1,12)                 0.9693         estimate D2E/DX2                !
 ! R2    R(2,5)                  1.4577         estimate D2E/DX2                !
 ! R3    R(2,6)                  1.3755         estimate D2E/DX2                !
 ! R4    R(2,28)                 1.1969         estimate D2E/DX2                !
 ! R5    R(3,4)                  1.4356         estimate D2E/DX2                !
 ! R6    R(3,7)                  1.3388         estimate D2E/DX2                !
 ! R7    R(3,10)                 1.08           estimate D2E/DX2                !
 ! R8    R(4,5)                  1.342          estimate D2E/DX2                !
 ! R9    R(4,8)                  1.5098         estimate D2E/DX2                !
 ! R10   R(5,27)                 1.0794         estimate D2E/DX2                !
 ! R11   R(6,7)                  1.3412         estimate D2E/DX2                !
 ! R12   R(7,9)                  1.498          estimate D2E/DX2                !
 ! R13   R(8,12)                 1.4088         estimate D2E/DX2                !
 ! R14   R(8,13)                 1.3396         estimate D2E/DX2                !
 ! R15   R(8,21)                 1.4826         estimate D2E/DX2                !
 ! R16   R(9,14)                 1.3237         estimate D2E/DX2                !
 ! R17   R(9,15)                 1.1994         estimate D2E/DX2                !
 ! R18   R(11,14)                0.9707         estimate D2E/DX2                !
 ! R19   R(12,20)                1.7121         estimate D2E/DX2                !
 ! R20   R(13,26)                0.9686         estimate D2E/DX2                !
 ! R21   R(16,17)                1.0863         estimate D2E/DX2                !
 ! R22   R(17,19)                1.0869         estimate D2E/DX2                !
 ! R23   R(17,21)                1.4609         estimate D2E/DX2                !
 ! R24   R(17,22)                1.5157         estimate D2E/DX2                !
 ! R25   R(18,22)                1.4051         estimate D2E/DX2                !
 ! R26   R(18,23)                0.9633         estimate D2E/DX2                !
 ! R27   R(20,21)                0.9907         estimate D2E/DX2                !
 ! R28   R(22,24)                1.089          estimate D2E/DX2                !
 ! R29   R(22,25)                1.0933         estimate D2E/DX2                !
 ! A1    A(5,2,6)              115.8067         estimate D2E/DX2                !
 ! A2    A(5,2,28)             126.0139         estimate D2E/DX2                !
 ! A3    A(6,2,28)             118.1793         estimate D2E/DX2                !
 ! A4    A(4,3,7)              117.2333         estimate D2E/DX2                !
 ! A5    A(4,3,10)             123.0669         estimate D2E/DX2                !
 ! A6    A(7,3,10)             119.6959         estimate D2E/DX2                !
 ! A7    A(3,4,5)              120.8908         estimate D2E/DX2                !
 ! A8    A(3,4,8)              116.1862         estimate D2E/DX2                !
 ! A9    A(5,4,8)              122.9099         estimate D2E/DX2                !
 ! A10   A(2,5,4)              120.3076         estimate D2E/DX2                !
 ! A11   A(2,5,27)             116.1264         estimate D2E/DX2                !
 ! A12   A(4,5,27)             123.5653         estimate D2E/DX2                !
 ! A13   A(2,6,7)              122.5431         estimate D2E/DX2                !
 ! A14   A(3,7,6)              123.2163         estimate D2E/DX2                !
 ! A15   A(3,7,9)              121.6636         estimate D2E/DX2                !
 ! A16   A(6,7,9)              115.12           estimate D2E/DX2                !
 ! A17   A(4,8,12)             112.2075         estimate D2E/DX2                !
 ! A18   A(4,8,13)             115.936          estimate D2E/DX2                !
 ! A19   A(4,8,21)             110.7981         estimate D2E/DX2                !
 ! A20   A(12,8,13)            111.5324         estimate D2E/DX2                !
 ! A21   A(12,8,21)             92.6168         estimate D2E/DX2                !
 ! A22   A(13,8,21)            111.4246         estimate D2E/DX2                !
 ! A23   A(7,9,14)             112.5092         estimate D2E/DX2                !
 ! A24   A(7,9,15)             121.9942         estimate D2E/DX2                !
 ! A25   A(14,9,15)            125.4966         estimate D2E/DX2                !
 ! A26   A(1,12,8)             110.4125         estimate D2E/DX2                !
 ! A27   A(1,12,20)            120.8488         estimate D2E/DX2                !
 ! A28   A(8,12,20)             72.6612         estimate D2E/DX2                !
 ! A29   A(8,13,26)            113.5664         estimate D2E/DX2                !
 ! A30   A(9,14,11)            108.782          estimate D2E/DX2                !
 ! A31   A(16,17,19)           110.9406         estimate D2E/DX2                !
 ! A32   A(16,17,21)           105.8623         estimate D2E/DX2                !
 ! A33   A(16,17,22)           111.9341         estimate D2E/DX2                !
 ! A34   A(19,17,21)           108.4632         estimate D2E/DX2                !
 ! A35   A(19,17,22)           112.9865         estimate D2E/DX2                !
 ! A36   A(21,17,22)           106.2256         estimate D2E/DX2                !
 ! A37   A(22,18,23)           109.4877         estimate D2E/DX2                !
 ! A38   A(12,20,21)            97.8018         estimate D2E/DX2                !
 ! A39   A(8,21,17)            120.7608         estimate D2E/DX2                !
 ! A40   A(8,21,20)             95.8374         estimate D2E/DX2                !
 ! A41   A(17,21,20)           115.1314         estimate D2E/DX2                !
 ! A42   A(17,22,18)           108.8796         estimate D2E/DX2                !
 ! A43   A(17,22,24)           109.6875         estimate D2E/DX2                !
 ! A44   A(17,22,25)           110.1096         estimate D2E/DX2                !
 ! A45   A(18,22,24)           107.5999         estimate D2E/DX2                !
 ! A46   A(18,22,25)           112.0399         estimate D2E/DX2                !
 ! A47   A(24,22,25)           108.4731         estimate D2E/DX2                !
 ! D1    D(6,2,5,4)             -0.3637         estimate D2E/DX2                !
 ! D2    D(6,2,5,27)           179.3446         estimate D2E/DX2                !
 ! D3    D(28,2,5,4)           179.6505         estimate D2E/DX2                !
 ! D4    D(28,2,5,27)           -0.6412         estimate D2E/DX2                !
 ! D5    D(5,2,6,7)             -0.064          estimate D2E/DX2                !
 ! D6    D(28,2,6,7)           179.923          estimate D2E/DX2                !
 ! D7    D(7,3,4,5)             -0.1835         estimate D2E/DX2                !
 ! D8    D(7,3,4,8)           -178.9011         estimate D2E/DX2                !
 ! D9    D(10,3,4,5)           179.0986         estimate D2E/DX2                !
 ! D10   D(10,3,4,8)             0.381          estimate D2E/DX2                !
 ! D11   D(4,3,7,6)             -0.2574         estimate D2E/DX2                !
 ! D12   D(4,3,7,9)            179.6272         estimate D2E/DX2                !
 ! D13   D(10,3,7,6)          -179.5648         estimate D2E/DX2                !
 ! D14   D(10,3,7,9)             0.3197         estimate D2E/DX2                !
 ! D15   D(3,4,5,2)              0.4882         estimate D2E/DX2                !
 ! D16   D(3,4,5,27)          -179.1976         estimate D2E/DX2                !
 ! D17   D(8,4,5,2)            179.1174         estimate D2E/DX2                !
 ! D18   D(8,4,5,27)            -0.5683         estimate D2E/DX2                !
 ! D19   D(3,4,8,12)            72.8226         estimate D2E/DX2                !
 ! D20   D(3,4,8,13)           -56.9233         estimate D2E/DX2                !
 ! D21   D(3,4,8,21)           174.8169         estimate D2E/DX2                !
 ! D22   D(5,4,8,12)          -105.8666         estimate D2E/DX2                !
 ! D23   D(5,4,8,13)           124.3875         estimate D2E/DX2                !
 ! D24   D(5,4,8,21)            -3.8723         estimate D2E/DX2                !
 ! D25   D(2,6,7,3)              0.3821         estimate D2E/DX2                !
 ! D26   D(2,6,7,9)           -179.5094         estimate D2E/DX2                !
 ! D27   D(3,7,9,14)          -179.9483         estimate D2E/DX2                !
 ! D28   D(3,7,9,15)             0.0864         estimate D2E/DX2                !
 ! D29   D(6,7,9,14)            -0.055          estimate D2E/DX2                !
 ! D30   D(6,7,9,15)           179.9797         estimate D2E/DX2                !
 ! D31   D(4,8,12,1)          -123.3049         estimate D2E/DX2                !
 ! D32   D(4,8,12,20)          119.502          estimate D2E/DX2                !
 ! D33   D(13,8,12,1)            8.6797         estimate D2E/DX2                !
 ! D34   D(13,8,12,20)        -108.5133         estimate D2E/DX2                !
 ! D35   D(21,8,12,1)          122.9553         estimate D2E/DX2                !
 ! D36   D(21,8,12,20)           5.7622         estimate D2E/DX2                !
 ! D37   D(4,8,13,26)          -15.6083         estimate D2E/DX2                !
 ! D38   D(12,8,13,26)        -145.6782         estimate D2E/DX2                !
 ! D39   D(21,8,13,26)         112.343          estimate D2E/DX2                !
 ! D40   D(4,8,21,17)          111.5559         estimate D2E/DX2                !
 ! D41   D(4,8,21,20)         -124.5503         estimate D2E/DX2                !
 ! D42   D(12,8,21,17)        -133.4775         estimate D2E/DX2                !
 ! D43   D(12,8,21,20)          -9.5837         estimate D2E/DX2                !
 ! D44   D(13,8,21,17)         -19.1081         estimate D2E/DX2                !
 ! D45   D(13,8,21,20)         104.7856         estimate D2E/DX2                !
 ! D46   D(7,9,14,11)         -179.9537         estimate D2E/DX2                !
 ! D47   D(15,9,14,11)           0.0102         estimate D2E/DX2                !
 ! D48   D(1,12,20,21)        -112.5479         estimate D2E/DX2                !
 ! D49   D(8,12,20,21)          -8.7135         estimate D2E/DX2                !
 ! D50   D(16,17,21,8)         -60.0514         estimate D2E/DX2                !
 ! D51   D(16,17,21,20)       -174.2524         estimate D2E/DX2                !
 ! D52   D(19,17,21,8)          59.0647         estimate D2E/DX2                !
 ! D53   D(19,17,21,20)        -55.1364         estimate D2E/DX2                !
 ! D54   D(22,17,21,8)        -179.2032         estimate D2E/DX2                !
 ! D55   D(22,17,21,20)         66.5957         estimate D2E/DX2                !
 ! D56   D(16,17,22,18)         62.5122         estimate D2E/DX2                !
 ! D57   D(16,17,22,24)        -54.9887         estimate D2E/DX2                !
 ! D58   D(16,17,22,25)       -174.2889         estimate D2E/DX2                !
 ! D59   D(19,17,22,18)        -63.598          estimate D2E/DX2                !
 ! D60   D(19,17,22,24)        178.9011         estimate D2E/DX2                !
 ! D61   D(19,17,22,25)         59.6009         estimate D2E/DX2                !
 ! D62   D(21,17,22,18)        177.6037         estimate D2E/DX2                !
 ! D63   D(21,17,22,24)         60.1028         estimate D2E/DX2                !
 ! D64   D(21,17,22,25)        -59.1974         estimate D2E/DX2                !
 ! D65   D(23,18,22,17)         78.0425         estimate D2E/DX2                !
 ! D66   D(23,18,22,24)       -163.1407         estimate D2E/DX2                !
 ! D67   D(23,18,22,25)        -43.994          estimate D2E/DX2                !
 ! D68   D(12,20,21,8)           7.9393         estimate D2E/DX2                !
 ! D69   D(12,20,21,17)        135.9521         estimate D2E/DX2                !
 --------------------------------------------------------------------------------
 Trust Radius=3.00D-01 FncErr=1.00D-07 GrdErr=1.00D-06 EigMax=2.50D+02 EigMin=1.00D-04
 Number of steps in this run=    155 maximum allowed number of steps=    168.
 GradGradGradGradGradGradGradGradGradGradGradGradGradGradGradGradGradGrad

                          Input orientation:                          
 ---------------------------------------------------------------------
 Center     Atomic      Atomic             Coordinates (Angstroms)
 Number     Number       Type             X           Y           Z
 ---------------------------------------------------------------------
      1          1           0        1.721720   -0.947688    2.644110
      2          6           0       -1.851568    0.897261   -0.976191
      3          6           0        0.559956    1.403539    0.384469
      4          6           0        0.086525    0.057799    0.223492
      5          6           0       -1.064188   -0.195555   -0.418876
      6          8           0       -1.340053    2.160233   -0.788532
      7          6           0       -0.190707    2.383271   -0.134270
      8          6           0        0.937897   -1.026190    0.839650
      9          6           0        0.205043    3.823303   -0.016755
     10          1           0        1.472879    1.648508    0.906915
     11          1           0       -0.358272    5.551145   -0.484804
     12          8           0        0.843517   -1.043031    2.245148
     13          8           0        2.213117   -1.072455    0.431908
     14          8           0       -0.666423    4.636897   -0.591880
     15          8           0        1.209501    4.162566    0.544037
     16          1           0        0.838977   -2.950922   -1.160870
     17          6           0        0.836563   -3.378563   -0.162246
     18          8           0        0.360591   -5.579175   -0.924305
     19          1           0        1.848070   -3.600382    0.167770
     20          1           0        0.296895   -2.563504    1.678786
     21          8           0        0.280126   -2.348716    0.711786
     22          6           0       -0.094500   -4.570168   -0.058854
     23          1           0        1.108296   -6.034327   -0.522201
     24          1           0       -1.093867   -4.284113   -0.383302
     25          1           0       -0.151792   -4.913620    0.977495
     26          1           0        2.379661   -0.566318   -0.376928
     27          1           0       -1.466416   -1.188064   -0.553617
     28          8           0       -2.884647    0.788433   -1.570772
 ---------------------------------------------------------------------
                    Distance matrix (angstroms):
                    1          2          3          4          5
     1  H    0.000000
     2  C    5.410989   0.000000
     3  C    3.461783   2.814811   0.000000
     4  C    3.089378   2.429020   1.435642   0.000000
     5  C    4.208191   1.457674   2.416674   1.342000   0.000000
     6  O    5.551276   1.375485   2.357658   2.734876   2.400517
     7  C    4.740470   2.382333   1.338827   2.369107   2.737574
     8  C    1.968913   3.844223   2.500723   1.509807   2.506429
     9  C    5.669468   3.702956   2.478346   3.775021   4.233659
    10  H    3.133689   3.893893   1.079994   2.217972   3.405143
    11  H    7.506751   4.912232   4.336059   5.556652   5.790270
    12  O    0.969279   4.626579   3.086784   2.423212   3.384461
    13  O    2.269553   4.731193   2.977539   2.417293   3.497644
    14  O    6.882039   3.941718   3.593309   4.711677   4.851880
    15  O    5.548637   4.726885   2.838943   4.267661   5.009000
    16  H    4.389767   4.699112   4.628959   3.396329   3.429962
    17  C    3.816843   5.115782   4.821194   3.538352   3.716215
    18  O    6.003077   6.844017   7.107105   5.759169   5.591853
    19  H    3.631117   5.935046   5.171599   4.060596   4.518656
    20  H    2.360686   4.862272   4.181135   3.005556   3.443823
    21  O    2.788359   4.234354   3.776885   2.463174   2.778791
    22  C    4.871040   5.815631   6.025780   4.640104   4.495236
    23  H    6.022932   7.550750   7.512961   6.222064   6.230700
    24  H    5.312672   5.269939   5.972771   4.540234   4.088820
    25  H    4.692149   6.361797   6.384729   5.033917   5.004244
    26  H    3.115284   4.517132   2.787722   2.451225   3.464004
    27  H    4.521885   2.162289   3.420906   2.137217   1.079360
    28  O    6.480583   1.196922   4.008318   3.546980   2.368368
                    6          7          8          9         10
     6  O    0.000000
     7  C    1.341194   0.000000
     8  C    4.241854   3.721114   0.000000
     9  C    2.397658   1.498039   4.978764   0.000000
    10  H    3.324002   2.095581   2.728505   2.681475   0.000000
    11  H    3.543223   3.191611   6.833416   1.876654   4.529963
    12  O    4.922610   4.297766   1.408764   5.404171   3.071050
    13  O    4.956285   4.247466   1.339619   5.310566   2.859585
    14  O    2.574163   2.348307   6.057531   1.323691   3.969064
    15  O    3.505040   2.363593   5.204262   1.199384   2.553729
    16  H    5.568727   5.528813   2.777852   6.899348   5.082551
    17  C    5.983992   5.852760   2.558852   7.230966   5.178750
    18  O    7.925217   8.020513   4.916756   9.447457   7.538565
    19  H    6.653070   6.328661   2.811815   7.605570   5.313940
    20  H    5.575029   5.291078   1.865038   6.608676   4.440695
    21  O    5.020613   4.830030   1.482594   6.215322   4.175947
    22  C    6.883467   6.954513   3.799069   8.398920   6.485470
    23  H    8.556644   8.526069   5.192794   9.911822   7.823123
    24  H    6.461765   6.732883   4.029607   8.218985   6.591573
    25  H    7.387165   7.381202   4.039620   8.800550   6.760626
    26  H    4.630311   3.919917   1.941708   4.911972   2.715872
    27  H    3.358906   3.815458   2.783543   5.309972   4.338058
    28  O    2.208960   3.444467   4.869787   4.601259   5.085931
                   11         12         13         14         15
    11  H    0.000000
    12  O    7.237409   0.000000
    13  O    7.164111   2.272555   0.000000
    14  O    0.970707   6.526119   6.475847   0.000000
    15  O    2.333362   5.488712   5.331534   2.243744   0.000000
    16  H    8.612527   3.903976   2.820256   7.756609   7.324323
    17  C    9.015063   3.354148   2.750646   8.166466   7.583307
    18  O   11.162166   5.554751   5.057835  10.272945   9.888286
    19  H    9.436326   3.444514   2.567771   8.645954   7.798251
    20  H    8.423651   1.712133   2.729439   7.611155   6.881898
    21  O    8.015434   2.091272   2.333158   7.168981   6.579412
    22  C   10.133705   4.316132   4.218997   9.240198   8.850115
    23  H   11.677987   5.713263   5.172149  10.818018  10.252986
    24  H    9.863250   4.600741   4.681395   8.933680   8.804081
    25  H   10.568456   4.192737   4.543677   9.692273   9.187935
    26  H    6.703080   3.076081   0.968570   6.033099   4.957802
    27  H    6.830056   3.631791   3.810982   5.879764   6.082320
    28  O    5.499575   5.640452   5.784533   4.548563   5.711325
                   16         17         18         19         20
    16  H    0.000000
    17  C    1.086339   0.000000
    18  O    2.681889   2.376968   0.000000
    19  H    1.790350   1.086858   2.705705   0.000000
    20  H    2.916778   2.084458   3.984271   2.400923   0.000000
    21  O    2.044947   1.460870   3.622035   2.078719   0.990709
    22  C    2.169741   1.515747   1.405066   2.182985   2.683148
    23  H    3.160351   2.693787   0.963283   2.635794   4.189193
    24  H    2.473438   2.143699   2.021218   3.070206   3.024388
    25  H    3.066987   2.152267   2.079025   2.525806   2.493226
    26  H    2.945269   3.214959   5.431850   3.128071   3.542969
    27  H    2.965006   3.202369   4.770453   4.162390   3.159861
    28  O    5.293030   5.761528   7.176066   6.684522   5.649541
                   21         22         23         24         25
    21  O    0.000000
    22  C    2.380983   0.000000
    23  H    3.973956   1.950686   0.000000
    24  H    2.613969   1.088957   2.816393   0.000000
    25  H    2.614553   1.093280   2.256745   1.770749   0.000000
    26  H    2.961467   4.717357   5.615745   5.087970   5.209774
    27  H    2.449237   3.683146   5.487841   3.123030   4.237016
    28  O    5.006751   6.227793   7.974531   5.508874   6.817298
                   26         27         28
    26  H    0.000000
    27  H    3.900012   0.000000
    28  O    5.565389   2.636764   0.000000
 Symmetry turned off by external request.
 Stoichiometry    C9H11O8(1+)
 Framework group  C1[X(C9H11O8)]
 Deg. of freedom    78
 Full point group                 C1      NOp   1
 Rotational constants (GHZ):           0.8991571           0.2241424           0.1900907
 Standard basis: def2TZVP (5D, 7F)
   593 basis functions,   955 primitive gaussians,   678 cartesian basis functions
    64 alpha electrons       64 beta electrons
       nuclear repulsion energy      1266.9008453942 Hartrees.
 NAtoms=   28 NActive=   28 NUniq=   28 SFac= 1.00D+00 NAtFMM=   60 NAOKFM=F Big=F
 Integral buffers will be    131072 words long.
 Raffenetti 2 integral format.
 Two-electron integral symmetry is turned off.
 Using the following non-standard input for PCM:
 PDENS=7.0
 --- end of non-standard input.
 ------------------------------------------------------------------------------
 Polarizable Continuum Model (PCM)
 =================================
 Model                : PCM.
 Atomic radii         : UFF (Universal Force Field).
 Polarization charges : Total charges.
 Charge compensation  : None.
 Solution method      : On-the-fly selection.
 Cavity type          : Scaled VdW (van der Waals Surface) (Alpha=1.100).
 Cavity algorithm     : GePol (No added spheres)
                        Default sphere list used, NSphG=   28.
                        Lebedev-Laikov grids with approx.  7.0 points / Ang**2.
                        Smoothing algorithm: York/Karplus (Gamma=1.0000).
                        Polarization charges: spherical gaussians, with
                                              point-specific exponents (IZeta= 3).
                        Self-potential: point-specific (ISelfS= 7).
                        Self-field    : sphere-specific E.n sum rule (ISelfD= 2).
 1st derivatives      : Analytical E(r).r(x)/FMM algorithm (CHGder, D1EAlg=3).
                        Cavity 1st derivative terms included.
 Solvent              : 1,2-EthaneDiol, Eps=  40.245000 Eps(inf)=   2.050051
 ------------------------------------------------------------------------------
 One-electron integrals computed using PRISM.
   1 Symmetry operations used in ECPInt.
 ECPInt:  NShTT=   26796 NPrTT=   83028 LenC2=   23065 LenP2D=   51314.
 LDataN:  DoStor=T MaxTD1= 6 Len=  172
 NBasis=   593 RedAO= T EigKep=  2.21D-05  NBF=   593
 NBsUse=   593 1.00D-06 EigRej= -1.00D+00 NBFU=   593
 Initial guess from the checkpoint file:  "/dev/shm/pdc2_eghtsct_ircf_opt.chk"
 B after Tr=     0.000000    0.000000   -0.000000
         Rot=    1.000000    0.000000    0.000000    0.000000 Ang=   0.00 deg.
 Requested convergence on RMS density matrix=1.00D-08 within  32 cycles.
 Requested convergence on MAX density matrix=1.00D-06.
 Requested convergence on             energy=1.00D-06.
 No special actions if energy rises.
 Inv3:  Mode=1 IEnd=    34050483.
 Iteration    1 A*A^-1 deviation from unit magnitude is 3.55D-15 for   1751.
 Iteration    1 A*A^-1 deviation from orthogonality  is 2.88D-15 for   2783   2679.
 Iteration    1 A^-1*A deviation from unit magnitude is 3.11D-15 for    967.
 Iteration    1 A^-1*A deviation from orthogonality  is 2.22D-15 for   2832   2699.
 Error on total polarization charges =  0.01053
 SCF Done:  E(RM062X) =  -951.184626997     A.U. after    1 cycles
            NFock=  1  Conv=0.49D-08     -V/T= 2.0043
 QCSCF skips out because SCF is already converged.

 **********************************************************************

            Population analysis using the SCF Density.

 **********************************************************************

 Alpha  occ. eigenvalues --  -19.79351 -19.73515 -19.72173 -19.70587 -19.70126
 Alpha  occ. eigenvalues --  -19.65263 -19.65005 -19.64393 -10.79614 -10.71523
 Alpha  occ. eigenvalues --  -10.71369 -10.66663 -10.64615 -10.63308 -10.61683
 Alpha  occ. eigenvalues --  -10.60488 -10.59682  -1.35933  -1.29705  -1.26971
 Alpha  occ. eigenvalues --   -1.26174  -1.20801  -1.19396  -1.17833  -1.17737
 Alpha  occ. eigenvalues --   -1.00138  -0.93303  -0.92053  -0.85476  -0.82518
 Alpha  occ. eigenvalues --   -0.79092  -0.78016  -0.75303  -0.72670  -0.71330
 Alpha  occ. eigenvalues --   -0.68351  -0.66667  -0.64112  -0.62870  -0.62053
 Alpha  occ. eigenvalues --   -0.61394  -0.60867  -0.60416  -0.58543  -0.56665
 Alpha  occ. eigenvalues --   -0.56593  -0.56401  -0.54186  -0.52976  -0.52322
 Alpha  occ. eigenvalues --   -0.51522  -0.49972  -0.49205  -0.48062  -0.47582
 Alpha  occ. eigenvalues --   -0.47488  -0.46445  -0.43758  -0.42887  -0.42743
 Alpha  occ. eigenvalues --   -0.41106  -0.38912  -0.38505  -0.33282
 Alpha virt. eigenvalues --   -0.08145  -0.02059   0.02721   0.04739   0.05581
 Alpha virt. eigenvalues --    0.06750   0.06952   0.07235   0.08847   0.09467
 Alpha virt. eigenvalues --    0.10327   0.11157   0.11712   0.12951   0.13294
 Alpha virt. eigenvalues --    0.13794   0.14574   0.15469   0.16465   0.17249
 Alpha virt. eigenvalues --    0.18257   0.18933   0.19852   0.20593   0.20832
 Alpha virt. eigenvalues --    0.21778   0.22615   0.22960   0.23851   0.24096
 Alpha virt. eigenvalues --    0.24907   0.25728   0.26268   0.27260   0.27811
 Alpha virt. eigenvalues --    0.28203   0.28782   0.29616   0.31132   0.31954
 Alpha virt. eigenvalues --    0.33049   0.33448   0.33768   0.34136   0.35263
 Alpha virt. eigenvalues --    0.36270   0.36745   0.37515   0.37893   0.38818
 Alpha virt. eigenvalues --    0.38844   0.39804   0.40011   0.40575   0.41072
 Alpha virt. eigenvalues --    0.41866   0.42480   0.42821   0.44003   0.44753
 Alpha virt. eigenvalues --    0.45855   0.45911   0.46422   0.47973   0.48242
 Alpha virt. eigenvalues --    0.48873   0.49524   0.50375   0.51390   0.51593
 Alpha virt. eigenvalues --    0.52169   0.52582   0.53581   0.53708   0.54628
 Alpha virt. eigenvalues --    0.55098   0.56179   0.56936   0.57354   0.57683
 Alpha virt. eigenvalues --    0.58415   0.59778   0.60535   0.61189   0.61487
 Alpha virt. eigenvalues --    0.62538   0.62683   0.64908   0.65240   0.66288
 Alpha virt. eigenvalues --    0.67486   0.68055   0.68664   0.69553   0.70948
 Alpha virt. eigenvalues --    0.71185   0.72961   0.73784   0.74290   0.74685
 Alpha virt. eigenvalues --    0.75511   0.76556   0.77305   0.78098   0.78762
 Alpha virt. eigenvalues --    0.80337   0.81281   0.81820   0.82420   0.84125
 Alpha virt. eigenvalues --    0.84808   0.85007   0.86740   0.87882   0.88693
 Alpha virt. eigenvalues --    0.89617   0.89702   0.90761   0.92533   0.93071
 Alpha virt. eigenvalues --    0.94087   0.95713   0.96558   0.97428   0.99726
 Alpha virt. eigenvalues --    1.00021   1.01649   1.02658   1.03585   1.05805
 Alpha virt. eigenvalues --    1.06827   1.09510   1.10311   1.12315   1.13181
 Alpha virt. eigenvalues --    1.14106   1.14637   1.17713   1.18118   1.20336
 Alpha virt. eigenvalues --    1.21582   1.22303   1.25029   1.27002   1.27721
 Alpha virt. eigenvalues --    1.29791   1.30769   1.33366   1.34363   1.34685
 Alpha virt. eigenvalues --    1.35184   1.36973   1.37621   1.39190   1.39519
 Alpha virt. eigenvalues --    1.40816   1.42983   1.43766   1.44700   1.45564
 Alpha virt. eigenvalues --    1.46801   1.49119   1.49606   1.50989   1.51533
 Alpha virt. eigenvalues --    1.52145   1.52971   1.54979   1.55712   1.56882
 Alpha virt. eigenvalues --    1.57181   1.58947   1.59809   1.60554   1.61194
 Alpha virt. eigenvalues --    1.62169   1.63393   1.63725   1.65223   1.67194
 Alpha virt. eigenvalues --    1.68616   1.70040   1.71033   1.71615   1.72525
 Alpha virt. eigenvalues --    1.73868   1.75478   1.76672   1.77275   1.77869
 Alpha virt. eigenvalues --    1.79337   1.80744   1.81988   1.82472   1.84535
 Alpha virt. eigenvalues --    1.85438   1.86552   1.87999   1.88556   1.89457
 Alpha virt. eigenvalues --    1.91156   1.92555   1.93509   1.94499   1.95663
 Alpha virt. eigenvalues --    1.96777   1.97028   1.98904   2.00304   2.00706
 Alpha virt. eigenvalues --    2.01095   2.02574   2.02779   2.04226   2.05347
 Alpha virt. eigenvalues --    2.05453   2.07744   2.08496   2.09974   2.10927
 Alpha virt. eigenvalues --    2.12143   2.14937   2.16586   2.17090   2.17349
 Alpha virt. eigenvalues --    2.19069   2.19775   2.20941   2.21265   2.21732
 Alpha virt. eigenvalues --    2.22798   2.23180   2.27161   2.27301   2.28351
 Alpha virt. eigenvalues --    2.28792   2.29342   2.30776   2.32104   2.34103
 Alpha virt. eigenvalues --    2.34338   2.36064   2.36774   2.38534   2.39550
 Alpha virt. eigenvalues --    2.41001   2.41425   2.44585   2.45225   2.45651
 Alpha virt. eigenvalues --    2.48652   2.49304   2.50869   2.52461   2.53280
 Alpha virt. eigenvalues --    2.54613   2.55278   2.56516   2.57636   2.59589
 Alpha virt. eigenvalues --    2.60016   2.60278   2.60859   2.62392   2.62605
 Alpha virt. eigenvalues --    2.63821   2.65966   2.66630   2.67592   2.68476
 Alpha virt. eigenvalues --    2.69675   2.71500   2.73089   2.73536   2.75388
 Alpha virt. eigenvalues --    2.75996   2.77243   2.78892   2.79915   2.80884
 Alpha virt. eigenvalues --    2.81884   2.82247   2.83262   2.84198   2.84834
 Alpha virt. eigenvalues --    2.85653   2.87032   2.87632   2.88975   2.89303
 Alpha virt. eigenvalues --    2.92051   2.92783   2.93383   2.95007   2.95955
 Alpha virt. eigenvalues --    2.97061   2.98866   3.01673   3.02159   3.04006
 Alpha virt. eigenvalues --    3.04685   3.05185   3.06474   3.07216   3.07419
 Alpha virt. eigenvalues --    3.07961   3.09802   3.11937   3.12679   3.13309
 Alpha virt. eigenvalues --    3.13700   3.14684   3.15466   3.15955   3.16776
 Alpha virt. eigenvalues --    3.17083   3.19358   3.20039   3.21266   3.22640
 Alpha virt. eigenvalues --    3.23978   3.24481   3.25375   3.25639   3.27007
 Alpha virt. eigenvalues --    3.27314   3.28729   3.29934   3.30926   3.31757
 Alpha virt. eigenvalues --    3.32040   3.32994   3.33969   3.34874   3.36162
 Alpha virt. eigenvalues --    3.36905   3.38291   3.38563   3.39598   3.41618
 Alpha virt. eigenvalues --    3.41642   3.43549   3.45465   3.47254   3.48281
 Alpha virt. eigenvalues --    3.48572   3.50368   3.53001   3.53432   3.55444
 Alpha virt. eigenvalues --    3.56446   3.56728   3.59322   3.60495   3.61525
 Alpha virt. eigenvalues --    3.62016   3.63508   3.65664   3.66930   3.67442
 Alpha virt. eigenvalues --    3.70371   3.72494   3.75061   3.77001   3.80385
 Alpha virt. eigenvalues --    3.82701   3.84994   3.86174   3.87076   3.88182
 Alpha virt. eigenvalues --    3.89359   3.90368   3.93456   3.94147   3.98718
 Alpha virt. eigenvalues --    4.00707   4.01729   4.04102   4.05441   4.07256
 Alpha virt. eigenvalues --    4.10664   4.12990   4.14496   4.18906   4.22516
 Alpha virt. eigenvalues --    4.24048   4.24648   4.26527   4.31418   4.33194
 Alpha virt. eigenvalues --    4.34592   4.35586   4.37607   4.40647   4.44276
 Alpha virt. eigenvalues --    4.44960   4.45997   4.50246   4.53536   4.55400
 Alpha virt. eigenvalues --    4.59397   4.59826   4.65555   4.66395   4.69458
 Alpha virt. eigenvalues --    4.75726   4.78064   4.80935   4.85103   4.89672
 Alpha virt. eigenvalues --    4.92672   4.95680   5.01717   5.07664   5.12676
 Alpha virt. eigenvalues --    5.13437   5.16675   5.17766   5.18455   5.19972
 Alpha virt. eigenvalues --    5.21951   5.24080   5.24885   5.25266   5.25806
 Alpha virt. eigenvalues --    5.27061   5.28906   5.32571   5.36288   5.36999
 Alpha virt. eigenvalues --    5.38812   5.42546   5.45682   5.46394   5.47610
 Alpha virt. eigenvalues --    5.47734   5.48714   5.51319   5.52716   5.60298
 Alpha virt. eigenvalues --    5.63925   5.66788   5.67148   5.70302   5.71711
 Alpha virt. eigenvalues --    5.75689   5.77035   5.80103   5.81903   5.82282
 Alpha virt. eigenvalues --    5.84219   5.86479   5.87288   5.89510   5.97319
 Alpha virt. eigenvalues --    5.98613   6.06895   6.09370   6.10476   6.13213
 Alpha virt. eigenvalues --    6.17993   6.18583   6.21831   6.22645   6.23437
 Alpha virt. eigenvalues --    6.25848   6.29292   6.32507   6.34224   6.35204
 Alpha virt. eigenvalues --    6.40012   6.41912   6.42313   6.42986   6.44005
 Alpha virt. eigenvalues --    6.49584   6.49945   6.52828   6.56088   6.60831
 Alpha virt. eigenvalues --    6.63170   6.63820   6.67266   6.68083   6.71766
 Alpha virt. eigenvalues --    6.73148   6.76355   6.76874   6.77608   6.78095
 Alpha virt. eigenvalues --    6.81055   6.84786   6.86876   6.88498   6.90545
 Alpha virt. eigenvalues --    6.91611   6.92649   6.94118   6.96545   6.99329
 Alpha virt. eigenvalues --    7.06676   7.08195   7.09158   7.12716   7.13655
 Alpha virt. eigenvalues --    7.15830   7.18877   7.24058   7.30487   7.36126
 Alpha virt. eigenvalues --    7.37681   7.45801  22.41912  22.47172  22.57046
 Alpha virt. eigenvalues --   22.80826  22.95315  23.14193  23.24497  23.45484
 Alpha virt. eigenvalues --   23.51314  43.90125  43.94864  43.98795  44.03861
 Alpha virt. eigenvalues --   44.05999  44.17190  44.49268  44.57315
          Condensed to atoms (all electrons):
               1          2          3          4          5          6
     1  H    0.297848  -0.000023  -0.000244   0.008625  -0.000488  -0.000001
     2  C   -0.000023   4.396001  -0.017433   0.059163   0.212097   0.361448
     3  C   -0.000244  -0.017433   5.300406   0.295812  -0.074219  -0.086508
     4  C    0.008625   0.059163   0.295812   5.656303   0.112204   0.032094
     5  C   -0.000488   0.212097  -0.074219   0.112204   5.802005  -0.133671
     6  O   -0.000001   0.361448  -0.086508   0.032094  -0.133671   7.823637
     7  C    0.000002  -0.033558   0.432590  -0.030383  -0.001902   0.309018
     8  C   -0.010122   0.000808  -0.016424   0.055759  -0.072594  -0.001236
     9  C    0.000006  -0.005461  -0.048043  -0.009146   0.009656  -0.026538
    10  H    0.000343  -0.000417   0.365883  -0.015898   0.009394   0.002011
    11  H   -0.000000  -0.000028  -0.001422   0.000058  -0.000046  -0.000749
    12  O    0.301455   0.000228   0.010840  -0.108785   0.002963   0.000034
    13  O    0.000205  -0.000142  -0.002651  -0.038595   0.008429   0.000014
    14  O    0.000000   0.000138   0.009199  -0.000817   0.000824  -0.003215
    15  O    0.000001  -0.000237   0.033519   0.001190   0.000846   0.003053
    16  H    0.000031   0.000183   0.000824  -0.005159  -0.004580   0.000004
    17  C   -0.000145  -0.000947   0.001151   0.016940  -0.008027  -0.000007
    18  O   -0.000001   0.000002  -0.000002  -0.000316   0.000114  -0.000000
    19  H   -0.000091  -0.000010  -0.000321  -0.001962   0.001298  -0.000000
    20  H    0.000193   0.000002   0.000076  -0.000120  -0.002002   0.000002
    21  O    0.002727  -0.002807   0.005779  -0.050060   0.014618   0.000011
    22  C   -0.000003   0.000119   0.000019  -0.000819  -0.000521   0.000001
    23  H   -0.000000  -0.000000  -0.000001  -0.000028   0.000009  -0.000000
    24  H   -0.000005  -0.000048  -0.000094  -0.001991   0.001333  -0.000000
    25  H    0.000022   0.000008   0.000034  -0.000208  -0.000069  -0.000000
    26  H   -0.000170   0.000053  -0.005008   0.008729   0.002694   0.000005
    27  H   -0.000021  -0.012367   0.004099  -0.028562   0.395881   0.003764
    28  O   -0.000000   0.735391   0.001974   0.015665  -0.123822  -0.097327
               7          8          9         10         11         12
     1  H    0.000002  -0.010122   0.000006   0.000343  -0.000000   0.301455
     2  C   -0.033558   0.000808  -0.005461  -0.000417  -0.000028   0.000228
     3  C    0.432590  -0.016424  -0.048043   0.365883  -0.001422   0.010840
     4  C   -0.030383   0.055759  -0.009146  -0.015898   0.000058  -0.108785
     5  C   -0.001902  -0.072594   0.009656   0.009394  -0.000046   0.002963
     6  O    0.309018  -0.001236  -0.026538   0.002011  -0.000749   0.000034
     7  C    5.218189  -0.041627   0.230630  -0.003819   0.024287  -0.005611
     8  C   -0.041627   4.944963  -0.004867   0.002044   0.000000   0.369494
     9  C    0.230630  -0.004867   4.398628  -0.009234  -0.030333  -0.000170
    10  H   -0.003819   0.002044  -0.009234   0.406201  -0.000056   0.000855
    11  H    0.024287   0.000000  -0.030333  -0.000056   0.324950  -0.000000
    12  O   -0.005611   0.369494  -0.000170   0.000855  -0.000000   8.066382
    13  O    0.006735   0.290295   0.000149   0.001995   0.000000  -0.054037
    14  O   -0.136002  -0.000027   0.453695   0.000672   0.300788  -0.000000
    15  O   -0.159424  -0.000368   0.697486   0.014440   0.002370   0.000000
    16  H   -0.000160   0.020278  -0.000003  -0.000009   0.000000   0.000266
    17  C    0.000000  -0.027110   0.000005   0.000010  -0.000000  -0.000783
    18  O   -0.000000   0.001253  -0.000000  -0.000000  -0.000000   0.000006
    19  H    0.000017  -0.004125  -0.000000  -0.000005  -0.000000   0.000374
    20  H    0.000029  -0.004873  -0.000001  -0.000042  -0.000000   0.029040
    21  O    0.000538   0.182304   0.000009   0.000359   0.000000  -0.140707
    22  C    0.000001  -0.002585  -0.000000  -0.000000   0.000000   0.000346
    23  H    0.000000   0.000112  -0.000000  -0.000000  -0.000000  -0.000002
    24  H    0.000005   0.002257  -0.000000  -0.000000  -0.000000  -0.000049
    25  H   -0.000002   0.000692  -0.000000   0.000000   0.000000   0.000040
    26  H   -0.000248  -0.023756   0.000068   0.000075   0.000000   0.002742
    27  H    0.001434  -0.021555   0.000113  -0.000082   0.000000   0.000060
    28  O   -0.001399  -0.000572   0.000417   0.000036  -0.000006   0.000004
              13         14         15         16         17         18
     1  H    0.000205   0.000000   0.000001   0.000031  -0.000145  -0.000001
     2  C   -0.000142   0.000138  -0.000237   0.000183  -0.000947   0.000002
     3  C   -0.002651   0.009199   0.033519   0.000824   0.001151  -0.000002
     4  C   -0.038595  -0.000817   0.001190  -0.005159   0.016940  -0.000316
     5  C    0.008429   0.000824   0.000846  -0.004580  -0.008027   0.000114
     6  O    0.000014  -0.003215   0.003053   0.000004  -0.000007  -0.000000
     7  C    0.006735  -0.136002  -0.159424  -0.000160   0.000000  -0.000000
     8  C    0.290295  -0.000027  -0.000368   0.020278  -0.027110   0.001253
     9  C    0.000149   0.453695   0.697486  -0.000003   0.000005  -0.000000
    10  H    0.001995   0.000672   0.014440  -0.000009   0.000010  -0.000000
    11  H    0.000000   0.300788   0.002370   0.000000  -0.000000  -0.000000
    12  O   -0.054037  -0.000000   0.000000   0.000266  -0.000783   0.000006
    13  O    7.930082   0.000000   0.000002   0.000164  -0.004124   0.000006
    14  O    0.000000   7.845175  -0.080521  -0.000000   0.000000  -0.000000
    15  O    0.000002  -0.080521   7.828218  -0.000000   0.000000   0.000000
    16  H    0.000164  -0.000000  -0.000000   0.453923   0.395769   0.008126
    17  C   -0.004124   0.000000   0.000000   0.395769   5.148055  -0.047842
    18  O    0.000006  -0.000000   0.000000   0.008126  -0.047842   8.046776
    19  H    0.001591  -0.000000  -0.000000  -0.024469   0.406472   0.002901
    20  H    0.001664   0.000000   0.000000   0.003917  -0.017269   0.000117
    21  O   -0.046635   0.000000   0.000000  -0.022660   0.129288   0.004075
    22  C    0.000837  -0.000000  -0.000000  -0.029211   0.265081   0.244364
    23  H   -0.000006  -0.000000  -0.000000  -0.001317  -0.004888   0.305991
    24  H   -0.000014  -0.000000   0.000000  -0.007378  -0.040816  -0.030413
    25  H   -0.000026  -0.000000  -0.000000   0.006561  -0.059270  -0.038192
    26  H    0.306566   0.000000  -0.000005  -0.000357  -0.001267  -0.000004
    27  H    0.000293  -0.000000  -0.000002  -0.002057  -0.002523   0.000007
    28  O    0.000004  -0.000094   0.000002   0.000007  -0.000046  -0.000000
              19         20         21         22         23         24
     1  H   -0.000091   0.000193   0.002727  -0.000003  -0.000000  -0.000005
     2  C   -0.000010   0.000002  -0.002807   0.000119  -0.000000  -0.000048
     3  C   -0.000321   0.000076   0.005779   0.000019  -0.000001  -0.000094
     4  C   -0.001962  -0.000120  -0.050060  -0.000819  -0.000028  -0.001991
     5  C    0.001298  -0.002002   0.014618  -0.000521   0.000009   0.001333
     6  O   -0.000000   0.000002   0.000011   0.000001  -0.000000  -0.000000
     7  C    0.000017   0.000029   0.000538   0.000001   0.000000   0.000005
     8  C   -0.004125  -0.004873   0.182304  -0.002585   0.000112   0.002257
     9  C   -0.000000  -0.000001   0.000009  -0.000000  -0.000000  -0.000000
    10  H   -0.000005  -0.000042   0.000359  -0.000000  -0.000000  -0.000000
    11  H   -0.000000  -0.000000   0.000000   0.000000  -0.000000  -0.000000
    12  O    0.000374   0.029040  -0.140707   0.000346  -0.000002  -0.000049
    13  O    0.001591   0.001664  -0.046635   0.000837  -0.000006  -0.000014
    14  O   -0.000000   0.000000   0.000000  -0.000000  -0.000000  -0.000000
    15  O   -0.000000   0.000000   0.000000  -0.000000  -0.000000   0.000000
    16  H   -0.024469   0.003917  -0.022660  -0.029211  -0.001317  -0.007378
    17  C    0.406472  -0.017269   0.129288   0.265081  -0.004888  -0.040816
    18  O    0.002901   0.000117   0.004075   0.244364   0.305991  -0.030413
    19  H    0.463892  -0.003806  -0.023466  -0.023988   0.003967   0.005724
    20  H   -0.003806   0.274846   0.285110  -0.002100  -0.000104  -0.001268
    21  O   -0.023466   0.285110   7.826821  -0.009731  -0.000089   0.001110
    22  C   -0.023988  -0.002100  -0.009731   4.813186  -0.028943   0.411238
    23  H    0.003967  -0.000104  -0.000089  -0.028943   0.370373   0.008123
    24  H    0.005724  -0.001268   0.001110   0.411238   0.008123   0.522605
    25  H   -0.008033   0.005288   0.003375   0.441670  -0.011037  -0.036281
    26  H   -0.000098  -0.000358   0.001710  -0.000002   0.000001   0.000007
    27  H    0.000148  -0.000621   0.008430   0.000806   0.000002   0.000594
    28  O   -0.000000   0.000001   0.000011   0.000011  -0.000000  -0.000009
              25         26         27         28
     1  H    0.000022  -0.000170  -0.000021  -0.000000
     2  C    0.000008   0.000053  -0.012367   0.735391
     3  C    0.000034  -0.005008   0.004099   0.001974
     4  C   -0.000208   0.008729  -0.028562   0.015665
     5  C   -0.000069   0.002694   0.395881  -0.123822
     6  O   -0.000000   0.000005   0.003764  -0.097327
     7  C   -0.000002  -0.000248   0.001434  -0.001399
     8  C    0.000692  -0.023756  -0.021555  -0.000572
     9  C   -0.000000   0.000068   0.000113   0.000417
    10  H    0.000000   0.000075  -0.000082   0.000036
    11  H    0.000000   0.000000   0.000000  -0.000006
    12  O    0.000040   0.002742   0.000060   0.000004
    13  O   -0.000026   0.306566   0.000293   0.000004
    14  O   -0.000000   0.000000  -0.000000  -0.000094
    15  O   -0.000000  -0.000005  -0.000002   0.000002
    16  H    0.006561  -0.000357  -0.002057   0.000007
    17  C   -0.059270  -0.001267  -0.002523  -0.000046
    18  O   -0.038192  -0.000004   0.000007  -0.000000
    19  H   -0.008033  -0.000098   0.000148  -0.000000
    20  H    0.005288  -0.000358  -0.000621   0.000001
    21  O    0.003375   0.001710   0.008430   0.000011
    22  C    0.441670  -0.000002   0.000806   0.000011
    23  H   -0.011037   0.000001   0.000002  -0.000000
    24  H   -0.036281   0.000007   0.000594  -0.000009
    25  H    0.529891  -0.000008  -0.000108  -0.000000
    26  H   -0.000008   0.297974   0.000125   0.000002
    27  H   -0.000108   0.000125   0.442074   0.005103
    28  O   -0.000000   0.000002   0.005103   7.800332
 Mulliken charges:
               1
     1  H    0.399857
     2  C    0.307836
     3  C   -0.209838
     4  C    0.030308
     5  C   -0.152422
     6  O   -0.185845
     7  C    0.190659
     8  C    0.361582
     9  C    0.342938
    10  H    0.225245
    11  H    0.380186
    12  O   -0.474989
    13  O   -0.402799
    14  O   -0.389814
    15  O   -0.340569
    16  H    0.207305
    17  C   -0.147707
    18  O   -0.496970
    19  H    0.203989
    20  H    0.432279
    21  O   -0.170118
    22  C   -0.079778
    23  H    0.357836
    24  H    0.165372
    25  H    0.165655
    26  H    0.410530
    27  H    0.204964
    28  O   -0.335687
 Sum of Mulliken charges =   1.00000
 Mulliken charges with hydrogens summed into heavy atoms:
               1
     2  C    0.307836
     3  C    0.015407
     4  C    0.030308
     5  C    0.052542
     6  O   -0.185845
     7  C    0.190659
     8  C    0.361582
     9  C    0.342938
    12  O   -0.075132
    13  O    0.007731
    14  O   -0.009629
    15  O   -0.340569
    17  C    0.263586
    18  O   -0.139134
    21  O    0.262160
    22  C    0.251249
    28  O   -0.335687
 Electronic spatial extent (au):  <R**2>=           5378.9393
 Charge=              1.0000 electrons
 Dipole moment (field-independent basis, Debye):
    X=              8.5575    Y=             -9.4449    Z=              5.1711  Tot=             13.7541
 Quadrupole moment (field-independent basis, Debye-Ang):
   XX=            -98.0142   YY=            -46.8560   ZZ=            -91.7352
   XY=            -13.7029   XZ=             -4.8503   YZ=            -16.2817
 Traceless Quadrupole moment (field-independent basis, Debye-Ang):
   XX=            -19.1457   YY=             32.0125   ZZ=            -12.8667
   XY=            -13.7029   XZ=             -4.8503   YZ=            -16.2817
 Octapole moment (field-independent basis, Debye-Ang**2):
  XXX=             62.0248  YYY=             -7.2757  ZZZ=             32.1471  XYY=             36.6136
  XXY=            -47.3193  XXZ=             29.4123  XZZ=             33.0486  YZZ=             -9.0250
  YYZ=             44.9826  XYZ=            -21.1234
 Hexadecapole moment (field-independent basis, Debye-Ang**3):
 XXXX=          -1032.5917 YYYY=          -3516.5242 ZZZZ=           -483.8300 XXXY=            219.4321
 XXXZ=           -284.6525 YYYX=           -278.3111 YYYZ=           -391.4342 ZZZX=           -181.1252
 ZZZY=              6.6825 XXYY=           -964.7687 XXZZ=           -246.8012 YYZZ=           -955.3211
 XXYZ=             37.3051 YYXZ=           -114.4857 ZZXY=             67.0245
 N-N= 1.266900845394D+03 E-N=-4.744349904290D+03  KE= 9.471104801200D+02
   1 Symmetry operations used in ECPInt.
 ECPInt:  NShTT=   26796 NPrTT=   83028 LenC2=   23065 LenP2D=   51314.
 LDataN:  DoStor=T MaxTD1= 7 Len=  274
 D1PCM: PCM CHGder 1st derivatives, ID1Alg=3 FixD1E=F DoIter=F DoCFld=F I1PDM=0.
 Calling FoFJK, ICntrl=      2127 FMM=F ISym2X=0 I1Cent= 0 IOpClX= 0 NMat=1 NMatS=1 NMatT=0.
 -------------------------------------------------------------------
 Center     Atomic                   Forces (Hartrees/Bohr)
 Number     Number              X              Y              Z
 -------------------------------------------------------------------
      1        1           0.000891218    0.002025576   -0.001013722
      2        6           0.000337513   -0.000006254   -0.000133901
      3        6          -0.000319726   -0.000570731   -0.000157807
      4        6           0.000044721   -0.001803961    0.001439938
      5        6           0.000112699   -0.000354190   -0.000114593
      6        8          -0.000140467   -0.000012851   -0.000045343
      7        6           0.000140223   -0.000208084   -0.000078912
      8        6           0.004209285    0.007821532    0.028817872
      9        6           0.000015477   -0.000177596    0.000017930
     10        1          -0.000063414   -0.000117668    0.000094268
     11        1           0.000008778   -0.000006431    0.000006597
     12        8           0.010102325    0.025780715   -0.004236439
     13        8          -0.001939762   -0.001528777    0.000791971
     14        8           0.000002239   -0.000029624   -0.000004393
     15        8           0.000003613    0.000045229   -0.000002784
     16        1          -0.000048968   -0.000242412   -0.000317332
     17        6           0.000947673   -0.004359623   -0.005233243
     18        8           0.000198347   -0.000433989   -0.000281318
     19        1           0.000091336    0.000132246   -0.000068221
     20        1          -0.006345107   -0.011460774   -0.004638950
     21        8          -0.006206758   -0.010379849   -0.012968871
     22        6          -0.000389728   -0.002671818   -0.001133545
     23        1          -0.000095047   -0.000188144   -0.000008354
     24        1          -0.000031445   -0.000101606   -0.000014139
     25        1          -0.000013885   -0.000355500   -0.000112486
     26        1          -0.001181320   -0.000896145   -0.000642173
     27        1          -0.000288437    0.000092662    0.000021538
     28        8          -0.000041382    0.000008070    0.000016409
 -------------------------------------------------------------------
 Cartesian Forces:  Max     0.028817872 RMS     0.005209581

 GradGradGradGradGradGradGradGradGradGradGradGradGradGradGradGradGradGrad
 Berny optimization.
 FormGI is forming the generalized inverse of G from B-inverse, IUseBI=4.
 Internal  Forces:  Max     0.021614110 RMS     0.003181972
 Search for a local minimum.
 Step number   1 out of a maximum of  155
 All quantities printed in internal units (Hartrees-Bohrs-Radians)
 Mixed Optimization -- RFO/linear search
 Second derivative matrix not updated -- first step.
 ITU=  0
     Eigenvalues ---    0.00558   0.00636   0.00792   0.00803   0.00887
     Eigenvalues ---    0.01463   0.01502   0.01574   0.01625   0.01843
     Eigenvalues ---    0.01960   0.02086   0.02209   0.02442   0.02490
     Eigenvalues ---    0.02575   0.02661   0.02701   0.04343   0.05009
     Eigenvalues ---    0.05339   0.05406   0.05635   0.06022   0.06869
     Eigenvalues ---    0.08551   0.08847   0.09255   0.11287   0.11315
     Eigenvalues ---    0.12117   0.12297   0.13734   0.14060   0.15999
     Eigenvalues ---    0.16000   0.16000   0.16000   0.16000   0.18159
     Eigenvalues ---    0.21954   0.22016   0.23496   0.23500   0.24993
     Eigenvalues ---    0.25000   0.25000   0.25000   0.25000   0.25000
     Eigenvalues ---    0.30390   0.30780   0.31370   0.32584   0.34436
     Eigenvalues ---    0.34933   0.35178   0.35239   0.35995   0.36072
     Eigenvalues ---    0.36194   0.36856   0.39170   0.39281   0.44791
     Eigenvalues ---    0.47272   0.48435   0.52714   0.53233   0.53524
     Eigenvalues ---    0.53670   0.54773   0.56432   0.56858   0.57290
     Eigenvalues ---    0.61021   1.05133   1.06385
 RFO step:  Lambda=-9.93191149D-03 EMin= 5.57640201D-03
 Linear search not attempted -- first point.
 Iteration  1 RMS(Cart)=  0.06319080 RMS(Int)=  0.00148785
 Iteration  2 RMS(Cart)=  0.00322084 RMS(Int)=  0.00028216
 Iteration  3 RMS(Cart)=  0.00000332 RMS(Int)=  0.00028216
 Iteration  4 RMS(Cart)=  0.00000000 RMS(Int)=  0.00028216
 Variable       Old X    -DE/DX   Delta X   Delta X   Delta X     New X
                                 (Linear)    (Quad)   (Total)
    R1        1.83167   0.00059   0.00000   0.00108   0.00108   1.83275
    R2        2.75460  -0.00008   0.00000  -0.00014  -0.00014   2.75447
    R3        2.59929  -0.00011   0.00000  -0.00016  -0.00017   2.59912
    R4        2.26186   0.00002   0.00000   0.00002   0.00002   2.26188
    R5        2.71297  -0.00102   0.00000  -0.00253  -0.00253   2.71044
    R6        2.53002  -0.00032   0.00000  -0.00060  -0.00060   2.52942
    R7        2.04089  -0.00003   0.00000  -0.00008  -0.00008   2.04081
    R8        2.53601   0.00017   0.00000   0.00030   0.00030   2.53631
    R9        2.85312  -0.00261   0.00000  -0.00807  -0.00807   2.84505
   R10        2.03969   0.00002   0.00000   0.00004   0.00004   2.03974
   R11        2.53449   0.00001   0.00000   0.00001   0.00001   2.53450
   R12        2.83088  -0.00014   0.00000  -0.00042  -0.00042   2.83047
   R13        2.66218  -0.01390   0.00000  -0.03173  -0.03134   2.63084
   R14        2.53151  -0.00293   0.00000  -0.00503  -0.00503   2.52648
   R15        2.80170   0.01366   0.00000   0.05003   0.05080   2.85249
   R16        2.50141  -0.00004   0.00000  -0.00007  -0.00007   2.50134
   R17        2.26651   0.00002   0.00000   0.00002   0.00002   2.26653
   R18        1.83437   0.00000   0.00000   0.00001   0.00001   1.83437
   R19        3.23546   0.02161   0.00000   0.21798   0.21718   3.45265
   R20        1.83033  -0.00014   0.00000  -0.00025  -0.00025   1.83008
   R21        2.05288   0.00020   0.00000   0.00054   0.00054   2.05342
   R22        2.05386   0.00003   0.00000   0.00009   0.00009   2.05395
   R23        2.76064   0.01031   0.00000   0.02724   0.02724   2.78788
   R24        2.86435   0.00308   0.00000   0.00969   0.00969   2.87403
   R25        2.65519   0.00065   0.00000   0.00142   0.00142   2.65661
   R26        1.82034   0.00000   0.00000   0.00000   0.00000   1.82035
   R27        1.87217   0.00213   0.00000   0.00627   0.00602   1.87819
   R28        2.05783   0.00001   0.00000   0.00004   0.00004   2.05787
   R29        2.06600   0.00001   0.00000   0.00002   0.00002   2.06602
    A1        2.02121   0.00003   0.00000   0.00031   0.00031   2.02152
    A2        2.19936   0.00000   0.00000  -0.00009  -0.00009   2.19927
    A3        2.06262  -0.00003   0.00000  -0.00022  -0.00022   2.06240
    A4        2.04611   0.00007   0.00000   0.00009   0.00009   2.04620
    A5        2.14792  -0.00016   0.00000  -0.00078  -0.00079   2.14714
    A6        2.08909   0.00009   0.00000   0.00072   0.00072   2.08980
    A7        2.10994   0.00022   0.00000   0.00083   0.00082   2.11076
    A8        2.02783  -0.00039   0.00000  -0.00142  -0.00144   2.02639
    A9        2.14518   0.00018   0.00000   0.00079   0.00077   2.14595
   A10        2.09976  -0.00023   0.00000  -0.00088  -0.00087   2.09889
   A11        2.02679  -0.00014   0.00000  -0.00107  -0.00108   2.02571
   A12        2.15662   0.00037   0.00000   0.00196   0.00195   2.15857
   A13        2.13878  -0.00016   0.00000  -0.00052  -0.00052   2.13826
   A14        2.15053   0.00007   0.00000   0.00017   0.00017   2.15070
   A15        2.12343  -0.00017   0.00000  -0.00060  -0.00060   2.12283
   A16        2.00922   0.00010   0.00000   0.00043   0.00043   2.00965
   A17        1.95839  -0.00393   0.00000  -0.01168  -0.01159   1.94680
   A18        2.02347   0.00365   0.00000  -0.00413  -0.00500   2.01847
   A19        1.93379  -0.00425   0.00000  -0.02773  -0.02880   1.90499
   A20        1.94661  -0.00125   0.00000  -0.00139  -0.00113   1.94547
   A21        1.61647   0.01046   0.00000   0.09145   0.09233   1.70880
   A22        1.94473  -0.00383   0.00000  -0.02995  -0.03099   1.91374
   A23        1.96366  -0.00001   0.00000  -0.00004  -0.00004   1.96362
   A24        2.12920   0.00005   0.00000   0.00019   0.00019   2.12939
   A25        2.19033  -0.00004   0.00000  -0.00015  -0.00015   2.19018
   A26        1.92706  -0.00048   0.00000  -0.01357  -0.01277   1.91429
   A27        2.10921   0.00149   0.00000   0.01692   0.01563   2.12484
   A28        1.26818  -0.00274   0.00000  -0.05671  -0.05708   1.21109
   A29        1.98211  -0.00168   0.00000  -0.00991  -0.00991   1.97220
   A30        1.89860  -0.00004   0.00000  -0.00025  -0.00025   1.89836
   A31        1.93628   0.00068   0.00000  -0.00341  -0.00347   1.93281
   A32        1.84765  -0.00140   0.00000  -0.00353  -0.00351   1.84414
   A33        1.95362  -0.00142   0.00000  -0.00770  -0.00773   1.94589
   A34        1.89304  -0.00176   0.00000  -0.00490  -0.00493   1.88811
   A35        1.97199  -0.00107   0.00000  -0.00361  -0.00366   1.96832
   A36        1.85399   0.00511   0.00000   0.02450   0.02449   1.87848
   A37        1.91092   0.00020   0.00000   0.00120   0.00120   1.91212
   A38        1.70696  -0.00021   0.00000  -0.00601  -0.00671   1.70026
   A39        2.10767   0.00392   0.00000   0.01046   0.01053   2.11820
   A40        1.67268  -0.00743   0.00000  -0.02895  -0.02873   1.64395
   A41        2.00942   0.00467   0.00000   0.03079   0.03057   2.03999
   A42        1.90031   0.00036   0.00000   0.00156   0.00156   1.90187
   A43        1.91441  -0.00009   0.00000  -0.00026  -0.00026   1.91414
   A44        1.92178   0.00029   0.00000   0.00264   0.00264   1.92442
   A45        1.87797  -0.00017   0.00000  -0.00145  -0.00145   1.87653
   A46        1.95547  -0.00037   0.00000  -0.00234  -0.00234   1.95312
   A47        1.89321  -0.00003   0.00000  -0.00025  -0.00025   1.89296
    D1       -0.00635  -0.00004   0.00000  -0.00044  -0.00044  -0.00679
    D2        3.13015   0.00000   0.00000   0.00123   0.00123   3.13139
    D3        3.13549  -0.00000   0.00000   0.00022   0.00022   3.13571
    D4       -0.01119   0.00004   0.00000   0.00189   0.00189  -0.00930
    D5       -0.00112   0.00000   0.00000  -0.00010  -0.00010  -0.00121
    D6        3.14025  -0.00003   0.00000  -0.00070  -0.00070   3.13955
    D7       -0.00320  -0.00009   0.00000  -0.00207  -0.00207  -0.00527
    D8       -3.12241  -0.00033   0.00000  -0.01135  -0.01134  -3.13376
    D9        3.12586   0.00001   0.00000   0.00050   0.00050   3.12636
   D10        0.00665  -0.00024   0.00000  -0.00878  -0.00878  -0.00213
   D11       -0.00449   0.00005   0.00000   0.00155   0.00155  -0.00294
   D12        3.13509   0.00008   0.00000   0.00221   0.00221   3.13729
   D13       -3.13400  -0.00004   0.00000  -0.00092  -0.00092  -3.13492
   D14        0.00558  -0.00001   0.00000  -0.00026  -0.00026   0.00532
   D15        0.00852   0.00008   0.00000   0.00153   0.00153   0.01005
   D16       -3.12759   0.00004   0.00000  -0.00026  -0.00026  -3.12785
   D17        3.12619   0.00034   0.00000   0.01142   0.01143   3.13762
   D18       -0.00992   0.00029   0.00000   0.00963   0.00964  -0.00028
   D19        1.27099  -0.00338   0.00000  -0.02956  -0.02961   1.24139
   D20       -0.99350  -0.00117   0.00000  -0.01232  -0.01238  -1.00588
   D21        3.05113   0.00497   0.00000   0.05898   0.05907   3.11020
   D22       -1.84772  -0.00363   0.00000  -0.03905  -0.03909  -1.88681
   D23        2.17097  -0.00142   0.00000  -0.02181  -0.02186   2.14911
   D24       -0.06758   0.00472   0.00000   0.04949   0.04959  -0.01799
   D25        0.00667  -0.00001   0.00000  -0.00052  -0.00052   0.00615
   D26       -3.13303  -0.00004   0.00000  -0.00113  -0.00113  -3.13416
   D27       -3.14069  -0.00003   0.00000  -0.00114  -0.00114   3.14135
   D28        0.00151  -0.00001   0.00000  -0.00021  -0.00021   0.00129
   D29       -0.00096  -0.00001   0.00000  -0.00054  -0.00054  -0.00150
   D30        3.14124   0.00002   0.00000   0.00039   0.00039  -3.14156
   D31       -2.15208   0.00013   0.00000   0.01566   0.01613  -2.13595
   D32        2.08570  -0.00085   0.00000   0.00986   0.00996   2.09567
   D33        0.15149   0.00060   0.00000  -0.00190  -0.00203   0.14946
   D34       -1.89392  -0.00037   0.00000  -0.00769  -0.00820  -1.90211
   D35        2.14597   0.00085   0.00000   0.00634   0.00708   2.15305
   D36        0.10057  -0.00013   0.00000   0.00055   0.00091   0.10148
   D37       -0.27242   0.00021   0.00000  -0.00513  -0.00516  -0.27757
   D38       -2.54256   0.00371   0.00000   0.01693   0.01708  -2.52548
   D39        1.96076  -0.00615   0.00000  -0.07566  -0.07578   1.88497
   D40        1.94702  -0.00196   0.00000  -0.05142  -0.05083   1.89619
   D41       -2.17381   0.00020   0.00000  -0.02942  -0.02900  -2.20282
   D42       -2.32962  -0.00262   0.00000  -0.03024  -0.03024  -2.35986
   D43       -0.16727  -0.00045   0.00000  -0.00824  -0.00842  -0.17568
   D44       -0.33350  -0.00014   0.00000   0.00269   0.00217  -0.33133
   D45        1.82885   0.00203   0.00000   0.02469   0.02400   1.85285
   D46       -3.14078   0.00002   0.00000   0.00063   0.00063  -3.14015
   D47        0.00018  -0.00001   0.00000  -0.00034  -0.00034  -0.00016
   D48       -1.96433   0.00199   0.00000   0.04718   0.04763  -1.91670
   D49       -0.15208  -0.00031   0.00000  -0.00229  -0.00222  -0.15430
   D50       -1.04809  -0.00133   0.00000  -0.00044  -0.00024  -1.04833
   D51       -3.04128   0.00199   0.00000   0.00538   0.00519  -3.03608
   D52        1.03087  -0.00219   0.00000  -0.00885  -0.00865   1.02222
   D53       -0.96231   0.00113   0.00000  -0.00302  -0.00322  -0.96553
   D54       -3.12769  -0.00150   0.00000  -0.00180  -0.00161  -3.12930
   D55        1.16232   0.00182   0.00000   0.00402   0.00382   1.16614
   D56        1.09104  -0.00059   0.00000  -0.00882  -0.00879   1.08225
   D57       -0.95973  -0.00055   0.00000  -0.00783  -0.00780  -0.96754
   D58       -3.04192  -0.00063   0.00000  -0.00899  -0.00896  -3.05088
   D59       -1.10999   0.00052   0.00000   0.00502   0.00501  -1.10498
   D60        3.12241   0.00056   0.00000   0.00601   0.00601   3.12842
   D61        1.04023   0.00048   0.00000   0.00485   0.00485   1.04508
   D62        3.09977  -0.00002   0.00000  -0.00272  -0.00274   3.09703
   D63        1.04899   0.00003   0.00000  -0.00173  -0.00175   1.04724
   D64       -1.03319  -0.00006   0.00000  -0.00289  -0.00291  -1.03610
   D65        1.36210   0.00023   0.00000   0.00515   0.00515   1.36725
   D66       -2.84734   0.00023   0.00000   0.00488   0.00488  -2.84246
   D67       -0.76784  -0.00014   0.00000   0.00227   0.00228  -0.76556
   D68        0.13857  -0.00136   0.00000  -0.00495  -0.00515   0.13342
   D69        2.37281   0.00069   0.00000   0.00345   0.00302   2.37584
         Item               Value     Threshold  Converged?
 Maximum Force            0.021614     0.000450     NO 
 RMS     Force            0.003182     0.000300     NO 
 Maximum Displacement     0.262199     0.001800     NO 
 RMS     Displacement     0.065515     0.001200     NO 
 Predicted change in Energy=-5.393773D-03
 GradGradGradGradGradGradGradGradGradGradGradGradGradGradGradGradGradGrad

                          Input orientation:                          
 ---------------------------------------------------------------------
 Center     Atomic      Atomic             Coordinates (Angstroms)
 Number     Number       Type             X           Y           Z
 ---------------------------------------------------------------------
      1          1           0        1.755244   -0.832100    2.689009
      2          6           0       -1.846118    0.861890   -0.942283
      3          6           0        0.559996    1.401015    0.414035
      4          6           0        0.082423    0.053995    0.292859
      5          6           0       -1.066503   -0.215888   -0.346297
      6          8           0       -1.330163    2.128052   -0.792811
      7          6           0       -0.183074    2.366639   -0.140065
      8          6           0        0.932352   -1.010393    0.934219
      9          6           0        0.220150    3.807340   -0.067576
     10          1           0        1.471946    1.657721    0.932437
     11          1           0       -0.330130    5.521756   -0.595859
     12          8           0        0.864739   -0.950370    2.323460
     13          8           0        2.197997   -1.075000    0.508282
     14          8           0       -0.643332    4.606316   -0.674283
     15          8           0        1.223725    4.159435    0.486875
     16          1           0        0.811674   -2.898158   -1.152917
     17          6           0        0.816373   -3.363680   -0.171072
     18          8           0        0.366145   -5.536676   -1.039835
     19          1           0        1.831942   -3.591657    0.141991
     20          1           0        0.280803   -2.573278    1.720679
     21          8           0        0.266239   -2.352592    0.751706
     22          6           0       -0.100205   -4.576454   -0.125056
     23          1           0        1.118157   -6.004484   -0.660951
     24          1           0       -1.104013   -4.289274   -0.434525
     25          1           0       -0.151915   -4.973562    0.892252
     26          1           0        2.342400   -0.598816   -0.322541
     27          1           0       -1.472883   -1.210159   -0.452825
     28          8           0       -2.877070    0.738545   -1.537745
 ---------------------------------------------------------------------
                    Distance matrix (angstroms):
                    1          2          3          4          5
     1  H    0.000000
     2  C    5.387550   0.000000
     3  C    3.404545   2.814186   0.000000
     4  C    3.053691   2.428485   1.434302   0.000000
     5  C    4.189875   1.457602   2.416191   1.342157   0.000000
     6  O    5.514100   1.375398   2.357491   2.734189   2.400613
     7  C    4.689634   2.381919   1.338511   2.367749   2.737229
     8  C    1.946337   3.840130   2.494821   1.505538   2.503274
     9  C    5.610675   3.702736   2.477468   3.773126   4.233146
    10  H    3.060230   3.893260   1.079950   2.216252   3.404305
    11  H    7.450546   4.912493   4.335057   5.554857   5.790085
    12  O    0.969852   4.614988   3.044304   2.396688   3.375910
    13  O    2.238436   4.712807   2.970283   2.407632   3.482146
    14  O    6.829441   3.941985   3.592546   4.710171   4.851834
    15  O    5.481544   4.726546   2.838084   4.265543   5.008270
    16  H    4.463106   4.609359   4.582747   3.367088   3.372352
    17  C    3.933248   5.053620   4.807328   3.526247   3.672128
    18  O    6.161729   6.770914   7.091041   5.754317   5.553761
    19  H    3.756107   5.876892   5.159324   4.046524   4.476072
    20  H    2.478576   4.838961   4.192883   2.996763   3.412464
    21  O    2.877877   4.202921   3.780196   2.456825   2.747238
    22  C    5.038040   5.769893   6.037932   4.652855   4.471825
    23  H    6.195294   7.484195   7.503902   6.219941   6.195126
    24  H    5.466614   5.229056   5.989021   4.560779   4.074514
    25  H    4.900745   6.347310   6.432009   5.068581   5.000594
    26  H    3.077110   4.478998   2.778278   2.431538   3.430425
    27  H    4.520493   2.161541   3.420859   2.138482   1.079383
    28  O    6.464573   1.196934   4.007710   3.546592   2.368258
                    6          7          8          9         10
     6  O    0.000000
     7  C    1.341198   0.000000
     8  C    4.236915   3.715187   0.000000
     9  C    2.397799   1.497819   4.972060   0.000000
    10  H    3.324080   2.095691   2.722131   2.681023   0.000000
    11  H    3.543457   3.191260   6.826711   1.876463   4.529231
    12  O    4.899533   4.262561   1.392180   5.363615   3.017579
    13  O    4.939666   4.234942   1.336957   5.299126   2.859164
    14  O    2.574408   2.348058   6.051238   1.323652   3.968648
    15  O    3.505204   2.363526   5.197321   1.199396   2.553177
    16  H    5.475393   5.452842   2.816799   6.818473   5.053780
    17  C    5.929022   5.816908   2.602514   7.196508   5.182854
    18  O    7.854078   7.973306   4.970384   9.395597   7.541353
    19  H    6.602108   6.296121   2.846017   7.575417   5.320749
    20  H    5.569142   5.299088   1.866988   6.626751   4.465590
    21  O    5.001020   4.823721   1.509475   6.214347   4.191540
    22  C    6.849022   6.943604   3.860703   8.390109   6.515742
    23  H    8.494104   8.487651   5.245954   9.870684   7.834120
    24  H    6.431297   6.725772   4.095278   8.212382   6.623511
    25  H    7.393283   7.412503   4.109027   8.841038   6.827331
    26  H    4.598334   3.899390   1.933153   4.897261   2.724815
    27  H    3.358513   3.815090   2.783694   5.309432   4.337707
    28  O    2.208750   3.444098   4.866322   4.601268   5.085334
                   11         12         13         14         15
    11  H    0.000000
    12  O    7.199900   0.000000
    13  O    7.150367   2.255655   0.000000
    14  O    0.970709   6.491341   6.461344   0.000000
    15  O    2.332959   5.441694   5.324376   2.243633   0.000000
    16  H    8.515221   3.985209   2.829378   7.659195   7.257295
    17  C    8.969164   3.471181   2.758344   8.118177   7.562810
    18  O   11.089222   5.709164   5.065461  10.199655   9.852962
    19  H    9.395386   3.559591   2.569382   8.602328   7.782564
    20  H    8.442107   1.827062   2.718524   7.624725   6.909472
    21  O    8.011052   2.189713   2.328773   7.161506   6.587368
    22  C   10.111794   4.480495   4.235921   9.215200   8.856806
    23  H   11.617056   5.874947   5.180055  10.756026  10.229071
    24  H    9.842827   4.757179   4.703585   8.910737   8.811812
    25  H   10.601790   4.389535   4.568184   9.719547   9.244910
    26  H    6.684199   3.050967   0.968438   6.010966   4.954548
    27  H    6.829716   3.638644   3.797019   5.879505   6.081716
    28  O    5.500288   5.635821   5.764675   4.549154   5.711225
                   16         17         18         19         20
    16  H    0.000000
    17  C    1.086625   0.000000
    18  O    2.678257   2.383142   0.000000
    19  H    1.788483   1.086905   2.707097   0.000000
    20  H    2.940226   2.119031   4.050858   2.436265   0.000000
    21  O    2.054928   1.475285   3.654858   2.087693   0.993893
    22  C    2.169032   1.520873   1.405820   2.185025   2.750385
    23  H    3.159940   2.702757   0.963286   2.641200   4.259871
    24  H    2.474096   2.148026   2.020836   3.072275   3.083385
    25  H    3.068961   2.158693   2.078086   2.531451   2.575830
    26  H    2.884375   3.161673   5.366801   3.071393   3.510475
    27  H    2.925521   3.155588   4.737653   4.116699   3.107672
    28  O    5.194280   5.686614   7.081296   6.614148   5.617621
                   21         22         23         24         25
    21  O    0.000000
    22  C    2.418378   0.000000
    23  H    4.007203   1.952142   0.000000
    24  H    2.652446   1.088979   2.816248   0.000000
    25  H    2.657835   1.093290   2.255730   1.770615   0.000000
    26  H    2.922359   4.671930   5.552886   5.050721   5.180322
    27  H    2.404287   3.650154   5.453656   3.101185   4.209203
    28  O    4.967606   6.160835   7.886637   5.444244   6.779346
                   26         27         28
    26  H    0.000000
    27  H    3.866148   0.000000
    28  O    5.523416   2.635572   0.000000
 Symmetry turned off by external request.
 Stoichiometry    C9H11O8(1+)
 Framework group  C1[X(C9H11O8)]
 Deg. of freedom    78
 Full point group                 C1      NOp   1
 Rotational constants (GHZ):           0.8790927           0.2259995           0.1915251
 Standard basis: def2TZVP (5D, 7F)
   593 basis functions,   955 primitive gaussians,   678 cartesian basis functions
[...]
 ,0.04823022,-0.03092328,-0.11171118,-0.00239575,-0.00506247,0.00127973
 ,0.00328916,-0.00420257,-0.00085946,0.04408487,0.15006406,-0.41424525,
 -0.12771001,-0.07793207,0.64416025,-0.00041976,0.00023928,-0.00023482,
 0.00041803,-0.00024591,0.00035165,-0.00043315,0.00017137,-0.00037413,0
 .00123362,0.00058917,0.00034940,-0.00020303,0.00027938,-0.00007747,-0.
 00014461,-0.00000723,-0.00011078,0.00022575,0.00022607,0.00015643,-0.0
 0770697,-0.00633193,0.00064291,-0.00009408,-0.00028923,-0.00003462,0.0
 0000154,-0.00005229,0.00000797,-0.00000236,-0.00000988,-0.00000249,0.0
 0151604,0.00219118,0.00363827,0.00196788,-0.00066697,-0.00155050,-0.00
 002961,0.00014787,-0.00003395,0.00006564,0.00012736,0.00003522,-0.0019
 2828,-0.00160713,0.00015065,-0.15183680,-0.07387124,-0.00110584,-0.094
 83391,0.04734077,0.01303071,-0.01814169,-0.02533309,0.00163080,0.00109
 593,0.00123545,-0.00133025,0.01164658,0.02709492,0.00607394,0.59202174
 ,-0.00024457,0.00000104,-0.00028796,0.00057723,-0.00019065,0.00043777,
 -0.00026488,0.00015042,-0.00017730,0.00048190,-0.00009587,0.00027458,-
 0.00031811,0.00009607,-0.00020371,-0.00019818,0.00010224,-0.00015591,0
 .00021902,0.00020006,0.00014303,-0.00047445,-0.00286599,-0.00131662,-0
 .00008991,-0.00040331,-0.00003065,-0.00000057,-0.00002781,-0.00000747,
 -0.00000177,-0.00001601,0.00000103,0.00039470,0.00070446,0.00154514,0.
 00053618,0.00180287,0.00022251,-0.00003798,0.00017239,-0.00004251,0.00
 009419,0.00017495,0.00004966,-0.01246057,-0.01174364,-0.00028466,-0.06
 348611,-0.13204281,0.01676875,0.05863090,-0.15466104,-0.06410240,0.006
 13755,0.00924158,0.00051697,0.00028047,0.00231836,-0.00164871,-0.00804
 691,-0.02118471,-0.00468641,-0.05469736,0.50471884,0.00011792,-0.00014
 998,0.00000198,0.00007199,-0.00001763,0.00007212,0.00012552,-0.0000718
 1,0.00006042,-0.00037569,-0.00049326,-0.00016023,-0.00004546,-0.000033
 76,-0.00005162,0.00001047,0.00002778,-0.00000742,-0.00004678,-0.000016
 01,-0.00002094,0.00411758,0.00238104,-0.00136708,0.00000592,-0.0000209
 6,0.00001503,-0.00000215,0.00001258,-0.00000970,0.00000065,-0.00000157
 ,0.00000151,-0.00088391,-0.00120176,-0.00160805,-0.00051926,0.00129992
 ,0.00143601,-0.00000184,-0.00000075,-0.00000354,0.00000489,0.00000597,
 0.00000030,0.02120771,0.02403397,0.00256194,0.00235290,0.02826948,-0.0
 7585830,0.04159590,-0.09954628,-0.16940140,-0.00676297,-0.00869389,0.0
 0149597,-0.00191818,-0.00324785,0.00052281,-0.01050486,-0.03113302,-0.
 00998695,0.02252463,-0.05618871,0.59028934,0.00003024,-0.00001468,0.00
 001810,-0.00002750,0.00001774,-0.00002566,0.00002546,-0.00001123,0.000
 02089,-0.00006643,-0.00002956,-0.00002137,0.00000855,-0.00000853,0.000
 01293,0.00000963,-0.00000803,0.00000838,-0.00001527,-0.00001636,-0.000
 01081,0.00044417,0.00049996,0.00001471,0.00001042,0.00002691,0.0000040
 4,0.00000046,0.00000215,-0.00000067,0.00000068,0.00000083,-0.00000019,
 -0.00009596,-0.00013703,-0.00021974,-0.00015830,-0.00001466,0.00007372
 ,0.00000081,-0.00001124,0.00000234,-0.00000869,-0.00001225,-0.00000396
 ,-0.00001873,-0.00003290,-0.00003304,0.00266903,-0.00040775,-0.0000439
 2,-0.27115303,0.21424356,-0.14353227,-0.00092856,0.00038891,-0.0005119
 9,0.00003711,0.00016052,0.00008537,-0.00067232,-0.00134780,-0.00052963
 ,-0.01301416,0.00595073,-0.00598016,0.28188720,-0.00005169,0.00000795,
 -0.00005372,0.00009534,-0.00004208,0.00007018,-0.00005788,0.00002475,-
 0.00004764,0.00013154,0.00006660,0.00005558,-0.00004240,0.00002805,-0.
 00002426,-0.00003221,0.00001465,-0.00002433,0.00004192,0.00003997,0.00
 002672,-0.00068849,-0.00099271,-0.00032519,-0.00001811,-0.00007163,-0.
 00000660,0.00000033,-0.00000532,-0.00000051,-0.00000014,-0.00000309,-0
 .00000034,0.00011591,0.00017032,0.00034850,0.00020828,0.00020704,-0.00
 002932,-0.00000693,0.00003165,-0.00000705,0.00001675,0.00003135,0.0000
 0954,-0.00002960,0.00021371,-0.00000977,0.00220063,-0.00244573,0.00017
 378,0.19915042,-0.16790579,0.08838449,-0.00044539,-0.00171461,-0.00024
 492,0.00009974,-0.00007818,-0.00024434,-0.00042547,0.00168617,0.000353
 53,0.02114770,-0.01929359,0.01069636,-0.21987041,0.18883101,0.00001116
 ,-0.00001375,0.00001054,-0.00002103,0.00000553,-0.00001667,0.00000947,
 -0.00000497,0.00000486,-0.00001723,-0.00000739,-0.00001087,0.00000260,
 0.00000239,0.00001165,0.00000704,-0.00000593,0.00000529,-0.00000665,-0
 .00000661,-0.00000515,0.00014606,0.00022751,0.00000845,0.00000346,0.00
 001499,0.00000275,-0.00000030,0.00000027,0.00000058,-0.00000021,0.0000
 0064,0.00000036,-0.00003792,-0.00005853,-0.00011103,-0.00005561,-0.000
 02415,0.00002720,0.00000124,-0.00000587,0.00000069,-0.00000363,-0.0000
 0666,-0.00000288,-0.00007175,0.00008718,-0.00006100,0.00107183,0.00004
 266,-0.00007757,-0.17887870,0.12514525,-0.12969142,-0.00073758,-0.0001
 0303,-0.00030110,0.00004466,-0.00007775,0.00004754,-0.00043162,-0.0004
 9236,-0.00018640,0.02664268,-0.02324220,0.00676143,0.14927996,-0.09696
 466,0.12533487,0.00001705,-0.00000524,0.00002952,-0.00000505,0.0000203
 2,-0.00000789,0.00003462,-0.00000706,0.00002375,-0.00007370,-0.0000094
 6,-0.00004360,0.00001101,-0.00003154,0.00000163,0.00000514,0.00001707,
 0.00000370,-0.00001302,-0.00000817,-0.00000877,-0.00006599,0.00011098,
 0.00024396,0.00000206,0.00000327,0.00000093,0.00000038,0.00000813,0.00
 000040,0.00000015,-0.00000007,0.00000025,-0.00002602,-0.00003538,-0.00
 017329,0.00010913,-0.00022478,-0.00013446,0.00000141,-0.00000469,0.000
 00124,0.00000068,-0.00000124,0.00000062,0.00104482,0.00051508,0.000171
 01,-0.02213430,0.00506049,-0.00812135,-0.00790460,0.00988152,0.0011872
 3,-0.00100289,-0.00310982,0.00044456,-0.00024350,-0.00012356,0.0000225
 5,0.00102395,-0.00008977,-0.00021100,-0.26388254,0.07476476,-0.0778841
 8,0.00040195,-0.00075573,0.00189372,0.28832970,-0.00001786,0.00001136,
 0.00001537,0.00014148,0.00003351,0.00010557,0.00001987,0.00001771,-0.0
 0000329,0.00002392,0.00003516,-0.00002655,-0.00011963,-0.00012339,-0.0
 0003581,-0.00003826,0.00005192,-0.00003485,0.00002341,0.00002873,0.000
 01795,-0.00060359,-0.00042231,0.00017428,-0.00001313,-0.00007486,-0.00
 000043,0.00000029,0.00001306,-0.00000041,0.00000012,-0.00000302,0.0000
 0058,0.00009046,0.00012871,0.00015368,0.00029088,-0.00038354,-0.000200
 17,-0.00000614,0.00002686,-0.00000735,0.00001869,0.00003198,0.00000965
 ,0.00080389,0.00134151,0.00019870,-0.02751890,0.00773796,-0.00990008,0
 .02826949,-0.01740960,0.00297935,-0.00281832,-0.00432044,-0.00042021,-
 0.00009129,-0.00012278,-0.00002791,0.00127378,0.00263978,0.00100747,0.
 07072948,-0.07555039,0.02971589,0.00200272,-0.00107130,-0.00430945,-0.
 08369981,0.09098476,-0.00000249,0.00000280,-0.00000211,0.00002522,0.00
 000715,0.00001055,-0.00000169,0.00000028,0.00000406,0.00000513,0.00000
 449,-0.00000586,-0.00002538,-0.00001413,-0.00002209,-0.00000755,0.0000
 1054,-0.00000327,0.00000459,0.00000252,-0.00000112,-0.00007268,-0.0001
 4075,0.00002008,-0.00000224,-0.00000895,0.00000020,0.00000027,0.000000
 80,0.00000063,-0.00000016,-0.00000042,0.00000029,0.00000940,0.00002275
 ,0.00003136,0.00007404,-0.00000191,-0.00002989,-0.00000059,0.00000351,
 -0.00000121,0.00000274,0.00000402,0.00000078,0.00040842,-0.00061051,0.
 00057017,0.00139297,0.00112098,0.00056596,0.02588558,-0.01575835,0.007
 38710,0.00056143,-0.00037362,0.00092021,-0.00024997,0.00029630,-0.0001
 2377,-0.00013723,0.00015732,0.00008627,-0.08745665,0.03429635,-0.08492
 886,0.00304018,-0.00254624,-0.00280608,0.08231902,-0.02409804,0.085990
 72,0.00000814,-0.00001613,0.00001950,-0.00002832,0.00002225,-0.0000347
 4,0.00000070,0.00000453,0.00000971,0.00003079,0.00009573,0.00002801,0.
 00001344,-0.00003183,0.00000736,0.00000325,-0.00000150,0.00000676,-0.0
 0000244,-0.00000745,-0.00000250,-0.00031183,0.00002119,0.00000334,0.00
 000466,0.00001849,-0.00000109,-0.00000005,0.00000365,0.00000031,0.0000
 0009,0.00000080,-0.00000020,-0.00000700,-0.00001984,-0.00007811,0.0000
 5117,-0.00024984,-0.00020709,0.00000147,-0.00000703,0.00000228,-0.0000
 0474,-0.00000786,-0.00000189,-0.00196014,-0.00324999,-0.00032773,-0.00
 247922,-0.01353889,0.02160830,-0.00030269,0.00104913,0.01452124,0.0009
 5883,0.00101598,0.00012755,0.00009892,-0.00089152,-0.00047694,0.000313
 64,0.00138121,0.00011435,-0.05723837,-0.00741738,0.01327437,0.00061074
 ,-0.00070577,0.00114749,0.00483413,0.01173047,-0.02545190,0.05528535,0
 .00000307,-0.00001355,0.00002826,-0.00006651,0.00002489,-0.00005143,0.
 00000092,0.00000506,-0.00000229,0.00002603,0.00010569,0.00003981,0.000
 02379,-0.00000051,0.00001435,0.00001559,-0.00001682,0.00001455,-0.0000
 1035,-0.00001622,-0.00001023,-0.00049177,-0.00009519,0.00011426,0.0000
 0738,0.00004480,0.00000305,-0.00000058,-0.00000012,0.00000275,-0.00000
 016,0.00000185,0.00000007,0.00000093,-0.00000133,-0.00008241,0.0001128
 3,-0.00031722,-0.00036142,0.00000383,-0.00001620,0.00000363,-0.0000108
 4,-0.00001875,-0.00000674,-0.00331029,-0.00335811,-0.00133703,-0.00202
 098,-0.01227840,0.02448261,0.00668994,0.00574797,-0.03477416,0.0003012
 4,0.00115397,-0.00058549,-0.00048700,-0.00213452,-0.00117016,0.0003461
 8,0.00212050,0.00055535,-0.00903170,-0.10078952,0.10505142,-0.00138836
 ,0.00235443,-0.00027065,-0.00160221,-0.00255003,0.00815232,0.01075424,
 0.10971285,-0.00001964,0.00001623,-0.00001040,0.00002071,-0.00000668,0
 .00001240,-0.00001347,0.00001563,-0.00001519,0.00003380,0.00001753,0.0
 0000521,-0.00001233,0.00001336,-0.00000435,-0.00000916,0.00000505,-0.0
 0000624,0.00001217,0.00000883,0.00000424,-0.00022601,-0.00018891,0.000
 07386,-0.00000516,-0.00001565,-0.00000142,0.00000040,-0.00000274,0.000
 00016,0.00000035,-0.00000059,-0.00000071,0.00006814,0.00011019,0.00021
 267,-0.00008070,-0.00007716,-0.00016151,-0.00000190,0.00000736,-0.0000
 0087,0.00000369,0.00000780,0.00000266,-0.00024181,-0.00143321,0.000572
 01,-0.00022717,-0.00084262,0.00197035,0.00855251,-0.00338295,-0.027173
 60,0.00022342,0.00029213,0.00050447,0.00051390,0.00068165,-0.00050612,
 -0.00025883,0.00120283,0.00212965,0.01703499,0.09800365,-0.25957876,-0
 .00163970,0.00040206,0.00106051,0.00056718,0.00509397,-0.00735706,-0.0
 2432206,-0.09989166,0.28825575,-0.00078779,0.00033465,0.00059877,-0.00
 167371,0.00112303,-0.00124931,0.00024474,0.00037032,0.00074047,-0.0004
 7314,0.00079427,0.00085088,0.00005766,-0.00131797,0.00009497,0.0004954
 2,-0.00023090,0.00036159,-0.00050636,-0.00023684,-0.00035839,-0.007194
 72,-0.00983386,0.04521063,0.00022118,0.00101910,0.00007917,0.00001847,
 0.00003057,0.00004910,0.00000579,0.00003679,-0.00000431,-0.00267844,0.
 00117069,0.00201250,-0.03669570,0.01394901,-0.01914572,0.00008284,-0.0
 0040818,0.00009652,-0.00025831,-0.00044139,-0.00013477,-0.00101566,-0.
 00144941,-0.00181177,-0.00020312,-0.00053910,0.00081749,-0.00006156,0.
 00017179,0.00012021,0.00002903,-0.00004264,-0.00011690,-0.00018432,-0.
 00008218,0.00013159,-0.00274906,-0.00164334,0.00017779,-0.00004295,-0.
 00027699,-0.00055242,0.00001964,-0.00005220,-0.00000148,0.00002868,0.0
 0001704,0.00001247,0.00011274,0.00016552,0.00003235,0.05215171,0.00028
 561,-0.00074497,0.00059410,0.00044409,0.00027031,0.00029871,0.00036797
 ,0.00001331,-0.00036117,0.00010224,-0.00029155,-0.00108855,-0.00017170
 ,0.00035360,0.00018434,-0.00064792,-0.00036603,-0.00048886,0.00052527,
 -0.00013756,0.00068475,-0.00007560,-0.00130925,-0.00591613,-0.00001738
 ,-0.00064005,-0.00004227,0.00003247,-0.00024552,-0.00031639,0.00000120
 ,-0.00002525,0.00000230,0.00522853,0.00267288,-0.00739090,0.00082269,-
 0.04153506,0.14191691,-0.00007269,0.00022400,-0.00006096,0.00010737,0.
 00026148,0.00007769,-0.00183375,-0.00192080,-0.00148868,-0.00027172,-0
 .00004189,0.00143340,-0.00008537,0.00022012,0.00015467,0.00014373,-0.0
 0029404,0.00025520,0.00000555,-0.00018535,0.00012046,-0.00250072,-0.00
 190285,-0.00029392,0.00002969,-0.00055592,-0.00083552,0.00001099,-0.00
 008656,0.00000489,0.00009095,0.00007919,0.00002098,0.00017607,0.000249
 83,0.00002068,-0.00230286,0.04595824,0.00025882,-0.00023631,0.00005115
 ,0.00126354,-0.00068718,0.00010648,0.00017094,-0.00008893,-0.00044259,
 -0.00150360,-0.00076311,0.00200801,-0.00074157,0.00099892,-0.00044823,
 -0.00049599,0.00017556,-0.00033116,0.00046548,-0.00006134,0.00026249,0
 .00509674,0.00535099,-0.01731992,-0.00013477,-0.00059530,0.00002066,0.
 00007978,-0.00024009,-0.00008511,-0.00000373,-0.00002191,0.00000415,0.
 00151958,0.00016200,0.00233760,0.02878806,0.12741053,-0.46744668,-0.00
 005919,0.00026801,-0.00007254,0.00013424,0.00027699,0.00005201,-0.0011
 4316,-0.00117393,-0.00274125,-0.00060905,0.00070106,0.00165676,-0.0000
 2839,-0.00034324,-0.00016174,0.00009361,0.00007691,-0.00019763,-0.0000
 3872,-0.00026946,-0.00066359,-0.00364590,-0.00428891,0.00042955,0.0002
 9618,0.00031212,-0.00018040,-0.00001980,0.00004271,-0.00000722,-0.0000
 2886,-0.00000704,0.00000956,0.00001804,0.00003589,0.00002372,-0.028823
 42,-0.12719895,0.48324696,-0.00010931,-0.00002049,0.00006185,0.0083102
 1,0.01574504,0.00223389,-0.00042745,0.00000040,-0.00661333,-0.00153576
 ,-0.02298590,-0.00308158,-0.08245355,-0.09453109,-0.02038781,0.0004499
 2,0.00539877,-0.00233941,-0.00179483,-0.00017993,-0.00085895,-0.002152
 00,-0.00201006,0.00315761,-0.00052665,0.00012531,0.00064801,0.00017871
 ,-0.00101639,-0.00007695,0.00002232,-0.00001104,0.00001376,0.00081293,
 0.00008480,0.00079832,-0.00046478,0.00047014,-0.00032939,0.00009886,-0
 .00001845,0.00000473,0.00017976,-0.00003533,-0.00000764,-0.00051614,0.
 00020605,0.00035046,-0.00045004,0.00092634,0.00007601,0.00004362,-0.00
 027265,-0.00008792,0.00001130,-0.00014631,0.00010674,0.00037439,0.0000
 2936,-0.00023063,-0.00067454,0.00129813,-0.00061148,0.00011537,0.00033
 580,0.00010151,-0.00001781,0.00004107,-0.00001093,-0.00051074,-0.00045
 288,-0.00032683,-0.00001825,-0.00007207,0.00000960,-0.00009530,-0.0000
 4863,-0.00013607,0.08113391,0.00000756,-0.00000419,-0.00000248,-0.0089
 6367,-0.01447826,-0.00440907,-0.00068050,0.00215171,0.00049388,-0.0015
 3981,-0.00045682,-0.00022508,-0.09290824,-0.32263755,-0.03365495,0.000
 44500,-0.00422546,0.00108947,0.00221201,0.00113116,0.00137222,0.000267
 62,0.00023397,-0.00049737,0.00004774,-0.00055143,-0.00009944,0.0001031
 6,0.00009227,0.00010963,-0.00001510,0.00000056,-0.00001020,-0.00014628
 ,-0.00006312,-0.00022551,-0.00007637,-0.00018023,0.00008960,-0.0000903
 7,0.00006477,-0.00005713,0.00002662,0.00011956,0.00003030,0.00009437,0
 .00015415,-0.00012728,0.00066661,-0.00023718,0.00067831,-0.00028408,0.
 00038804,0.00002517,-0.00002357,0.00005040,-0.00015391,0.00017155,-0.0
 0003715,0.00020569,0.00284504,-0.00240091,0.00244139,0.00054972,-0.000
 33212,0.00015831,0.00001161,-0.00000989,0.00006539,-0.00076288,-0.0011
 3813,-0.00054968,-0.00012663,0.00009262,-0.00006072,-0.00008750,0.0000
 2671,-0.00002012,0.09820678,0.34019722,0.00001742,-0.00001933,-0.00014
 585,0.00457882,0.01235663,0.00459239,-0.00668617,0.00053106,0.00468159
 ,-0.00566229,-0.01472478,0.00401501,-0.01957593,-0.03348953,-0.0464486
 4,-0.00192625,0.00405902,0.00148286,-0.00093535,-0.00023928,-0.0011543
 1,0.00283960,-0.00190698,-0.00412547,0.00066839,-0.00001104,-0.0010644
 9,-0.00016405,-0.00066256,0.00036860,0.00001274,-0.00000691,0.00001315
 ,-0.00086134,0.00045505,-0.00043916,0.00137146,-0.00031148,0.00018926,
 0.00000546,-0.00000340,0.00010331,-0.00002228,-0.00001957,0.00019112,0
 .00017716,0.00006415,-0.00000986,-0.00005833,0.00074820,0.00086028,0.0
 0001392,-0.00009361,-0.00003437,0.00005416,-0.00010100,-0.00014112,-0.
 00012039,0.00007770,-0.00029471,-0.00075234,0.00108089,-0.00085781,-0.
 00000417,0.00007552,-0.00002343,-0.00000373,0.00001129,-0.00000739,-0.
 00031110,-0.00035961,-0.00030931,-0.00000512,0.00001646,-0.00000445,-0
 .00000985,-0.00006303,0.00025558,0.02656012,0.03363151,0.03887492,0.00
 041296,0.00001488,0.00014411,-0.52550278,-0.04755795,-0.30586463,-0.00
 196166,-0.01238197,-0.00012286,0.00953571,0.01788915,0.00303693,-0.044
 03281,0.00850019,-0.04784751,-0.03833212,-0.06598073,-0.02955166,0.002
 32258,-0.00127003,-0.00207935,0.00241735,-0.00582083,0.00490147,-0.000
 24644,0.00953988,-0.00113156,0.00010204,0.00021335,0.00023659,-0.00010
 708,0.00043545,-0.00011234,-0.00143837,0.00121779,-0.00238615,-0.00333
 498,0.00196125,-0.00055837,0.00077012,-0.00355435,0.00082266,-0.003002
 79,-0.00527550,-0.00146840,0.00001111,-0.00019065,-0.00010603,0.000699
 11,-0.00075333,-0.00102948,0.00003137,0.00043234,0.00019288,-0.0000551
 6,0.00014175,0.00009695,-0.00023004,-0.00001956,0.00051746,-0.00031788
 ,0.00215936,-0.00009490,-0.00035587,-0.00038769,-0.00003408,0.00002069
 ,-0.00006719,0.00001328,0.00001753,-0.00005616,-0.00000608,0.00002499,
 0.00004131,-0.00001526,0.00115226,-0.00034608,-0.00077278,0.00001586,0
 .00004959,0.00079944,0.60138431,-0.00010266,-0.00005740,0.00007705,-0.
 05658434,-0.09733028,-0.03682268,-0.00463354,0.00271067,-0.00318532,0.
 00205088,-0.00954484,0.00213732,0.02401657,0.01660846,0.01735646,-0.07
 491432,-0.03251180,-0.04732918,0.01132969,-0.00306129,0.00866942,-0.00
 031086,0.00212286,-0.00087904,-0.00150487,0.00058940,-0.00108384,-0.00
 002130,0.00071221,-0.00012338,-0.00004160,0.00006446,-0.00003594,0.000
 65049,-0.00026852,0.00088254,0.00110735,-0.00056848,0.00015771,-0.0001
 0365,-0.00036265,-0.00003289,-0.00069430,-0.00145023,-0.00037005,0.000
 00442,0.00001795,0.00001217,-0.00014122,0.00013908,0.00017852,0.000003
 80,-0.00007799,-0.00003103,0.00001551,-0.00001419,-0.00001943,0.000038
 59,0.00001517,-0.00008786,0.00003837,-0.00018860,-0.00000911,0.0000445
 4,0.00007009,0.00000004,-0.00000585,0.00001286,-0.00000273,-0.00000115
 ,0.00000758,-0.00000052,-0.00000211,-0.00000797,0.00000394,-0.00023741
 ,-0.00004703,0.00018410,-0.00106677,0.00204929,-0.00109541,0.10106573,
 0.12037121,0.00038336,0.00006588,-0.00005374,-0.30497854,-0.03060202,-
 0.28159402,-0.00123002,-0.00863805,0.00058394,0.00395464,0.01351874,0.
 00501096,-0.04934460,0.00664623,-0.00976018,-0.02872638,-0.04118620,-0
 .00257249,-0.00328950,-0.00004307,0.00351149,0.00376970,-0.00452595,0.
 00023976,-0.00014160,0.00646433,-0.00051705,0.00029545,0.00005748,-0.0
 0014668,-0.00006616,0.00029129,-0.00007956,-0.00188983,0.00122142,-0.0
 0224210,-0.00154069,0.00083749,-0.00010628,0.00049983,-0.00239051,0.00
 061728,-0.00184743,-0.00348529,-0.00116368,0.00001416,-0.00016438,-0.0
 0008475,0.00052764,-0.00052550,-0.00071716,0.00001556,0.00030892,0.000
 14560,-0.00003507,0.00010521,0.00005971,-0.00018823,-0.00002564,0.0003
 4441,-0.00019935,0.00147216,0.00001784,-0.00025077,-0.00027185,-0.0000
 3217,0.00001605,-0.00004585,0.00000808,0.00001324,-0.00004125,-0.00000
 731,0.00002074,0.00002889,-0.00000698,0.00082186,-0.00022374,-0.000366
 60,0.00097630,-0.00029792,-0.00056770,0.38241966,0.06144914,0.28947940
 \\-0.00000720,-0.00000917,-0.00000230,-0.00000415,-0.00000263,0.000006
 75,0.00000004,0.00000066,-0.00000211,-0.00000278,0.00000338,-0.0000009
 5,0.00000510,0.00000331,-0.00000053,0.00001054,0.00000284,-0.00000563,
 -0.00000004,0.00000204,-0.00000093,-0.00001136,-0.00006205,0.00000513,
 -0.00000075,-0.00000074,0.00000185,0.00000105,-0.00000059,0.00000182,0
 .00000489,0.00000033,-0.00000157,-0.00000931,0.00002783,-0.00000782,-0
 .00000447,-0.00000707,-0.00000739,0.00000536,0.00000062,-0.00000236,0.
 00000473,0.00000006,0.00000008,-0.00000048,0.00000424,0.00000531,-0.00
 000567,-0.00000806,-0.00001102,-0.00000165,0.00000758,0.00000579,-0.00
 000200,-0.00000552,0.00000084,-0.00000417,-0.00000551,-0.00001086,0.00
 001932,0.00004283,0.00003032,-0.00000472,-0.00000827,-0.00000317,-0.00
 000271,-0.00000013,0.00000052,0.00000001,-0.00000110,-0.00000285,-0.00
 000327,0.00000456,0.00000068,0.00000957,0.00001124,0.00000807,0.000000
 29,-0.00000178,-0.00000233,0.00000383,0.00000109,-0.00000535\\\@


 I LOVE THOSE WHO LONG FOR THE IMPOSSIBLE.

                                 -- GOETHE
 Job cpu time:       0 days 10 hours 29 minutes 24.9 seconds.
 Elapsed time:       0 days  0 hours 17 minutes 31.1 seconds.
 File lengths (MBytes):  RWF=    990 Int=      0 D2E=      0 Chk=     42 Scr=      1
 Normal termination of Gaussian 16 at Wed Aug 14 21:25:35 2019.
