 Entering Gaussian System, Link 0=g16
 Initial command:
 /nopt/nrel/apps/gaussian/g16B/g16/l1.exe "/dev/shm/Gau-33519.inp" -scrdir="/dev/shm/"
 Default is to use a total of  36 processors:
                               36 via shared-memory
                                1 via Linda
 Entering Link 1 = /nopt/nrel/apps/gaussian/g16B/g16/l1.exe PID=     33521.
  
 Copyright (c) 1988-2017, Gaussian, Inc.  All Rights Reserved.
  
 This is part of the Gaussian(R) 16 program.  It is based on
 the Gaussian(R) 09 system (copyright 2009, Gaussian, Inc.),
 the Gaussian(R) 03 system (copyright 2003, Gaussian, Inc.),
 the Gaussian(R) 98 system (copyright 1998, Gaussian, Inc.),
 the Gaussian(R) 94 system (copyright 1995, Gaussian, Inc.),
 the Gaussian 92(TM) system (copyright 1992, Gaussian, Inc.),
 the Gaussian 90(TM) system (copyright 1990, Gaussian, Inc.),
 the Gaussian 88(TM) system (copyright 1988, Gaussian, Inc.),
 the Gaussian 86(TM) system (copyright 1986, Carnegie Mellon
 University), and the Gaussian 82(TM) system (copyright 1983,
 Carnegie Mellon University). Gaussian is a federally registered
 trademark of Gaussian, Inc.
  
 This software contains proprietary and confidential information,
 including trade secrets, belonging to Gaussian, Inc.
  
 This software is provided under written license and may be
 used, copied, transmitted, or stored only in accord with that
 written license.
  
 The following legend is applicable only to US Government
 contracts under FAR:
  
                    RESTRICTED RIGHTS LEGEND
  
 Use, reproduction and disclosure by the US Government is
 subject to restrictions as set forth in subparagraphs (a)
 and (c) of the Commercial Computer Software - Restricted
 Rights clause in FAR 52.227-19.
  
 Gaussian, Inc.
 340 Quinnipiac St., Bldg. 40, Wallingford CT 06492
  
  
 ---------------------------------------------------------------
 Warning -- This program may not be used in any manner that
 competes with the business of Gaussian, Inc. or will provide
 assistance to any competitor of Gaussian, Inc.  The licensee
 of this program is prohibited from giving any competitor of
 Gaussian, Inc. access to this program.  By using this program,
 the user acknowledges that Gaussian, Inc. is engaged in the
 business of creating and licensing software in the field of
 computational chemistry and represents and warrants to the
 licensee that it is not a competitor of Gaussian, Inc. and that
 it will not use this program in any manner prohibited above.
 ---------------------------------------------------------------
  

 Cite this work as:
 Gaussian 16, Revision B.01,
 M. J. Frisch, G. W. Trucks, H. B. Schlegel, G. E. Scuseria, 
 M. A. Robb, J. R. Cheeseman, G. Scalmani, V. Barone, 
 G. A. Petersson, H. Nakatsuji, X. Li, M. Caricato, A. V. Marenich, 
 J. Bloino, B. G. Janesko, R. Gomperts, B. Mennucci, H. P. Hratchian, 
 J. V. Ortiz, A. F. Izmaylov, J. L. Sonnenberg, D. Williams-Young, 
 F. Ding, F. Lipparini, F. Egidi, J. Goings, B. Peng, A. Petrone, 
 T. Henderson, D. Ranasinghe, V. G. Zakrzewski, J. Gao, N. Rega, 
 G. Zheng, W. Liang, M. Hada, M. Ehara, K. Toyota, R. Fukuda, 
 J. Hasegawa, M. Ishida, T. Nakajima, Y. Honda, O. Kitao, H. Nakai, 
 T. Vreven, K. Throssell, J. A. Montgomery, Jr., J. E. Peralta, 
 F. Ogliaro, M. J. Bearpark, J. J. Heyd, E. N. Brothers, K. N. Kudin, 
 V. N. Staroverov, T. A. Keith, R. Kobayashi, J. Normand, 
 K. Raghavachari, A. P. Rendell, J. C. Burant, S. S. Iyengar, 
 J. Tomasi, M. Cossi, J. M. Millam, M. Klene, C. Adamo, R. Cammi, 
 J. W. Ochterski, R. L. Martin, K. Morokuma, O. Farkas, 
 J. B. Foresman, and D. J. Fox, Gaussian, Inc., Wallingford CT, 2016.
 
 ******************************************
 Gaussian 16:  ES64L-G16RevB.01 20-Dec-2017
                 3-Sep-2019 
 ******************************************
 %RWF=/dev/shm/,5GB,/tmp/scratch/1303455/,-1
 %NoSave
 %Chk=/dev/shm/tieg5ipatse_ts_noeg_reactb.chk
 Default route: CacheSize=180224 MaxDisk=256GB
 ----------------------------------------------------------------------
 # m062x/Def2TZVP nosymm scf=xqc opt freq=noraman CPHF=Grid=Fine SCRF=(
 Solvent=1,2-EthaneDiol,Read)
 ----------------------------------------------------------------------
 1/4=180224,18=20,19=15,26=3,38=1,40=2/1,3;
 2/4=180224,9=110,12=2,15=1,17=6,18=5,40=1/2;
 3/4=180224,5=44,7=101,11=2,25=1,30=1,70=2203,71=1,72=30,74=-55/1,2,3;
 4/4=180224/1;
 5/4=180224,5=2,8=3,13=1,38=5,53=30/2,8;
 6/4=180224,7=2,8=2,9=2,10=2,28=1/1;
 7/4=180224,30=1/1,2,3,16;
 1/4=180224,18=20,19=15,26=3/3(2);
 2/4=180224,9=110,15=1/2;
 99/4=180224/99;
 2/4=180224,9=110,15=1/2;
 3/4=180224,5=44,7=101,11=2,25=1,30=1,70=2205,71=1,72=30,74=-55/1,2,3;
 4/4=180224,5=5,16=3,69=1/1;
 5/4=180224,5=2,8=3,13=1,38=5,53=30/2,8;
 7/4=180224,30=1/1,2,3,16;
 1/4=180224,18=20,19=15,26=3/3(-5);
 2/4=180224,9=110,15=1/2;
 6/4=180224,7=2,8=2,9=2,10=2,19=2,28=1/1;
 99/4=180224,9=1/99;
 ----------------------------------------
 rotated tieg5ipatse_ts_ircf_opt_noeg.log
 ----------------------------------------
 Symbolic Z-matrix:
 Charge =  0 Multiplicity = 1
 8                     1.81266   1.23364   0.01112 
 22                    0.332     0.08573   1.15213 
 8                     1.46046  -1.38292   0.86692 
 8                    -0.17159   1.74133   1.77382 
 6                     0.45573   2.91149   2.19972 
 6                    -0.5897    3.97775   2.4891 
 6                     3.21382   0.99716  -0.06885 
 6                     3.91557   1.89864   0.93146 
 8                     5.28901   1.57289   1.03695 
 6                     2.04668  -2.0056    1.9765 
 6                     2.66059  -0.90884   2.83428 
 8                     1.74654   0.19762   2.79614 
 1                     3.41966  -0.0511    0.15539 
 1                     3.55954   1.20882  -1.08311 
 1                     3.77127   2.94669   0.65258 
 1                     3.47456   1.74946   1.91796 
 1                     1.28288  -2.54232   2.55355 
 1                     2.81254  -2.72121   1.66456 
 1                     2.82933  -1.22155   3.8643 
 1                     3.60105  -0.55567   2.40977 
 1                     1.04293   2.72324   3.11024 
 1                     1.15119   3.27708   1.43586 
 1                    -1.30109   3.60268   3.23253 
 1                    -1.14372   4.20169   1.57709 
 8                     0.00641   5.19133   2.91187 
 1                     0.42044   5.04798   3.7692 
 1                     5.73217   1.82136   0.21906 
 1                     1.18007   0.24107   3.60896 
 8                     0.37563   1.24911  -2.11955 
 6                    -0.53981   0.51273  -1.7455 
 8                    -0.62496   0.00936  -0.56438 
 6                    -2.67179  -0.68163  -2.25405 
 6                    -1.64446   0.15277  -2.68803 
 6                    -3.70178  -1.02507  -3.11577 
 6                    -1.65021   0.64153  -3.98628 
 6                    -3.71028  -0.53771  -4.41507 
 6                    -2.68281   0.29585  -4.8495 
 1                    -0.85553   1.28923  -4.32953 
 6                    -2.64947   0.83992  -6.23352 
 1                    -4.51037  -0.80229  -5.09216 
 8                    -3.48438   0.6141   -7.07242 
 8                    -1.587     1.61829  -6.4652 
 1                    -1.63641   1.93236  -7.38083 
 8                    -0.87724  -0.81875   2.15921 
 6                    -1.76356  -0.46689   3.18364 
 6                    -1.10933  -0.60534   4.54221 
 8                    -0.05207   0.34064   4.73223 
 1                     1.39594   1.34699  -0.89114 
 1                    -0.64873  -1.58864   4.63596 
 1                    -1.85541  -0.48701   5.33082 
 1                    -0.42732   1.23002   4.72757 
 1                    -2.10569   0.56697   3.04931 
 1                    -2.63697  -1.12513   3.14947 
 1                    -4.49884  -1.67259  -2.77699 
 1                    -2.65159  -1.05433  -1.23889 
 

 GradGradGradGradGradGradGradGradGradGradGradGradGradGradGradGradGradGrad
 Berny optimization.
 Initialization pass.
                           ----------------------------
                           !    Initial Parameters    !
                           ! (Angstroms and Degrees)  !
 --------------------------                            --------------------------
 ! Name  Definition              Value          Derivative Info.                !
 --------------------------------------------------------------------------------
 ! R1    R(1,2)                  2.1936         estimate D2E/DX2                !
 ! R2    R(1,7)                  1.4232         estimate D2E/DX2                !
 ! R3    R(1,48)                 1.0003         estimate D2E/DX2                !
 ! R4    R(2,3)                  1.8739         estimate D2E/DX2                !
 ! R5    R(2,4)                  1.8388         estimate D2E/DX2                !
 ! R6    R(2,12)                 2.1717         estimate D2E/DX2                !
 ! R7    R(2,31)                 1.9667         estimate D2E/DX2                !
 ! R8    R(2,44)                 1.8151         estimate D2E/DX2                !
 ! R9    R(3,10)                 1.4009         estimate D2E/DX2                !
 ! R10   R(4,5)                  1.3943         estimate D2E/DX2                !
 ! R11   R(5,6)                  1.521          estimate D2E/DX2                !
 ! R12   R(5,21)                 1.0997         estimate D2E/DX2                !
 ! R13   R(5,22)                 1.0958         estimate D2E/DX2                !
 ! R14   R(6,23)                 1.0952         estimate D2E/DX2                !
 ! R15   R(6,24)                 1.0903         estimate D2E/DX2                !
 ! R16   R(6,25)                 1.4166         estimate D2E/DX2                !
 ! R17   R(7,8)                  1.5185         estimate D2E/DX2                !
 ! R18   R(7,13)                 1.0916         estimate D2E/DX2                !
 ! R19   R(7,14)                 1.0923         estimate D2E/DX2                !
 ! R20   R(8,9)                  1.4155         estimate D2E/DX2                !
 ! R21   R(8,15)                 1.0941         estimate D2E/DX2                !
 ! R22   R(8,16)                 1.0908         estimate D2E/DX2                !
 ! R23   R(9,27)                 0.9629         estimate D2E/DX2                !
 ! R24   R(10,11)                1.5217         estimate D2E/DX2                !
 ! R25   R(10,17)                1.0975         estimate D2E/DX2                !
 ! R26   R(10,18)                1.0936         estimate D2E/DX2                !
 ! R27   R(11,12)                1.4357         estimate D2E/DX2                !
 ! R28   R(11,19)                1.0896         estimate D2E/DX2                !
 ! R29   R(11,20)                1.0906         estimate D2E/DX2                !
 ! R30   R(12,28)                0.9917         estimate D2E/DX2                !
 ! R31   R(25,26)                0.9628         estimate D2E/DX2                !
 ! R32   R(29,30)                1.233          estimate D2E/DX2                !
 ! R33   R(30,31)                1.2867         estimate D2E/DX2                !
 ! R34   R(30,33)                1.4961         estimate D2E/DX2                !
 ! R35   R(32,33)                1.3928         estimate D2E/DX2                !
 ! R36   R(32,34)                1.3861         estimate D2E/DX2                !
 ! R37   R(32,55)                1.0816         estimate D2E/DX2                !
 ! R38   R(33,35)                1.3872         estimate D2E/DX2                !
 ! R39   R(34,36)                1.3877         estimate D2E/DX2                !
 ! R40   R(34,54)                1.0814         estimate D2E/DX2                !
 ! R41   R(35,37)                1.3896         estimate D2E/DX2                !
 ! R42   R(35,38)                1.0811         estimate D2E/DX2                !
 ! R43   R(36,37)                1.3926         estimate D2E/DX2                !
 ! R44   R(36,40)                1.081          estimate D2E/DX2                !
 ! R45   R(37,39)                1.4875         estimate D2E/DX2                !
 ! R46   R(39,41)                1.2049         estimate D2E/DX2                !
 ! R47   R(39,42)                1.3373         estimate D2E/DX2                !
 ! R48   R(42,43)                0.9693         estimate D2E/DX2                !
 ! R49   R(44,45)                1.3996         estimate D2E/DX2                !
 ! R50   R(45,46)                1.5142         estimate D2E/DX2                !
 ! R51   R(45,52)                1.0973         estimate D2E/DX2                !
 ! R52   R(45,53)                1.0942         estimate D2E/DX2                !
 ! R53   R(46,47)                1.4314         estimate D2E/DX2                !
 ! R54   R(46,49)                1.0899         estimate D2E/DX2                !
 ! R55   R(46,50)                1.092          estimate D2E/DX2                !
 ! R56   R(47,51)                0.9653         estimate D2E/DX2                !
 ! A1    A(2,1,7)              127.3586         estimate D2E/DX2                !
 ! A2    A(2,1,48)             104.3168         estimate D2E/DX2                !
 ! A3    A(7,1,48)             112.2273         estimate D2E/DX2                !
 ! A4    A(1,2,3)               85.6693         estimate D2E/DX2                !
 ! A5    A(1,2,4)               83.6592         estimate D2E/DX2                !
 ! A6    A(1,2,12)              85.8223         estimate D2E/DX2                !
 ! A7    A(1,2,31)              83.96           estimate D2E/DX2                !
 ! A8    A(3,2,4)              157.2237         estimate D2E/DX2                !
 ! A9    A(3,2,12)              76.3119         estimate D2E/DX2                !
 ! A10   A(3,2,31)              97.4545         estimate D2E/DX2                !
 ! A11   A(3,2,44)              95.4568         estimate D2E/DX2                !
 ! A12   A(4,2,12)              82.88           estimate D2E/DX2                !
 ! A13   A(4,2,31)             101.349          estimate D2E/DX2                !
 ! A14   A(4,2,44)              94.5092         estimate D2E/DX2                !
 ! A15   A(12,2,44)             92.2691         estimate D2E/DX2                !
 ! A16   A(31,2,44)             98.0903         estimate D2E/DX2                !
 ! A17   A(2,3,10)             118.6719         estimate D2E/DX2                !
 ! A18   A(2,4,5)              137.3639         estimate D2E/DX2                !
 ! A19   A(4,5,6)              109.7056         estimate D2E/DX2                !
 ! A20   A(4,5,21)             110.456          estimate D2E/DX2                !
 ! A21   A(4,5,22)             110.6461         estimate D2E/DX2                !
 ! A22   A(6,5,21)             109.2377         estimate D2E/DX2                !
 ! A23   A(6,5,22)             109.5693         estimate D2E/DX2                !
 ! A24   A(21,5,22)            107.1806         estimate D2E/DX2                !
 ! A25   A(5,6,23)             109.6042         estimate D2E/DX2                !
 ! A26   A(5,6,24)             109.5163         estimate D2E/DX2                !
 ! A27   A(5,6,25)             111.5976         estimate D2E/DX2                !
 ! A28   A(23,6,24)            107.9434         estimate D2E/DX2                !
 ! A29   A(23,6,25)            111.3541         estimate D2E/DX2                !
 ! A30   A(24,6,25)            106.7075         estimate D2E/DX2                !
 ! A31   A(1,7,8)              108.6218         estimate D2E/DX2                !
 ! A32   A(1,7,13)             109.4917         estimate D2E/DX2                !
 ! A33   A(1,7,14)             109.3653         estimate D2E/DX2                !
 ! A34   A(8,7,13)             110.3432         estimate D2E/DX2                !
 ! A35   A(8,7,14)             110.5118         estimate D2E/DX2                !
 ! A36   A(13,7,14)            108.492          estimate D2E/DX2                !
 ! A37   A(7,8,9)              111.1549         estimate D2E/DX2                !
 ! A38   A(7,8,15)             109.8662         estimate D2E/DX2                !
 ! A39   A(7,8,16)             109.1311         estimate D2E/DX2                !
 ! A40   A(9,8,15)             111.5564         estimate D2E/DX2                !
 ! A41   A(9,8,16)             107.062          estimate D2E/DX2                !
 ! A42   A(15,8,16)            107.9513         estimate D2E/DX2                !
 ! A43   A(8,9,27)             108.8994         estimate D2E/DX2                !
 ! A44   A(3,10,11)            107.1536         estimate D2E/DX2                !
 ! A45   A(3,10,17)            110.0349         estimate D2E/DX2                !
 ! A46   A(3,10,18)            110.9765         estimate D2E/DX2                !
 ! A47   A(11,10,17)           109.6858         estimate D2E/DX2                !
 ! A48   A(11,10,18)           110.4807         estimate D2E/DX2                !
 ! A49   A(17,10,18)           108.5035         estimate D2E/DX2                !
 ! A50   A(10,11,12)           106.4777         estimate D2E/DX2                !
 ! A51   A(10,11,19)           112.8619         estimate D2E/DX2                !
 ! A52   A(10,11,20)           111.2155         estimate D2E/DX2                !
 ! A53   A(12,11,19)           110.1753         estimate D2E/DX2                !
 ! A54   A(12,11,20)           106.8041         estimate D2E/DX2                !
 ! A55   A(19,11,20)           109.1089         estimate D2E/DX2                !
 ! A56   A(2,12,11)            113.2719         estimate D2E/DX2                !
 ! A57   A(2,12,28)            104.517          estimate D2E/DX2                !
 ! A58   A(11,12,28)           112.0654         estimate D2E/DX2                !
 ! A59   A(6,25,26)            108.6111         estimate D2E/DX2                !
 ! A60   A(29,30,31)           124.1421         estimate D2E/DX2                !
 ! A61   A(29,30,33)           120.0526         estimate D2E/DX2                !
 ! A62   A(31,30,33)           115.8052         estimate D2E/DX2                !
 ! A63   A(2,31,30)            138.9164         estimate D2E/DX2                !
 ! A64   A(33,32,34)           120.1857         estimate D2E/DX2                !
 ! A65   A(33,32,55)           119.0186         estimate D2E/DX2                !
 ! A66   A(34,32,55)           120.7957         estimate D2E/DX2                !
 ! A67   A(30,33,32)           119.5023         estimate D2E/DX2                !
 ! A68   A(30,33,35)           120.5234         estimate D2E/DX2                !
 ! A69   A(32,33,35)           119.9742         estimate D2E/DX2                !
 ! A70   A(32,34,36)           119.973          estimate D2E/DX2                !
 ! A71   A(32,34,54)           120.086          estimate D2E/DX2                !
 ! A72   A(36,34,54)           119.941          estimate D2E/DX2                !
 ! A73   A(33,35,37)           119.7886         estimate D2E/DX2                !
 ! A74   A(33,35,38)           120.3419         estimate D2E/DX2                !
 ! A75   A(37,35,38)           119.8695         estimate D2E/DX2                !
 ! A76   A(34,36,37)           119.8534         estimate D2E/DX2                !
 ! A77   A(34,36,40)           120.3325         estimate D2E/DX2                !
 ! A78   A(37,36,40)           119.8141         estimate D2E/DX2                !
 ! A79   A(35,37,36)           120.225          estimate D2E/DX2                !
 ! A80   A(35,37,39)           118.0573         estimate D2E/DX2                !
 ! A81   A(36,37,39)           121.7176         estimate D2E/DX2                !
 ! A82   A(37,39,41)           124.3136         estimate D2E/DX2                !
 ! A83   A(37,39,42)           113.0721         estimate D2E/DX2                !
 ! A84   A(41,39,42)           122.6143         estimate D2E/DX2                !
 ! A85   A(39,42,43)           108.1652         estimate D2E/DX2                !
 ! A86   A(2,44,45)            134.6473         estimate D2E/DX2                !
 ! A87   A(44,45,46)           111.107          estimate D2E/DX2                !
 ! A88   A(44,45,52)           110.1649         estimate D2E/DX2                !
 ! A89   A(44,45,53)           109.3533         estimate D2E/DX2                !
 ! A90   A(46,45,52)           109.3116         estimate D2E/DX2                !
 ! A91   A(46,45,53)           108.5355         estimate D2E/DX2                !
 ! A92   A(52,45,53)           108.3068         estimate D2E/DX2                !
 ! A93   A(45,46,47)           112.1986         estimate D2E/DX2                !
 ! A94   A(45,46,49)           110.0152         estimate D2E/DX2                !
 ! A95   A(45,46,50)           110.0489         estimate D2E/DX2                !
 ! A96   A(47,46,49)           105.8242         estimate D2E/DX2                !
 ! A97   A(47,46,50)           109.7034         estimate D2E/DX2                !
 ! A98   A(49,46,50)           108.9278         estimate D2E/DX2                !
 ! A99   A(46,47,51)           108.7316         estimate D2E/DX2                !
 ! A100  L(1,2,44,3,-1)        181.1261         estimate D2E/DX2                !
 ! A101  L(12,2,31,1,-1)       169.7823         estimate D2E/DX2                !
 ! A102  L(1,2,44,3,-2)        177.7592         estimate D2E/DX2                !
 ! A103  L(12,2,31,1,-2)       174.542          estimate D2E/DX2                !
 ! D1    D(7,1,2,3)            -30.0871         estimate D2E/DX2                !
 ! D2    D(7,1,2,4)            129.7589         estimate D2E/DX2                !
 ! D3    D(7,1,2,12)            46.4737         estimate D2E/DX2                !
 ! D4    D(7,1,2,31)          -128.0683         estimate D2E/DX2                !
 ! D5    D(48,1,2,3)           103.2271         estimate D2E/DX2                !
 ! D6    D(48,1,2,4)           -96.9269         estimate D2E/DX2                !
 ! D7    D(48,1,2,12)          179.7878         estimate D2E/DX2                !
 ! D8    D(48,1,2,31)            5.2458         estimate D2E/DX2                !
 ! D9    D(2,1,7,8)            -96.5701         estimate D2E/DX2                !
 ! D10   D(2,1,7,13)            23.9885         estimate D2E/DX2                !
 ! D11   D(2,1,7,14)           142.7417         estimate D2E/DX2                !
 ! D12   D(48,1,7,8)           133.0354         estimate D2E/DX2                !
 ! D13   D(48,1,7,13)         -106.406          estimate D2E/DX2                !
 ! D14   D(48,1,7,14)           12.3472         estimate D2E/DX2                !
 ! D15   D(7,1,44,45)          120.0847         estimate D2E/DX2                !
 ! D16   D(48,1,44,45)        -105.5474         estimate D2E/DX2                !
 ! D17   D(1,2,3,10)           117.0859         estimate D2E/DX2                !
 ! D18   D(4,2,3,10)            54.8907         estimate D2E/DX2                !
 ! D19   D(12,2,3,10)           30.3392         estimate D2E/DX2                !
 ! D20   D(31,2,3,10)         -159.5946         estimate D2E/DX2                !
 ! D21   D(44,2,3,10)          -60.6733         estimate D2E/DX2                !
 ! D22   D(1,2,4,5)            -41.691          estimate D2E/DX2                !
 ! D23   D(3,2,4,5)             20.863          estimate D2E/DX2                !
 ! D24   D(12,2,4,5)            44.8699         estimate D2E/DX2                !
 ! D25   D(31,2,4,5)          -124.2049         estimate D2E/DX2                !
 ! D26   D(44,2,4,5)           136.599          estimate D2E/DX2                !
 ! D27   D(1,2,12,11)          -91.0105         estimate D2E/DX2                !
 ! D28   D(1,2,12,28)          146.7279         estimate D2E/DX2                !
 ! D29   D(3,2,12,11)           -4.4582         estimate D2E/DX2                !
 ! D30   D(3,2,12,28)         -126.7198         estimate D2E/DX2                !
 ! D31   D(4,2,12,11)         -175.1289         estimate D2E/DX2                !
 ! D32   D(4,2,12,28)           62.6095         estimate D2E/DX2                !
 ! D33   D(44,2,12,11)          90.6076         estimate D2E/DX2                !
 ! D34   D(44,2,12,28)         -31.654          estimate D2E/DX2                !
 ! D35   D(11,12,31,30)        -93.3115         estimate D2E/DX2                !
 ! D36   D(28,12,31,30)        142.31           estimate D2E/DX2                !
 ! D37   D(1,2,31,30)           -7.7609         estimate D2E/DX2                !
 ! D38   D(3,2,31,30)          -92.5728         estimate D2E/DX2                !
 ! D39   D(4,2,31,30)           74.5087         estimate D2E/DX2                !
 ! D40   D(44,2,31,30)         170.7966         estimate D2E/DX2                !
 ! D41   D(3,2,44,45)          151.5937         estimate D2E/DX2                !
 ! D42   D(4,2,44,45)           -7.8994         estimate D2E/DX2                !
 ! D43   D(12,2,44,45)          75.1332         estimate D2E/DX2                !
 ! D44   D(31,2,44,45)        -110.0563         estimate D2E/DX2                !
 ! D45   D(2,3,10,11)          -49.0711         estimate D2E/DX2                !
 ! D46   D(2,3,10,17)           70.1257         estimate D2E/DX2                !
 ! D47   D(2,3,10,18)         -169.769          estimate D2E/DX2                !
 ! D48   D(2,4,5,6)            175.4607         estimate D2E/DX2                !
 ! D49   D(2,4,5,21)           -64.0659         estimate D2E/DX2                !
 ! D50   D(2,4,5,22)            54.453          estimate D2E/DX2                !
 ! D51   D(4,5,6,23)            56.8142         estimate D2E/DX2                !
 ! D52   D(4,5,6,24)           -61.4286         estimate D2E/DX2                !
 ! D53   D(4,5,6,25)          -179.3562         estimate D2E/DX2                !
 ! D54   D(21,5,6,23)          -64.3957         estimate D2E/DX2                !
 ! D55   D(21,5,6,24)          177.3616         estimate D2E/DX2                !
 ! D56   D(21,5,6,25)           59.4339         estimate D2E/DX2                !
 ! D57   D(22,5,6,23)          178.4694         estimate D2E/DX2                !
 ! D58   D(22,5,6,24)           60.2267         estimate D2E/DX2                !
 ! D59   D(22,5,6,25)          -57.701          estimate D2E/DX2                !
 ! D60   D(5,6,25,26)          -66.7385         estimate D2E/DX2                !
 ! D61   D(23,6,25,26)          56.0973         estimate D2E/DX2                !
 ! D62   D(24,6,25,26)         173.6601         estimate D2E/DX2                !
 ! D63   D(1,7,8,9)            171.4975         estimate D2E/DX2                !
 ! D64   D(1,7,8,15)           -64.5352         estimate D2E/DX2                !
 ! D65   D(1,7,8,16)            53.6425         estimate D2E/DX2                !
 ! D66   D(13,7,8,9)            51.467          estimate D2E/DX2                !
 ! D67   D(13,7,8,15)          175.4342         estimate D2E/DX2                !
 ! D68   D(13,7,8,16)          -66.388          estimate D2E/DX2                !
 ! D69   D(14,7,8,9)           -68.5251         estimate D2E/DX2                !
 ! D70   D(14,7,8,15)           55.4422         estimate D2E/DX2                !
 ! D71   D(14,7,8,16)          173.6199         estimate D2E/DX2                !
 ! D72   D(7,8,9,27)            69.3909         estimate D2E/DX2                !
 ! D73   D(15,8,9,27)          -53.6102         estimate D2E/DX2                !
 ! D74   D(16,8,9,27)         -171.5076         estimate D2E/DX2                !
 ! D75   D(3,10,11,12)          38.8415         estimate D2E/DX2                !
 ! D76   D(3,10,11,19)         159.8418         estimate D2E/DX2                !
 ! D77   D(3,10,11,20)         -77.149          estimate D2E/DX2                !
 ! D78   D(17,10,11,12)        -80.58           estimate D2E/DX2                !
 ! D79   D(17,10,11,19)         40.4203         estimate D2E/DX2                !
 ! D80   D(17,10,11,20)        163.4295         estimate D2E/DX2                !
 ! D81   D(18,10,11,12)        159.8535         estimate D2E/DX2                !
 ! D82   D(18,10,11,19)        -79.1463         estimate D2E/DX2                !
 ! D83   D(18,10,11,20)         43.863          estimate D2E/DX2                !
 ! D84   D(10,11,12,2)         -17.8053         estimate D2E/DX2                !
 ! D85   D(10,11,12,28)        100.1492         estimate D2E/DX2                !
 ! D86   D(19,11,12,2)        -140.5108         estimate D2E/DX2                !
 ! D87   D(19,11,12,28)        -22.5563         estimate D2E/DX2                !
 ! D88   D(20,11,12,2)         101.1113         estimate D2E/DX2                !
 ! D89   D(20,11,12,28)       -140.9342         estimate D2E/DX2                !
 ! D90   D(29,30,31,2)           3.7626         estimate D2E/DX2                !
 ! D91   D(33,30,31,2)        -176.2437         estimate D2E/DX2                !
 ! D92   D(29,30,33,32)        179.9011         estimate D2E/DX2                !
 ! D93   D(29,30,33,35)         -0.006          estimate D2E/DX2                !
 ! D94   D(31,30,33,32)         -0.0929         estimate D2E/DX2                !
 ! D95   D(31,30,33,35)       -180.0            estimate D2E/DX2                !
 ! D96   D(34,32,33,30)       -179.9511         estimate D2E/DX2                !
 ! D97   D(34,32,33,35)         -0.0434         estimate D2E/DX2                !
 ! D98   D(55,32,33,30)          0.0561         estimate D2E/DX2                !
 ! D99   D(55,32,33,35)        179.9637         estimate D2E/DX2                !
 ! D100  D(33,32,34,36)          0.044          estimate D2E/DX2                !
 ! D101  D(33,32,34,54)       -179.9686         estimate D2E/DX2                !
 ! D102  D(55,32,34,36)       -179.9633         estimate D2E/DX2                !
 ! D103  D(55,32,34,54)          0.0241         estimate D2E/DX2                !
 ! D104  D(30,33,35,37)        179.9077         estimate D2E/DX2                !
 ! D105  D(30,33,35,38)         -0.0637         estimate D2E/DX2                !
 ! D106  D(32,33,35,37)          0.001          estimate D2E/DX2                !
 ! D107  D(32,33,35,38)       -179.9704         estimate D2E/DX2                !
 ! D108  D(32,34,36,37)         -0.0023         estimate D2E/DX2                !
 ! D109  D(32,34,36,40)        179.9649         estimate D2E/DX2                !
 ! D110  D(54,34,36,37)       -179.9898         estimate D2E/DX2                !
 ! D111  D(54,34,36,40)         -0.0226         estimate D2E/DX2                !
 ! D112  D(33,35,37,36)          0.0407         estimate D2E/DX2                !
 ! D113  D(33,35,37,39)       -179.9053         estimate D2E/DX2                !
 ! D114  D(38,35,37,36)       -179.9877         estimate D2E/DX2                !
 ! D115  D(38,35,37,39)          0.0663         estimate D2E/DX2                !
 ! D116  D(34,36,37,35)         -0.0401         estimate D2E/DX2                !
 ! D117  D(34,36,37,39)        179.9038         estimate D2E/DX2                !
 ! D118  D(40,36,37,35)        179.9925         estimate D2E/DX2                !
 ! D119  D(40,36,37,39)         -0.0635         estimate D2E/DX2                !
 ! D120  D(35,37,39,41)       -179.9774         estimate D2E/DX2                !
 ! D121  D(35,37,39,42)          0.0            estimate D2E/DX2                !
 ! D122  D(36,37,39,41)          0.0775         estimate D2E/DX2                !
 ! D123  D(36,37,39,42)       -179.9451         estimate D2E/DX2                !
 ! D124  D(37,39,42,43)       -179.9701         estimate D2E/DX2                !
 ! D125  D(41,39,42,43)          0.0077         estimate D2E/DX2                !
 ! D126  D(2,44,45,46)         -90.2117         estimate D2E/DX2                !
 ! D127  D(2,44,45,52)          31.0797         estimate D2E/DX2                !
 ! D128  D(2,44,45,53)         150.0034         estimate D2E/DX2                !
 ! D129  D(44,45,46,47)         66.7837         estimate D2E/DX2                !
 ! D130  D(44,45,46,49)        -50.7385         estimate D2E/DX2                !
 ! D131  D(44,45,46,50)       -170.7672         estimate D2E/DX2                !
 ! D132  D(52,45,46,47)        -55.0066         estimate D2E/DX2                !
 ! D133  D(52,45,46,49)       -172.5288         estimate D2E/DX2                !
 ! D134  D(52,45,46,50)         67.4425         estimate D2E/DX2                !
 ! D135  D(53,45,46,47)       -172.9458         estimate D2E/DX2                !
 ! D136  D(53,45,46,49)         69.532          estimate D2E/DX2                !
 ! D137  D(53,45,46,50)        -50.4967         estimate D2E/DX2                !
 ! D138  D(45,46,47,51)         64.4735         estimate D2E/DX2                !
 ! D139  D(49,46,47,51)       -175.534          estimate D2E/DX2                !
 ! D140  D(50,46,47,51)        -58.1712         estimate D2E/DX2                !
 --------------------------------------------------------------------------------
 Trust Radius=3.00D-01 FncErr=1.00D-07 GrdErr=1.00D-06 EigMax=2.50D+02 EigMin=1.00D-04
 Number of steps in this run=    309 maximum allowed number of steps=    330.
 GradGradGradGradGradGradGradGradGradGradGradGradGradGradGradGradGradGrad

 Symmetry turned off by external request.
 Stoichiometry    C16H26O12Ti
 Framework group  C1[X(C16H26O12Ti)]
 Deg. of freedom   159
 Full point group                 C1      NOp   1
                          Input orientation:                          
 ---------------------------------------------------------------------
 Center     Atomic      Atomic             Coordinates (Angstroms)
 Number     Number       Type             X           Y           Z
 ---------------------------------------------------------------------
      1          8           0        1.812658    1.233635    0.011120
      2         22           0        0.332003    0.085728    1.152130
      3          8           0        1.460459   -1.382918    0.866919
      4          8           0       -0.171592    1.741329    1.773815
      5          6           0        0.455726    2.911486    2.199723
      6          6           0       -0.589704    3.977748    2.489102
      7          6           0        3.213815    0.997160   -0.068854
      8          6           0        3.915565    1.898637    0.931463
      9          8           0        5.289005    1.572894    1.036950
     10          6           0        2.046684   -2.005604    1.976496
     11          6           0        2.660590   -0.908844    2.834283
     12          8           0        1.746538    0.197621    2.796144
     13          1           0        3.419655   -0.051098    0.155390
     14          1           0        3.559535    1.208822   -1.083114
     15          1           0        3.771266    2.946693    0.652577
     16          1           0        3.474562    1.749455    1.917961
     17          1           0        1.282876   -2.542322    2.553548
     18          1           0        2.812540   -2.721207    1.664558
     19          1           0        2.829328   -1.221552    3.864302
     20          1           0        3.601045   -0.555672    2.409770
     21          1           0        1.042934    2.723236    3.110242
     22          1           0        1.151194    3.277082    1.435856
     23          1           0       -1.301094    3.602680    3.232529
     24          1           0       -1.143724    4.201691    1.577088
     25          8           0        0.006410    5.191331    2.911874
     26          1           0        0.420440    5.047978    3.769204
     27          1           0        5.732174    1.821364    0.219059
     28          1           0        1.180068    0.241066    3.608956
     29          8           0        0.375629    1.249113   -2.119549
     30          6           0       -0.539812    0.512731   -1.745500
     31          8           0       -0.624957    0.009356   -0.564378
     32          6           0       -2.671790   -0.681629   -2.254052
     33          6           0       -1.644459    0.152765   -2.688029
     34          6           0       -3.701782   -1.025072   -3.115774
     35          6           0       -1.650212    0.641532   -3.986283
     36          6           0       -3.710281   -0.537714   -4.415067
     37          6           0       -2.682806    0.295848   -4.849497
     38          1           0       -0.855534    1.289227   -4.329529
     39          6           0       -2.649471    0.839918   -6.233519
     40          1           0       -4.510370   -0.802288   -5.092156
     41          8           0       -3.484384    0.614102   -7.072419
     42          8           0       -1.587001    1.618292   -6.465200
     43          1           0       -1.636413    1.932359   -7.380827
     44          8           0       -0.877241   -0.818748    2.159211
     45          6           0       -1.763564   -0.466893    3.183641
     46          6           0       -1.109330   -0.605342    4.542208
     47          8           0       -0.052070    0.340642    4.732233
     48          1           0        1.395942    1.346993   -0.891142
     49          1           0       -0.648728   -1.588638    4.635964
     50          1           0       -1.855410   -0.487008    5.330821
     51          1           0       -0.427320    1.230019    4.727575
     52          1           0       -2.105692    0.566973    3.049309
     53          1           0       -2.636966   -1.125129    3.149465
     54          1           0       -4.498845   -1.672590   -2.776991
     55          1           0       -2.651592   -1.054334   -1.238886
 ---------------------------------------------------------------------
 Rotational constants (GHZ):           0.2121087           0.0758783           0.0716124
 Standard basis: def2TZVP (5D, 7F)
  1069 basis functions,  1738 primitive gaussians,  1216 cartesian basis functions
   120 alpha electrons      120 beta electrons
       nuclear repulsion energy      3572.7068627304 Hartrees.
 NAtoms=   55 NActive=   55 NUniq=   55 SFac= 1.00D+00 NAtFMM=   60 NAOKFM=F Big=F
 Integral buffers will be    131072 words long.
 Raffenetti 2 integral format.
 Two-electron integral symmetry is turned off.
 Using the following non-standard input for PCM:
 PDENS=7.0
 --- end of non-standard input.
 ------------------------------------------------------------------------------
 Polarizable Continuum Model (PCM)
 =================================
 Model                : PCM.
 Atomic radii         : UFF (Universal Force Field).
 Polarization charges : Total charges.
 Charge compensation  : None.
 Solution method      : On-the-fly selection.
 Cavity type          : Scaled VdW (van der Waals Surface) (Alpha=1.100).
 Cavity algorithm     : GePol (No added spheres)
                        Default sphere list used, NSphG=   55.
                        Lebedev-Laikov grids with approx.  7.0 points / Ang**2.
                        Smoothing algorithm: York/Karplus (Gamma=1.0000).
                        Polarization charges: spherical gaussians, with
                                              point-specific exponents (IZeta= 3).
                        Self-potential: point-specific (ISelfS= 7).
                        Self-field    : sphere-specific E.n sum rule (ISelfD= 2).
 1st derivatives      : Analytical E(r).r(x)/FMM algorithm (CHGder, D1EAlg=3).
                        Cavity 1st derivative terms included.
 Solvent              : 1,2-EthaneDiol, Eps=  40.245000 Eps(inf)=   2.050051
 ------------------------------------------------------------------------------
 One-electron integrals computed using PRISM.
   1 Symmetry operations used in ECPInt.
 ECPInt:  NShTT=   91378 NPrTT=  283881 LenC2=   70454 LenP2D=  146781.
 LDataN:  DoStor=T MaxTD1= 6 Len=  172
 NBasis=  1069 RedAO= T EigKep=  6.96D-06  NBF=  1069
 NBsUse=  1069 1.00D-06 EigRej= -1.00D+00 NBFU=  1069
 ExpMin= 3.27D-02 ExpMax= 2.12D+05 ExpMxC= 2.04D+03 IAcc=3 IRadAn=         5 AccDes= 0.00D+00
 Harris functional with IExCor= 1009 and IRadAn=       5 diagonalized for initial guess.
 HarFok:  IExCor= 1009 AccDes= 0.00D+00 IRadAn=         5 IDoV= 1 UseB2=F ITyADJ=14
 ICtDFT=  3500011 ScaDFX=  1.000000  1.000000  1.000000  1.000000
 FoFCou: FMM=F IPFlag=           0 FMFlag=      100000 FMFlg1=           0
         NFxFlg=           0 DoJE=T BraDBF=F KetDBF=T FulRan=T
         wScrn=  0.000000 ICntrl=       500 IOpCl=  0 I1Cent=   200000004 NGrid=           0
         NMat0=    1 NMatS0=      1 NMatT0=    0 NMatD0=    1 NMtDS0=    0 NMtDT0=    0
 Symmetry not used in FoFCou.
 Requested convergence on RMS density matrix=1.00D-08 within  32 cycles.
 Requested convergence on MAX density matrix=1.00D-06.
 Requested convergence on             energy=1.00D-06.
 No special actions if energy rises.
 Inv3:  Mode=1 IEnd=   101128908.
 Iteration    1 A*A^-1 deviation from unit magnitude is 3.55D-15 for   4734.
 Iteration    1 A*A^-1 deviation from orthogonality  is 2.00D-15 for   4316   2046.
 Iteration    1 A^-1*A deviation from unit magnitude is 3.55D-15 for   3946.
 Iteration    1 A^-1*A deviation from orthogonality  is 2.57D-15 for   4425   3003.
 Error on total polarization charges =  0.01683
 SCF Done:  E(RM062X) =  -2377.76378908     A.U. after   17 cycles
            NFock= 17  Conv=0.41D-08     -V/T= 2.0033
 QCSCF skips out because SCF is already converged.

 **********************************************************************

            Population analysis using the SCF Density.

 **********************************************************************

 Alpha  occ. eigenvalues -- -180.49918 -20.49833 -19.68236 -19.66290 -19.65840
 Alpha  occ. eigenvalues --  -19.65001 -19.63945 -19.63346 -19.62990 -19.62945
 Alpha  occ. eigenvalues --  -19.62576 -19.61962 -19.61113 -19.60200 -17.19243
 Alpha  occ. eigenvalues --  -17.19219 -17.19100 -10.69095 -10.68559 -10.59406
 Alpha  occ. eigenvalues --  -10.59294 -10.58846 -10.58654 -10.58308 -10.58080
 Alpha  occ. eigenvalues --  -10.57894 -10.57716 -10.57195 -10.56749 -10.56711
 Alpha  occ. eigenvalues --  -10.56540 -10.56389 -10.55803  -2.63757  -1.70277
 Alpha  occ. eigenvalues --   -1.70266  -1.69926  -1.25187  -1.22226  -1.18718
 Alpha  occ. eigenvalues --   -1.17032  -1.16813  -1.15434  -1.15204  -1.15114
 Alpha  occ. eigenvalues --   -1.12240  -1.10938  -1.10312  -1.09263  -0.99041
 Alpha  occ. eigenvalues --   -0.88866  -0.87442  -0.84431  -0.83880  -0.83331
 Alpha  occ. eigenvalues --   -0.81911  -0.76730  -0.74242  -0.72085  -0.71515
 Alpha  occ. eigenvalues --   -0.71182  -0.70148  -0.70029  -0.65377  -0.63732
 Alpha  occ. eigenvalues --   -0.62747  -0.62235  -0.60421  -0.59880  -0.59812
 Alpha  occ. eigenvalues --   -0.59511  -0.57600  -0.57450  -0.56930  -0.56436
 Alpha  occ. eigenvalues --   -0.56333  -0.55780  -0.55509  -0.55113  -0.54961
 Alpha  occ. eigenvalues --   -0.54438  -0.53677  -0.53101  -0.52957  -0.52237
 Alpha  occ. eigenvalues --   -0.51756  -0.51482  -0.51139  -0.50621  -0.49553
 Alpha  occ. eigenvalues --   -0.49027  -0.48729  -0.47972  -0.47219  -0.45793
 Alpha  occ. eigenvalues --   -0.45522  -0.44580  -0.44168  -0.43905  -0.43358
 Alpha  occ. eigenvalues --   -0.42067  -0.41689  -0.41370  -0.40918  -0.40540
 Alpha  occ. eigenvalues --   -0.39962  -0.39575  -0.39512  -0.38703  -0.37591
 Alpha  occ. eigenvalues --   -0.37175  -0.37042  -0.35915  -0.35239  -0.34879
 Alpha  occ. eigenvalues --   -0.34461  -0.34258  -0.33287  -0.33231  -0.33069
 Alpha virt. eigenvalues --   -0.03989  -0.02461  -0.01654  -0.00130   0.00319
 Alpha virt. eigenvalues --    0.03164   0.04766   0.05017   0.06002   0.06313
 Alpha virt. eigenvalues --    0.07159   0.07600   0.07633   0.08350   0.08697
 Alpha virt. eigenvalues --    0.09368   0.09449   0.09881   0.10439   0.11064
 Alpha virt. eigenvalues --    0.11583   0.11874   0.12160   0.12879   0.13276
 Alpha virt. eigenvalues --    0.13304   0.13652   0.13767   0.14199   0.14638
 Alpha virt. eigenvalues --    0.15544   0.15792   0.16077   0.16704   0.17401
 Alpha virt. eigenvalues --    0.17725   0.18211   0.18493   0.18982   0.19327
 Alpha virt. eigenvalues --    0.19685   0.19966   0.20723   0.21033   0.21185
 Alpha virt. eigenvalues --    0.21442   0.22282   0.22501   0.22621   0.23176
 Alpha virt. eigenvalues --    0.23371   0.23716   0.24053   0.24550   0.25050
 Alpha virt. eigenvalues --    0.25149   0.25536   0.26219   0.26596   0.26757
 Alpha virt. eigenvalues --    0.26881   0.27267   0.27503   0.28022   0.28158
 Alpha virt. eigenvalues --    0.28936   0.29283   0.29774   0.30214   0.30581
 Alpha virt. eigenvalues --    0.31092   0.31618   0.32063   0.32363   0.33080
 Alpha virt. eigenvalues --    0.33214   0.33531   0.33988   0.34158   0.35207
 Alpha virt. eigenvalues --    0.35696   0.35935   0.36169   0.36344   0.36704
 Alpha virt. eigenvalues --    0.36932   0.37995   0.38543   0.38929   0.39107
 Alpha virt. eigenvalues --    0.39716   0.39996   0.40518   0.40790   0.41149
 Alpha virt. eigenvalues --    0.41518   0.41779   0.41898   0.42160   0.42707
 Alpha virt. eigenvalues --    0.42974   0.43119   0.43463   0.43676   0.44392
 Alpha virt. eigenvalues --    0.44699   0.45268   0.45571   0.45669   0.46123
 Alpha virt. eigenvalues --    0.46170   0.46681   0.46814   0.46923   0.47093
 Alpha virt. eigenvalues --    0.47488   0.47843   0.48115   0.48496   0.48617
 Alpha virt. eigenvalues --    0.49107   0.49309   0.49496   0.50129   0.50427
 Alpha virt. eigenvalues --    0.50549   0.51444   0.51670   0.51799   0.52392
 Alpha virt. eigenvalues --    0.52510   0.52714   0.53132   0.53196   0.53448
 Alpha virt. eigenvalues --    0.54061   0.54396   0.54525   0.55279   0.55721
 Alpha virt. eigenvalues --    0.55974   0.56612   0.57046   0.57920   0.57990
 Alpha virt. eigenvalues --    0.58087   0.58693   0.59074   0.59548   0.60079
 Alpha virt. eigenvalues --    0.60960   0.61179   0.62051   0.62344   0.62718
 Alpha virt. eigenvalues --    0.63499   0.64307   0.64388   0.64571   0.65317
 Alpha virt. eigenvalues --    0.65870   0.66096   0.66202   0.66583   0.67315
 Alpha virt. eigenvalues --    0.67786   0.68394   0.68845   0.69734   0.69887
 Alpha virt. eigenvalues --    0.70518   0.70946   0.71104   0.71465   0.72003
 Alpha virt. eigenvalues --    0.72310   0.72851   0.73607   0.74284   0.75024
 Alpha virt. eigenvalues --    0.75332   0.75633   0.75898   0.76245   0.76826
 Alpha virt. eigenvalues --    0.77310   0.77600   0.78183   0.78413   0.78895
 Alpha virt. eigenvalues --    0.79292   0.79795   0.80550   0.81304   0.81648
 Alpha virt. eigenvalues --    0.81863   0.83370   0.84284   0.84487   0.84788
 Alpha virt. eigenvalues --    0.85224   0.85980   0.86549   0.87220   0.87300
 Alpha virt. eigenvalues --    0.87881   0.88105   0.88566   0.88902   0.89373
 Alpha virt. eigenvalues --    0.90089   0.90718   0.91411   0.91771   0.92064
 Alpha virt. eigenvalues --    0.92451   0.92915   0.93993   0.94781   0.94847
 Alpha virt. eigenvalues --    0.95352   0.96525   0.96927   0.97207   0.97581
 Alpha virt. eigenvalues --    0.97803   0.98907   0.99277   0.99529   1.00227
 Alpha virt. eigenvalues --    1.00695   1.01031   1.01901   1.02304   1.03804
 Alpha virt. eigenvalues --    1.04312   1.04432   1.04988   1.05482   1.07083
 Alpha virt. eigenvalues --    1.07782   1.08519   1.09357   1.09802   1.11151
 Alpha virt. eigenvalues --    1.11315   1.11776   1.12046   1.12578   1.14315
 Alpha virt. eigenvalues --    1.14421   1.15264   1.15686   1.16317   1.16807
 Alpha virt. eigenvalues --    1.17165   1.18083   1.18750   1.19348   1.20357
 Alpha virt. eigenvalues --    1.20867   1.21577   1.21886   1.22506   1.23640
 Alpha virt. eigenvalues --    1.24797   1.25362   1.25841   1.26119   1.26298
 Alpha virt. eigenvalues --    1.26793   1.27947   1.28293   1.28639   1.29518
 Alpha virt. eigenvalues --    1.30264   1.30405   1.31337   1.32299   1.33545
 Alpha virt. eigenvalues --    1.33732   1.34544   1.35764   1.36415   1.37783
 Alpha virt. eigenvalues --    1.38184   1.38767   1.39041   1.40784   1.40955
 Alpha virt. eigenvalues --    1.42393   1.42870   1.43234   1.43946   1.45092
 Alpha virt. eigenvalues --    1.45387   1.47205   1.47506   1.47699   1.48356
 Alpha virt. eigenvalues --    1.48786   1.49697   1.49946   1.50213   1.50854
 Alpha virt. eigenvalues --    1.51975   1.52488   1.52934   1.53456   1.54480
 Alpha virt. eigenvalues --    1.54858   1.55142   1.55504   1.55891   1.56964
 Alpha virt. eigenvalues --    1.57324   1.57594   1.57836   1.58765   1.59421
 Alpha virt. eigenvalues --    1.59480   1.59957   1.60132   1.60812   1.61498
 Alpha virt. eigenvalues --    1.62293   1.62648   1.63377   1.63745   1.64415
 Alpha virt. eigenvalues --    1.64606   1.65367   1.65920   1.66177   1.66346
 Alpha virt. eigenvalues --    1.66764   1.67181   1.67930   1.68295   1.68855
 Alpha virt. eigenvalues --    1.69004   1.69882   1.69954   1.70376   1.71519
 Alpha virt. eigenvalues --    1.72397   1.73681   1.74167   1.74528   1.74961
 Alpha virt. eigenvalues --    1.75210   1.76030   1.76180   1.77329   1.78036
 Alpha virt. eigenvalues --    1.79342   1.80208   1.80328   1.81080   1.81810
 Alpha virt. eigenvalues --    1.81912   1.82397   1.82531   1.83861   1.84222
 Alpha virt. eigenvalues --    1.84969   1.85758   1.86314   1.86874   1.87766
 Alpha virt. eigenvalues --    1.88142   1.88975   1.89300   1.89584   1.89967
 Alpha virt. eigenvalues --    1.90320   1.91018   1.91124   1.92145   1.93306
 Alpha virt. eigenvalues --    1.93375   1.93795   1.94467   1.94585   1.95093
 Alpha virt. eigenvalues --    1.95888   1.96947   1.97469   1.98074   1.98739
 Alpha virt. eigenvalues --    1.99395   1.99907   2.00747   2.01137   2.01833
 Alpha virt. eigenvalues --    2.02266   2.02561   2.03507   2.04281   2.04839
 Alpha virt. eigenvalues --    2.05034   2.05583   2.06073   2.06501   2.06761
 Alpha virt. eigenvalues --    2.07225   2.07753   2.08380   2.09122   2.09579
 Alpha virt. eigenvalues --    2.09833   2.10949   2.11420   2.12113   2.12508
 Alpha virt. eigenvalues --    2.13339   2.14681   2.15779   2.15882   2.16629
 Alpha virt. eigenvalues --    2.16930   2.17371   2.18120   2.18586   2.19620
 Alpha virt. eigenvalues --    2.20306   2.20476   2.21269   2.21739   2.21992
 Alpha virt. eigenvalues --    2.23284   2.24426   2.25029   2.26820   2.27099
 Alpha virt. eigenvalues --    2.28023   2.28181   2.28457   2.29467   2.29638
 Alpha virt. eigenvalues --    2.30306   2.30716   2.31557   2.31926   2.32589
 Alpha virt. eigenvalues --    2.33082   2.33714   2.33750   2.34590   2.34762
 Alpha virt. eigenvalues --    2.35667   2.37351   2.37971   2.38516   2.39041
 Alpha virt. eigenvalues --    2.39252   2.39943   2.40408   2.40676   2.41171
 Alpha virt. eigenvalues --    2.42280   2.42628   2.43516   2.44303   2.45055
 Alpha virt. eigenvalues --    2.45400   2.46081   2.46386   2.47270   2.47894
 Alpha virt. eigenvalues --    2.48985   2.49276   2.49931   2.50396   2.50612
 Alpha virt. eigenvalues --    2.50709   2.51436   2.52640   2.52761   2.53686
 Alpha virt. eigenvalues --    2.54724   2.55065   2.56490   2.57566   2.58101
 Alpha virt. eigenvalues --    2.59006   2.59313   2.59690   2.60688   2.60800
 Alpha virt. eigenvalues --    2.61107   2.61660   2.62109   2.62500   2.62967
 Alpha virt. eigenvalues --    2.64317   2.64527   2.64821   2.65304   2.65733
 Alpha virt. eigenvalues --    2.65984   2.66648   2.67191   2.67404   2.67607
 Alpha virt. eigenvalues --    2.67970   2.68873   2.69221   2.69623   2.70063
 Alpha virt. eigenvalues --    2.70264   2.70919   2.71169   2.71895   2.72354
 Alpha virt. eigenvalues --    2.72866   2.73480   2.74051   2.74470   2.75163
 Alpha virt. eigenvalues --    2.76456   2.76774   2.77438   2.77976   2.78479
 Alpha virt. eigenvalues --    2.78916   2.79569   2.80193   2.81010   2.81302
 Alpha virt. eigenvalues --    2.82026   2.83092   2.83397   2.83877   2.84054
 Alpha virt. eigenvalues --    2.84478   2.85240   2.85975   2.86400   2.87217
 Alpha virt. eigenvalues --    2.87450   2.89072   2.89476   2.90319   2.90506
 Alpha virt. eigenvalues --    2.91203   2.91552   2.92045   2.92234   2.92665
 Alpha virt. eigenvalues --    2.93384   2.93973   2.94473   2.95939   2.96389
 Alpha virt. eigenvalues --    2.97679   2.98629   2.99111   2.99936   3.00697
 Alpha virt. eigenvalues --    3.01545   3.01674   3.02044   3.02335   3.03243
 Alpha virt. eigenvalues --    3.03700   3.03767   3.04928   3.05536   3.06320
 Alpha virt. eigenvalues --    3.06421   3.07848   3.08252   3.08392   3.10158
 Alpha virt. eigenvalues --    3.10602   3.11839   3.12240   3.12665   3.13089
 Alpha virt. eigenvalues --    3.13401   3.14690   3.14822   3.15400   3.15748
 Alpha virt. eigenvalues --    3.16577   3.17427   3.18142   3.18523   3.18915
 Alpha virt. eigenvalues --    3.18979   3.19335   3.19906   3.20659   3.20712
 Alpha virt. eigenvalues --    3.21882   3.22275   3.22526   3.23047   3.23318
 Alpha virt. eigenvalues --    3.23926   3.24009   3.24431   3.25115   3.25483
 Alpha virt. eigenvalues --    3.26429   3.26470   3.28276   3.28735   3.28945
 Alpha virt. eigenvalues --    3.29448   3.29552   3.30028   3.30283   3.30903
 Alpha virt. eigenvalues --    3.31571   3.32675   3.33351   3.33574   3.34060
 Alpha virt. eigenvalues --    3.35065   3.35483   3.35901   3.36377   3.36546
 Alpha virt. eigenvalues --    3.37104   3.37346   3.37961   3.38235   3.38587
 Alpha virt. eigenvalues --    3.38753   3.38947   3.39410   3.39646   3.39871
 Alpha virt. eigenvalues --    3.40115   3.41915   3.42380   3.42810   3.43081
 Alpha virt. eigenvalues --    3.44211   3.45140   3.46017   3.46182   3.46645
 Alpha virt. eigenvalues --    3.47189   3.48262   3.48434   3.49048   3.49566
 Alpha virt. eigenvalues --    3.49692   3.51334   3.52082   3.52470   3.53375
 Alpha virt. eigenvalues --    3.54781   3.55240   3.55988   3.57332   3.57840
 Alpha virt. eigenvalues --    3.58562   3.58827   3.59243   3.60367   3.60649
 Alpha virt. eigenvalues --    3.61206   3.61863   3.63554   3.63916   3.65679
 Alpha virt. eigenvalues --    3.66270   3.67540   3.68524   3.69725   3.70094
 Alpha virt. eigenvalues --    3.72976   3.74502   3.75680   3.76185   3.77924
 Alpha virt. eigenvalues --    3.78445   3.78696   3.80176   3.80573   3.81534
 Alpha virt. eigenvalues --    3.82631   3.82931   3.83385   3.86213   3.87600
 Alpha virt. eigenvalues --    3.88699   3.89034   3.89684   3.90220   3.91394
 Alpha virt. eigenvalues --    3.92469   3.92763   3.93003   3.93582   3.93861
 Alpha virt. eigenvalues --    3.94885   3.95238   3.96205   3.97250   3.99163
 Alpha virt. eigenvalues --    4.00147   4.00916   4.02354   4.02578   4.04577
 Alpha virt. eigenvalues --    4.04845   4.05807   4.08518   4.09394   4.11766
 Alpha virt. eigenvalues --    4.12550   4.12848   4.15162   4.17073   4.17988
 Alpha virt. eigenvalues --    4.19371   4.20433   4.21173   4.22451   4.23984
 Alpha virt. eigenvalues --    4.24740   4.25358   4.26347   4.27344   4.28624
 Alpha virt. eigenvalues --    4.29906   4.31990   4.32611   4.34145   4.34564
 Alpha virt. eigenvalues --    4.38359   4.40538   4.41407   4.41850   4.44034
 Alpha virt. eigenvalues --    4.46374   4.46830   4.48371   4.50367   4.51041
 Alpha virt. eigenvalues --    4.52870   4.55705   4.56951   4.58355   4.59173
 Alpha virt. eigenvalues --    4.59275   4.60407   4.61066   4.64632   4.65924
 Alpha virt. eigenvalues --    4.66569   4.67648   4.69436   4.71581   4.72440
 Alpha virt. eigenvalues --    4.72658   4.74250   4.75382   4.77202   4.79948
 Alpha virt. eigenvalues --    4.81572   4.84519   4.90143   4.91277   4.97892
 Alpha virt. eigenvalues --    5.09323   5.14848   5.15345   5.16801   5.17818
 Alpha virt. eigenvalues --    5.18525   5.21201   5.21692   5.21728   5.22642
 Alpha virt. eigenvalues --    5.23164   5.23384   5.24403   5.25975   5.26663
 Alpha virt. eigenvalues --    5.26726   5.27019   5.27607   5.28352   5.29457
 Alpha virt. eigenvalues --    5.29905   5.30364   5.32270   5.33715   5.34227
 Alpha virt. eigenvalues --    5.34938   5.35006   5.35550   5.37784   5.38764
 Alpha virt. eigenvalues --    5.40696   5.40876   5.44150   5.44696   5.45433
 Alpha virt. eigenvalues --    5.45543   5.46391   5.47082   5.48366   5.50221
 Alpha virt. eigenvalues --    5.50476   5.51057   5.52840   5.53306   5.54026
 Alpha virt. eigenvalues --    5.56630   5.63753   5.66341   5.68660   5.70630
 Alpha virt. eigenvalues --    5.70915   5.71706   5.72062   5.72938   5.75860
 Alpha virt. eigenvalues --    5.76555   5.79140   5.80565   5.81493   5.82317
 Alpha virt. eigenvalues --    5.82658   5.83271   5.84695   5.84934   5.86878
 Alpha virt. eigenvalues --    5.87368   5.88888   5.89211   5.90683   5.91146
 Alpha virt. eigenvalues --    5.93238   5.95374   5.99897   6.00684   6.01857
 Alpha virt. eigenvalues --    6.05676   6.05748   6.10185   6.11603   6.14668
 Alpha virt. eigenvalues --    6.19303   6.19789   6.24172   6.26122   6.26180
 Alpha virt. eigenvalues --    6.26644   6.30525   6.30693   6.34515   6.38512
 Alpha virt. eigenvalues --    6.38869   6.43558   6.44462   6.44686   6.45629
 Alpha virt. eigenvalues --    6.45826   6.48560   6.50812   6.51164   6.53365
 Alpha virt. eigenvalues --    6.54920   6.55588   6.58878   6.59280   6.63454
 Alpha virt. eigenvalues --    6.64477   6.64989   6.65421   6.65916   6.67121
 Alpha virt. eigenvalues --    6.69129   6.71730   6.73391   6.75160   6.76363
 Alpha virt. eigenvalues --    6.76615   6.78765   6.80119   6.80363   6.82168
 Alpha virt. eigenvalues --    6.82811   6.83358   6.83760   6.87318   6.88279
 Alpha virt. eigenvalues --    6.88719   6.92180   6.93450   6.94383   6.95146
 Alpha virt. eigenvalues --    6.98491   7.01309   7.03212   7.05122   7.07105
 Alpha virt. eigenvalues --    7.08846   7.09125   7.10366   7.10611   7.11866
 Alpha virt. eigenvalues --    7.12775   7.16179   7.16679   7.18031   7.20342
 Alpha virt. eigenvalues --    7.21258   7.25101   7.29665   7.31118   7.39283
 Alpha virt. eigenvalues --    7.40843  22.34517  22.52007  22.53391  22.56434
 Alpha virt. eigenvalues --   22.59509  22.63919  22.65609  22.66626  22.67717
 Alpha virt. eigenvalues --   22.76873  22.82631  22.94330  23.14101  23.30072
 Alpha virt. eigenvalues --   23.56690  23.69687  43.91378  43.97741  43.98189
 Alpha virt. eigenvalues --   43.98678  44.04712  44.11636  44.12220  44.16993
 Alpha virt. eigenvalues --   44.19909  44.29609  44.31534  44.33764
          Condensed to atoms (all electrons):
 Mulliken charges:
               1
     1  O   -0.495589
     2  Ti   1.182587
     3  O   -0.534941
     4  O   -0.546729
     5  C   -0.177712
     6  C   -0.034864
     7  C   -0.129489
     8  C   -0.114338
     9  O   -0.521531
    10  C   -0.049509
    11  C   -0.171443
    12  O   -0.467414
    13  H    0.166897
    14  H    0.169959
    15  H    0.152888
    16  H    0.174456
    17  H    0.144827
    18  H    0.145841
    19  H    0.177789
    20  H    0.171542
    21  H    0.148067
    22  H    0.140002
    23  H    0.124673
    24  H    0.140349
    25  O   -0.522734
    26  H    0.340633
    27  H    0.344243
    28  H    0.432582
    29  O   -0.521981
    30  C    0.487006
    31  O   -0.567931
    32  C   -0.169633
    33  C    0.090137
    34  C   -0.144505
    35  C   -0.216903
    36  C   -0.173315
    37  C    0.043384
    38  H    0.191894
    39  C    0.356678
    40  H    0.179098
    41  O   -0.378853
    42  O   -0.419232
    43  H    0.366250
    44  O   -0.535673
    45  C   -0.108017
    46  C   -0.104487
    47  O   -0.534330
    48  H    0.416508
    49  H    0.164287
    50  H    0.160519
    51  H    0.366947
    52  H    0.150216
    53  H    0.146151
    54  H    0.172636
    55  H    0.192109
 Sum of Mulliken charges =  -0.00000
 Mulliken charges with hydrogens summed into heavy atoms:
               1
     1  O   -0.079081
     2  Ti   1.182587
     3  O   -0.534941
     4  O   -0.546729
     5  C    0.110356
     6  C    0.230157
     7  C    0.207367
     8  C    0.213005
     9  O   -0.177288
    10  C    0.241158
    11  C    0.177888
    12  O   -0.034831
    25  O   -0.182101
    29  O   -0.521981
    30  C    0.487006
    31  O   -0.567931
    32  C    0.022476
    33  C    0.090137
    34  C    0.028131
    35  C   -0.025009
    36  C    0.005782
    37  C    0.043384
    39  C    0.356678
    41  O   -0.378853
    42  O   -0.052982
    44  O   -0.535673
    45  C    0.188350
    46  C    0.220319
    47  O   -0.167382
 Electronic spatial extent (au):  <R**2>=          16142.3233
 Charge=             -0.0000 electrons
 Dipole moment (field-independent basis, Debye):
    X=              1.2319    Y=             -0.8629    Z=              7.5906  Tot=              7.7381
 Quadrupole moment (field-independent basis, Debye-Ang):
   XX=           -173.4604   YY=           -191.2479   ZZ=           -159.3860
   XY=              7.7485   XZ=            -23.0674   YZ=             -5.8875
 Traceless Quadrupole moment (field-independent basis, Debye-Ang):
   XX=              1.2377   YY=            -16.5498   ZZ=             15.3121
   XY=              7.7485   XZ=            -23.0674   YZ=             -5.8875
 Octapole moment (field-independent basis, Debye-Ang**2):
  XXX=             80.8254  YYY=           -425.7658  ZZZ=            298.8002  XYY=             39.6814
  XXY=           -125.0037  XXZ=             59.7922  XZZ=            114.4605  YZZ=            -27.7019
  YYZ=              7.4052  XYZ=            -27.4134
 Hexadecapole moment (field-independent basis, Debye-Ang**3):
 XXXX=          -5616.9662 YYYY=          -3947.2302 ZZZZ=         -11432.0976 XXXY=            -35.2994
 XXXZ=          -2698.5405 YYYX=           -191.5665 YYYZ=           -363.5580 ZZZX=          -3246.7591
 ZZZY=           -440.0714 XXYY=          -1355.4869 XXZZ=          -3451.4406 YYZZ=          -2113.3780
 XXYZ=            -76.5268 YYXZ=           -613.2429 ZZXY=            -96.7477
 N-N= 3.572706862730D+03 E-N=-1.274146511758D+04  KE= 2.369885001725D+03
   1 Symmetry operations used in ECPInt.
 ECPInt:  NShTT=   91378 NPrTT=  283881 LenC2=   70454 LenP2D=  146781.
 LDataN:  DoStor=T MaxTD1= 7 Len=  274
 D1PCM: PCM CHGder 1st derivatives, ID1Alg=3 FixD1E=F DoIter=F DoCFld=F I1PDM=0.
 Calling FoFJK, ICntrl=      2127 FMM=F ISym2X=0 I1Cent= 0 IOpClX= 0 NMat=1 NMatS=1 NMatT=0.
 -------------------------------------------------------------------
 Center     Atomic                   Forces (Hartrees/Bohr)
 Number     Number              X              Y              Z
 -------------------------------------------------------------------
      1        8           0.000009059   -0.000028209    0.000095547
      2       22           0.000196072    0.000149108   -0.000044194
      3        8          -0.000039027   -0.000000343   -0.000019829
      4        8          -0.000023685   -0.000076679   -0.000029109
      5        6           0.000033308    0.000042707    0.000026753
      6        6          -0.000000763    0.000004896    0.000001399
      7        6           0.000008509    0.000001996    0.000002018
      8        6          -0.000001474    0.000003890   -0.000008893
      9        8          -0.000001509    0.000000238    0.000004234
     10        6           0.000025438   -0.000000051    0.000022678
     11        6          -0.000005672    0.000005655   -0.000003921
     12        8          -0.000022947   -0.000006878   -0.000023829
     13        1           0.000004391    0.000004166   -0.000000319
     14        1          -0.000004750   -0.000004051   -0.000000257
     15        1          -0.000001027   -0.000000156    0.000001917
     16        1          -0.000000586   -0.000000307    0.000005285
     17        1          -0.000003401   -0.000000713    0.000004826
     18        1          -0.000003621    0.000001051   -0.000002838
     19        1           0.000004166   -0.000001020   -0.000001194
     20        1          -0.000001198   -0.000002753    0.000002389
     21        1          -0.000007565   -0.000004995   -0.000003544
     22        1          -0.000011310   -0.000007731   -0.000000472
     23        1          -0.000002456   -0.000003848    0.000005582
     24        1           0.000001021    0.000001711    0.000000094
     25        8          -0.000008180   -0.000015388   -0.000001892
     26        1          -0.000001016    0.000000951    0.000001977
     27        1          -0.000001799    0.000003542    0.000000325
     28        1           0.000008872   -0.000000551    0.000007234
     29        8           0.000256344    0.000230248   -0.000061346
     30        6           0.000856661    0.001446413   -0.001987022
     31        8           0.000376719    0.000151828    0.000036962
     32        6           0.000393353    0.000529096   -0.000390874
     33        6          -0.001582119   -0.002698926    0.003814652
     34        6          -0.000676258    0.000339210   -0.002068148
     35        6           0.001011045   -0.000612224    0.003262524
     36        6          -0.000265094    0.000408717   -0.001675444
     37        6           0.007632912    0.004345852    0.001555298
     38        1           0.000064345   -0.000817989    0.002231487
     39        6          -0.005959758   -0.003474309   -0.000603457
     40        1          -0.000138059    0.000431944   -0.001350480
     41        8          -0.000794370   -0.000295957   -0.000678855
     42        8          -0.000473638    0.000270636   -0.001624547
     43        1          -0.000275549   -0.000234473    0.000109596
     44        8          -0.000091394   -0.000075257   -0.000025123
     45        6          -0.000002859    0.000019317    0.000032069
     46        6           0.000015318    0.000013684    0.000020859
     47        8          -0.000032790   -0.000019407   -0.000025123
     48        1          -0.000061141    0.000029431   -0.000107544
     49        1           0.000000722   -0.000003633   -0.000000779
     50        1           0.000001340   -0.000002901   -0.000001414
     51        1           0.000005389    0.000005331    0.000009377
     52        1           0.000004509    0.000000408    0.000002735
     53        1          -0.000000637   -0.000003934    0.000017203
     54        1          -0.000042298    0.000024024   -0.000173464
     55        1          -0.000371546   -0.000073366   -0.000361115
 -------------------------------------------------------------------
 Cartesian Forces:  Max     0.007632912 RMS     0.001078207

 GradGradGradGradGradGradGradGradGradGradGradGradGradGradGradGradGradGrad
 Berny optimization.
 FormGI is forming the generalized inverse of G from B-inverse, IUseBI=4.
 Internal  Forces:  Max     0.015224941 RMS     0.001355160
 Search for a local minimum.
 Step number   1 out of a maximum of  309
 All quantities printed in internal units (Hartrees-Bohrs-Radians)
 Mixed Optimization -- RFO/linear search
 Second derivative matrix not updated -- first step.
 ITU=  0
     Eigenvalues ---    0.00230   0.00488   0.00522   0.00578   0.00729
     Eigenvalues ---    0.00818   0.00931   0.01277   0.01300   0.01377
     Eigenvalues ---    0.01385   0.01448   0.01472   0.01487   0.01657
     Eigenvalues ---    0.01697   0.01767   0.01781   0.01828   0.01949
     Eigenvalues ---    0.02206   0.02212   0.02225   0.02233   0.02244
     Eigenvalues ---    0.02254   0.02262   0.02521   0.02598   0.03190
     Eigenvalues ---    0.03268   0.03890   0.04224   0.04765   0.04834
     Eigenvalues ---    0.04951   0.04986   0.04990   0.05050   0.05178
     Eigenvalues ---    0.05231   0.05659   0.05741   0.05878   0.05949
     Eigenvalues ---    0.06001   0.06041   0.06108   0.06313   0.07637
     Eigenvalues ---    0.08180   0.08635   0.08953   0.09060   0.09081
     Eigenvalues ---    0.09092   0.10014   0.10120   0.10543   0.11248
     Eigenvalues ---    0.11373   0.11490   0.11506   0.11564   0.11656
     Eigenvalues ---    0.11995   0.12508   0.12922   0.13284   0.13816
     Eigenvalues ---    0.13888   0.13892   0.13916   0.13929   0.14280
     Eigenvalues ---    0.15344   0.16000   0.16000   0.16000   0.16000
     Eigenvalues ---    0.16000   0.16000   0.16000   0.16000   0.16799
     Eigenvalues ---    0.18312   0.19436   0.21056   0.21601   0.21924
     Eigenvalues ---    0.21990   0.22000   0.22041   0.22045   0.22065
     Eigenvalues ---    0.22085   0.23018   0.23117   0.23479   0.23493
     Eigenvalues ---    0.24648   0.24985   0.25000   0.25000   0.25000
     Eigenvalues ---    0.25000   0.25000   0.25000   0.25000   0.28748
     Eigenvalues ---    0.30266   0.30515   0.30929   0.32795   0.33718
     Eigenvalues ---    0.33725   0.33963   0.33987   0.34148   0.34220
     Eigenvalues ---    0.34332   0.34345   0.34402   0.34552   0.34578
     Eigenvalues ---    0.34633   0.34717   0.34744   0.34772   0.34828
     Eigenvalues ---    0.34861   0.35801   0.35829   0.35858   0.35872
     Eigenvalues ---    0.38434   0.40794   0.41979   0.42888   0.42970
     Eigenvalues ---    0.43062   0.43149   0.43238   0.45690   0.46571
     Eigenvalues ---    0.46852   0.47368   0.47637   0.47760   0.47806
     Eigenvalues ---    0.49181   0.53530   0.54347   0.54865   0.54875
     Eigenvalues ---    0.57813   0.71016   0.89862   1.02390
 RFO step:  Lambda=-2.16554283D-03 EMin= 2.30000000D-03
 Linear search not attempted -- first point.
 Iteration  1 RMS(Cart)=  0.02703620 RMS(Int)=  0.00034759
 Iteration  2 RMS(Cart)=  0.00062455 RMS(Int)=  0.00000320
 Iteration  3 RMS(Cart)=  0.00000012 RMS(Int)=  0.00000320
 Variable       Old X    -DE/DX   Delta X   Delta X   Delta X     New X
                                 (Linear)    (Quad)   (Total)
    R1        4.14533  -0.00003   0.00000  -0.00028  -0.00028   4.14505
    R2        2.68950   0.00000   0.00000   0.00001   0.00001   2.68951
    R3        1.89027   0.00013   0.00000   0.00026   0.00026   1.89054
    R4        3.54125  -0.00002   0.00000  -0.00006  -0.00006   3.54119
    R5        3.47479  -0.00005   0.00000  -0.00022  -0.00022   3.47458
    R6        4.10389  -0.00002   0.00000  -0.00017  -0.00017   4.10372
    R7        3.71657  -0.00004   0.00000  -0.00023  -0.00023   3.71634
    R8        3.43003   0.00011   0.00000   0.00048   0.00048   3.43051
    R9        2.64734   0.00002   0.00000   0.00005   0.00005   2.64739
   R10        2.63493   0.00003   0.00000   0.00007   0.00007   2.63500
   R11        2.87436  -0.00000   0.00000  -0.00001  -0.00001   2.87435
   R12        2.07809  -0.00001   0.00000  -0.00002  -0.00002   2.07808
   R13        2.07081  -0.00001   0.00000  -0.00002  -0.00002   2.07078
   R14        2.06960   0.00000   0.00000   0.00001   0.00001   2.06962
   R15        2.06046  -0.00000   0.00000  -0.00000  -0.00000   2.06046
   R16        2.67706  -0.00001   0.00000  -0.00003  -0.00003   2.67703
   R17        2.86949  -0.00000   0.00000  -0.00001  -0.00001   2.86948
   R18        2.06275  -0.00000   0.00000  -0.00001  -0.00001   2.06274
   R19        2.06408  -0.00000   0.00000  -0.00001  -0.00001   2.06408
   R20        2.67486  -0.00000   0.00000  -0.00000  -0.00000   2.67486
   R21        2.06752  -0.00000   0.00000  -0.00000  -0.00000   2.06752
   R22        2.06138   0.00000   0.00000   0.00001   0.00001   2.06139
   R23        1.81952   0.00000   0.00000   0.00000   0.00000   1.81952
   R24        2.87559  -0.00000   0.00000  -0.00004  -0.00004   2.87556
   R25        2.07393   0.00001   0.00000   0.00002   0.00002   2.07395
   R26        2.06658  -0.00000   0.00000  -0.00001  -0.00001   2.06657
   R27        2.71306  -0.00000   0.00000  -0.00001  -0.00001   2.71305
   R28        2.05902  -0.00000   0.00000  -0.00000  -0.00000   2.05902
   R29        2.06093  -0.00000   0.00000  -0.00001  -0.00001   2.06092
   R30        1.87401   0.00000   0.00000   0.00000   0.00000   1.87401
   R31        1.81943   0.00000   0.00000   0.00000   0.00000   1.81943
   R32        2.32997   0.00035   0.00000   0.00038   0.00038   2.33035
   R33        2.43158  -0.00010   0.00000  -0.00014  -0.00014   2.43143
   R34        2.82713   0.00025   0.00000   0.00076   0.00076   2.82790
   R35        2.63206  -0.00003   0.00000   0.00011   0.00011   2.63217
   R36        2.61944   0.00116   0.00000   0.00229   0.00229   2.62172
   R37        2.04395  -0.00032   0.00000  -0.00089  -0.00089   2.04306
   R38        2.62147   0.00041   0.00000   0.00115   0.00115   2.62262
   R39        2.62240  -0.00156   0.00000  -0.00354  -0.00354   2.61886
   R40        2.04349  -0.00004   0.00000  -0.00010  -0.00010   2.04339
   R41        2.62589   0.00317   0.00000   0.00678   0.00678   2.63268
   R42        2.04304  -0.00115   0.00000  -0.00319  -0.00319   2.03984
   R43        2.63158  -0.00203   0.00000  -0.00447  -0.00447   2.62711
   R44        2.04282   0.00084   0.00000   0.00233   0.00233   2.04516
   R45        2.81096   0.00107   0.00000   0.00314   0.00314   2.81410
   R46        2.27696   0.00108   0.00000   0.00105   0.00105   2.27802
   R47        2.52714  -0.00031   0.00000  -0.00054  -0.00054   2.52660
   R48        1.83162  -0.00017   0.00000  -0.00031  -0.00031   1.83131
   R49        2.64482   0.00005   0.00000   0.00012   0.00012   2.64494
   R50        2.86148   0.00000   0.00000   0.00000   0.00000   2.86148
   R51        2.07352  -0.00000   0.00000  -0.00000  -0.00000   2.07352
   R52        2.06774   0.00000   0.00000   0.00000   0.00000   2.06774
   R53        2.70488  -0.00003   0.00000  -0.00007  -0.00007   2.70481
   R54        2.05955   0.00000   0.00000   0.00001   0.00001   2.05956
   R55        2.06365  -0.00000   0.00000  -0.00000  -0.00000   2.06365
   R56        1.82417   0.00000   0.00000   0.00001   0.00001   1.82418
    A1        2.22283   0.00001   0.00000   0.00007   0.00007   2.22290
    A2        1.82067  -0.00001   0.00000   0.00000   0.00000   1.82068
    A3        1.95874   0.00000   0.00000   0.00009   0.00009   1.95882
    A4        1.49521   0.00002   0.00000   0.00021   0.00021   1.49542
    A5        1.46013   0.00001   0.00000   0.00001   0.00001   1.46014
    A6        1.49788   0.00003   0.00000   0.00015   0.00015   1.49803
    A7        1.46538  -0.00005   0.00000  -0.00038  -0.00038   1.46500
    A8        2.74407   0.00002   0.00000   0.00011   0.00011   2.74418
    A9        1.33189   0.00001   0.00000   0.00001   0.00001   1.33191
   A10        1.70090  -0.00003   0.00000  -0.00022  -0.00022   1.70068
   A11        1.66604   0.00001   0.00000   0.00005   0.00005   1.66608
   A12        1.44653   0.00001   0.00000   0.00004   0.00004   1.44656
   A13        1.76887   0.00001   0.00000   0.00015   0.00015   1.76902
   A14        1.64950  -0.00002   0.00000  -0.00016  -0.00016   1.64933
   A15        1.61040   0.00000   0.00000   0.00015   0.00015   1.61055
   A16        1.71200   0.00002   0.00000   0.00011   0.00011   1.71210
   A17        2.07122  -0.00001   0.00000  -0.00004  -0.00004   2.07118
   A18        2.39745   0.00000   0.00000   0.00002   0.00002   2.39747
   A19        1.91472  -0.00000   0.00000  -0.00004  -0.00004   1.91469
   A20        1.92782  -0.00000   0.00000  -0.00005  -0.00005   1.92777
   A21        1.93114  -0.00000   0.00000  -0.00004  -0.00004   1.93110
   A22        1.90656  -0.00000   0.00000  -0.00000  -0.00000   1.90655
   A23        1.91235   0.00001   0.00000   0.00007   0.00007   1.91241
   A24        1.87065   0.00000   0.00000   0.00007   0.00007   1.87072
   A25        1.91295  -0.00000   0.00000  -0.00001  -0.00001   1.91294
   A26        1.91142   0.00000   0.00000   0.00001   0.00001   1.91143
   A27        1.94775  -0.00000   0.00000  -0.00001  -0.00001   1.94774
   A28        1.88397   0.00000   0.00000   0.00003   0.00003   1.88400
   A29        1.94350   0.00000   0.00000  -0.00001  -0.00001   1.94349
   A30        1.86240  -0.00000   0.00000  -0.00001  -0.00001   1.86239
   A31        1.89581  -0.00001   0.00000  -0.00002  -0.00002   1.89578
   A32        1.91099   0.00001   0.00000   0.00005   0.00005   1.91104
   A33        1.90879  -0.00000   0.00000  -0.00004  -0.00004   1.90875
   A34        1.92585  -0.00000   0.00000   0.00000   0.00000   1.92585
   A35        1.92879   0.00001   0.00000   0.00003   0.00003   1.92883
   A36        1.89354  -0.00000   0.00000  -0.00002  -0.00002   1.89352
   A37        1.94002   0.00000   0.00000   0.00001   0.00001   1.94003
   A38        1.91753   0.00000   0.00000   0.00001   0.00001   1.91753
   A39        1.90470   0.00000   0.00000  -0.00000  -0.00000   1.90470
   A40        1.94703  -0.00000   0.00000   0.00001   0.00001   1.94703
   A41        1.86858  -0.00000   0.00000  -0.00002  -0.00002   1.86856
   A42        1.88411   0.00000   0.00000   0.00000   0.00000   1.88411
   A43        1.90065  -0.00000   0.00000  -0.00002  -0.00002   1.90063
   A44        1.87018  -0.00000   0.00000  -0.00004  -0.00004   1.87014
   A45        1.92047   0.00000   0.00000   0.00002   0.00002   1.92049
   A46        1.93691  -0.00000   0.00000  -0.00002  -0.00002   1.93689
   A47        1.91438  -0.00000   0.00000  -0.00001  -0.00001   1.91436
   A48        1.92825   0.00000   0.00000   0.00004   0.00004   1.92829
   A49        1.89374   0.00000   0.00000   0.00001   0.00001   1.89376
   A50        1.85839  -0.00000   0.00000  -0.00003  -0.00003   1.85835
   A51        1.96981  -0.00000   0.00000   0.00000   0.00000   1.96981
   A52        1.94108   0.00000   0.00000  -0.00000  -0.00000   1.94107
   A53        1.92292   0.00000   0.00000   0.00002   0.00002   1.92295
   A54        1.86408   0.00000   0.00000   0.00003   0.00003   1.86412
   A55        1.90431  -0.00000   0.00000  -0.00002  -0.00002   1.90429
   A56        1.97697   0.00000   0.00000   0.00002   0.00002   1.97699
   A57        1.82417   0.00001   0.00000   0.00011   0.00011   1.82427
   A58        1.95591  -0.00001   0.00000  -0.00003  -0.00003   1.95588
   A59        1.89562   0.00000   0.00000   0.00002   0.00002   1.89564
   A60        2.16669  -0.00044   0.00000  -0.00176  -0.00176   2.16492
   A61        2.09531  -0.00036   0.00000  -0.00142  -0.00142   2.09390
   A62        2.02118   0.00080   0.00000   0.00318   0.00318   2.02436
   A63        2.42455  -0.00026   0.00000  -0.00104  -0.00104   2.42351
   A64        2.09764  -0.00026   0.00000  -0.00113  -0.00113   2.09651
   A65        2.07727   0.00055   0.00000   0.00317   0.00317   2.08043
   A66        2.10828  -0.00029   0.00000  -0.00204  -0.00204   2.10624
   A67        2.08571   0.00515   0.00000   0.02000   0.02000   2.10571
   A68        2.10353  -0.00488   0.00000  -0.01974  -0.01974   2.08379
   A69        2.09395  -0.00027   0.00000  -0.00025  -0.00026   2.09369
   A70        2.09392   0.00032   0.00000   0.00049   0.00049   2.09442
   A71        2.09590   0.00002   0.00000   0.00086   0.00086   2.09675
   A72        2.09336  -0.00034   0.00000  -0.00135  -0.00135   2.09201
   A73        2.09071  -0.00013   0.00000   0.00022   0.00022   2.09092
   A74        2.10036  -0.00206   0.00000  -0.01321  -0.01321   2.08715
   A75        2.09212   0.00219   0.00000   0.01299   0.01299   2.10511
   A76        2.09184   0.00102   0.00000   0.00352   0.00352   2.09535
   A77        2.10020   0.00066   0.00000   0.00547   0.00547   2.10567
   A78        2.09115  -0.00168   0.00000  -0.00899  -0.00899   2.08216
   A79        2.09832  -0.00068   0.00000  -0.00284  -0.00284   2.09548
   A80        2.06049   0.01522   0.00000   0.06045   0.06045   2.12094
   A81        2.12437  -0.01455   0.00000  -0.05761  -0.05761   2.06676
   A82        2.16968  -0.00180   0.00000  -0.00713  -0.00713   2.16255
   A83        1.97348   0.00331   0.00000   0.01313   0.01312   1.98660
   A84        2.14002  -0.00151   0.00000  -0.00600  -0.00600   2.13402
[...]
 0.00000502,0.00000009,-0.00000084,0.00000013,0.02158817,-0.02495553,-0
 .00849121,-0.01563339,0.03832566,-0.05291995,-0.01052288,0.03095723,-0
 .00571655,0.00242097,-0.00018673,0.00255263,0.00003683,-0.00003660,0.0
 0007875,-0.00314760,-0.00024100,-0.00487875,0.00077409,-0.00049599,0.0
 0091427,-0.00042942,-0.00089667,-0.00028066,0.00698734,-0.03412860,0.0
 6522294,-0.00068012,-0.00034215,0.00035538,0.00286537,0.00288602,-0.00
 313128,-0.00073323,0.00081752,0.00021595,0.00051448,-0.00122513,-0.000
 60074,0.00020008,0.00025425,0.00014883,-0.00012547,0.00005863,0.000026
 45,0.00022370,-0.00011502,0.00003783,0.00004646,0.00003716,0.00002276,
 -0.00009452,-0.00001770,-0.00001066,0.00018411,-0.00015568,0.00030642,
 0.00025637,-0.00017036,-0.00002440,-0.00062240,-0.00007645,-0.00021641
 ,0.00000555,0.00000886,-0.00002766,-0.00006569,-0.00001090,0.00001622,
 -0.00000599,-0.00001076,0.00000325,0.00001631,0.00001714,0.00001252,0.
 00001312,-0.00001369,-0.00004905,-0.00006853,0.00005318,-0.00002502,-0
 .00002842,0.00001297,-0.00003833,-0.00003907,0.00002059,0.00001602,-0.
 00002148,-0.00002602,-0.00003744,-0.00002943,-0.00006143,-0.00000845,0
 .00001267,0.00000301,-0.00001635,0.00000814,-0.00000737,0.00000726,0.0
 0001957,-0.00012003,-0.00005330,-0.00000192,0.00001440,0.00001732,0.00
 001098,0.00000757,-0.00000316,0.00029943,0.00010585,0.00003347,-0.0001
 0265,-0.00018773,0.00026067,0.00002415,0.00031864,-0.00070561,0.000417
 94,-0.00016688,0.00130805,-0.00000192,-0.00000609,0.00001743,0.0000121
 8,-0.00002557,0.00008352,0.00000103,-0.00000266,0.00000981,0.00002692,
 0.00002284,-0.00001347,0.00000841,0.00000075,0.00001234,0.00001361,0.0
 0000028,0.00002350,-0.00000187,0.00000134,-0.00000787,0.00000171,0.000
 01536,-0.00003832,0.00000064,0.00000007,0.00000097,0.00000916,-0.00000
 320,0.00002452,-0.00000523,-0.00000797,0.00001254,0.00000066,0.0000008
 8,-0.00000125,-0.02716123,-0.00862420,0.01611268,-0.20295246,-0.123318
 19,-0.01626859,-0.01119592,-0.01075883,-0.00072908,-0.00125443,-0.0006
 0650,-0.00308304,-0.00007506,0.00004790,-0.00014195,0.00017008,0.00028
 289,0.00055544,0.00066625,0.00032038,-0.00026213,-0.00021854,0.0002712
 0,0.00002668,0.00873197,0.00490669,0.00025936,0.23074056,0.00021824,0.
 00005887,0.00001651,0.00061648,-0.00035520,-0.00095517,-0.00018499,-0.
 00003527,-0.00000883,-0.00084383,0.00024380,0.00059195,0.00008839,0.00
 028760,0.00012128,0.00003500,0.00006583,-0.00002340,-0.00001029,0.0000
 5021,-0.00002424,0.00001022,-0.00000666,-0.00001303,-0.00000333,0.0000
 0172,0.00000764,0.00000283,-0.00001721,0.00001872,0.00005725,-0.000061
 86,0.00001035,-0.00017291,0.00007095,0.00016709,-0.00000228,-0.0000068
 2,-0.00000029,0.00001194,-0.00000203,0.00000245,-0.00000040,-0.0000000
 5,0.00000055,0.00000457,0.00000281,0.00000464,0.00002761,-0.00000357,-
 0.00000520,0.00000209,0.00000425,0.00000817,0.00000171,0.00000558,-0.0
 0000653,-0.00001478,0.00001021,0.00000231,0.00000419,0.00000574,-0.000
 02721,-0.00005166,-0.00007113,0.00000524,-0.00002785,-0.00000506,0.000
 00847,0.00000081,-0.00000869,0.00000775,-0.00002042,-0.00006856,-0.000
 01370,0.00000404,0.00000932,0.00000887,-0.00000085,0.00000038,-0.00000
 052,0.00033410,-0.00004078,-0.00013608,-0.00001167,-0.00001405,0.00001
 379,-0.00001505,0.00001392,-0.00004989,-0.00002658,-0.00002813,0.00006
 356,0.00000026,-0.00000409,-0.00000028,0.00000289,0.00000177,0.0000005
 7,-0.00000018,-0.00000021,-0.00000068,0.00000008,0.,-0.00000204,0.0000
 0032,-0.00000075,0.00000158,0.00000152,0.00000138,-0.00000064,-0.00000
 037,0.00000036,-0.00000036,-0.00000107,-0.00000043,0.00000122,-0.00000
 016,0.00000026,0.00000012,0.00000060,-0.00000008,-0.00000031,0.0000010
 1,0.00000038,-0.00000066,-0.00000025,0.00000011,0.00000016,0.01032842,
 0.01031440,0.00030862,-0.12662230,-0.15215068,-0.00884037,0.00361639,0
 .00095065,0.00159633,0.00000645,0.00147147,0.00002722,-0.00000584,-0.0
 0001468,0.00000985,-0.00021999,0.00024369,-0.00061490,-0.00041265,0.00
 010971,-0.00054837,0.00044661,0.00042924,0.00071858,-0.02275393,-0.016
 73727,-0.00344871,0.13558531,0.15527653,0.00084244,0.00047379,-0.00038
 392,-0.00221012,-0.00226754,0.00149882,0.00069272,-0.00084384,-0.00010
 954,-0.00014063,0.00106469,0.00057701,-0.00024348,-0.00023855,-0.00022
 078,0.00011486,-0.00003463,-0.00000248,-0.00023531,0.00013994,-0.00006
 008,-0.00003127,-0.00003929,-0.00004162,0.00008169,0.00001556,0.000021
 54,-0.00019019,0.00013645,-0.00031102,-0.00005291,-0.00007676,0.000065
 49,-0.00001738,0.00020749,0.00086657,0.00000109,-0.00001390,0.00002054
 ,0.00007313,0.00000697,-0.00001164,0.00000189,0.00000757,0.00000097,-0
 .00000758,-0.00000495,-0.00000526,-0.00000297,-0.00000550,0.00005112,0
 .00006548,-0.00003949,0.00005100,0.00003982,-0.00000058,0.00001660,-0.
 00000637,0.00001925,-0.00000629,0.00006029,0.00006611,0.00004585,0.000
 05042,0.00006662,0.00002292,-0.00001546,0.00000617,0.00000457,-0.00000
 482,-0.00000107,-0.00000707,-0.00001347,0.00011447,0.00004592,0.000000
 27,-0.00000978,-0.00001684,-0.00001137,-0.00000691,0.00000234,0.000939
 23,-0.00017517,-0.00108998,0.00004920,0.00012467,-0.00020065,-0.000056
 83,-0.00025765,0.00052721,-0.00033980,0.00011048,-0.00095286,-0.000005
 21,0.00000940,-0.00002568,-0.00000658,0.00002181,-0.00006892,-0.000001
 44,0.00000083,-0.00000491,-0.00002395,-0.00002088,0.00000960,-0.000005
 70,0.00000033,-0.00001099,-0.00001188,-0.00000080,-0.00001693,0.000001
 55,-0.00000150,0.00000674,-0.00000147,-0.00001111,0.00002632,-0.000000
 47,-0.00000031,-0.00000044,-0.00000670,0.00000244,-0.00001752,0.000003
 33,0.00000562,-0.00000864,-0.00000040,-0.00000069,0.00000075,0.0343352
 7,0.01404811,-0.00989245,-0.01822575,-0.00838454,-0.04904109,-0.019309
 80,-0.01926379,0.00265902,-0.00726683,-0.00158907,-0.00652772,0.000081
 20,-0.00005175,0.00016050,0.00047606,0.00085090,0.00088735,0.00080676,
 -0.00048342,0.00062181,-0.00004122,0.00094496,0.00014878,0.00420155,0.
 00438168,0.00171542,0.00555939,0.01099375,0.05898225,-0.00012835,0.000
 01107,-0.00014711,0.00010700,-0.00005249,0.00033754,-0.00004375,0.0000
 6606,-0.00001097,0.00001117,-0.00006268,-0.00004100,0.00001285,0.00002
 319,0.00000624,-0.00000573,0.00000592,0.00000240,0.00006144,-0.0000139
 8,-0.00001446,0.00000364,0.00000899,0.00000691,-0.00001711,-0.00000336
 ,-0.00000424,0.00000618,-0.00001814,0.00001739,0.00000790,-0.00000491,
 -0.00000556,-0.00002429,0.00000377,-0.00002948,-0.00000717,0.00000299,
 -0.00000221,-0.00000351,-0.00000157,0.00000652,-0.00000025,-0.00000103
 ,0.00000012,0.00000076,0.00000094,0.00000111,0.00000022,0.00000257,-0.
 00000536,-0.00000361,0.00000355,-0.00000242,-0.00000196,0.00000029,-0.
 00000253,-0.00000071,0.00000038,0.00000130,-0.00000311,-0.00000433,-0.
 00000419,-0.00000163,-0.00000136,0.00000073,0.00000086,-0.00000034,-0.
 00000109,0.00000018,0.00000005,0.00000063,0.00000025,-0.00000909,-0.00
 000453,-0.00000011,0.00000116,0.00000157,0.00000198,0.00000091,-0.0000
 0054,-0.00000465,0.00000198,0.00001080,-0.00094464,-0.00031652,-0.0003
 4390,0.00042072,-0.00042089,0.00137657,-0.00020978,0.00005453,-0.00063
 649,-0.01226767,-0.01348876,0.00813252,0.00009174,-0.00316998,-0.00465
 849,-0.21505794,-0.13700141,0.06072236,-0.00011883,0.00063039,-0.00053
 790,0.00416850,0.00088357,-0.00173464,0.00320866,-0.00244112,-0.001314
 17,-0.00030562,0.00040683,0.00022737,0.00018320,0.00010059,-0.00051125
 ,-0.00083106,0.00194848,0.00102165,0.00007843,-0.00007898,0.00020135,-
 0.00008629,0.00001243,0.00008866,-0.00001085,0.00005052,-0.00001331,0.
 00005588,0.00003911,-0.00006867,-0.00002356,0.00000931,0.00001754,0.00
 000629,-0.00000471,0.00000001,0.00000235,0.00000095,-0.00000884,0.0001
 6005,0.00001223,0.00021229,-0.00000062,0.00000038,0.00000055,-0.000000
 37,-0.00000025,-0.00000378,-0.00000023,0.00000066,0.00000430,0.0000014
 1,-0.00000229,-0.00000229,0.00000559,0.00000029,-0.00000451,0.22183876
 ,-0.00005757,0.00000432,-0.00005901,0.00004611,-0.00000322,0.00018024,
 -0.00002056,0.00002760,-0.00000991,0.00000883,-0.00003961,-0.00002216,
 0.00000648,0.00001305,0.00000265,-0.00000535,0.00000239,0.00000046,0.0
 0002698,-0.00000571,-0.00000668,0.00000167,0.00000482,0.00000343,-0.00
 000778,-0.00000240,-0.00000230,0.00000428,-0.00000881,0.00000957,0.000
 00271,-0.00000123,-0.00000221,-0.00000993,-0.00000015,-0.00001520,-0.0
 0000319,0.00000120,-0.00000086,-0.00000183,-0.00000050,0.00000247,-0.0
 0000020,-0.00000086,0.00000009,0.00000035,0.00000046,0.00000045,-0.000
 00012,0.00000106,-0.00000216,-0.00000131,0.00000162,-0.00000079,-0.000
 00104,-0.00000007,-0.00000137,-0.00000018,0.00000007,0.00000055,-0.000
 00141,-0.00000271,-0.00000182,-0.00000098,-0.00000081,0.,0.00000062,0.
 00000029,-0.00000112,0.00000024,-0.00000081,0.00000061,0.00000182,-0.0
 0000414,-0.00000158,-0.00000043,0.00000062,0.00000068,0.00000095,0.000
 00091,-0.00000005,-0.00000371,0.00000178,0.00000586,-0.00023819,-0.000
 33467,-0.00020508,0.00021412,0.00018022,0.00066378,-0.00016566,0.00006
 655,-0.00031310,-0.00434967,-0.00018698,0.00304017,-0.00338238,0.00524
 442,0.00037522,-0.13697825,-0.14972683,0.05559777,0.00061945,-0.000292
 57,-0.00022287,-0.00827286,-0.00232400,0.00192586,-0.00224150,0.004913
 61,0.00355061,0.00040976,-0.00069977,-0.00024729,-0.00051788,0.0001936
 5,-0.00057431,0.00216133,-0.00251994,-0.00125654,0.00008186,0.00002794
 ,0.00029443,-0.00004212,-0.00029310,0.00030159,0.00000805,-0.00006332,
 -0.00003352,0.00003182,0.00001506,-0.00003641,-0.00001545,0.00000701,0
 .00001146,0.00000317,-0.00000247,-0.00000043,0.00000222,-0.00000039,-0
 .00000440,0.00007711,-0.00000179,0.00008395,0.00000017,-0.00000003,0.0
 0000074,-0.00000019,0.00000002,-0.00000227,-0.00000053,0.00000056,0.00
 000185,0.00000105,-0.00000262,-0.00000231,0.00000269,0.00000097,-0.000
 00240,0.15055939,0.14829190,-0.00006452,0.00001156,-0.00008657,0.00002
 114,-0.00002052,0.00013635,-0.00001404,0.00002265,-0.00000621,0.000007
 16,-0.00002508,-0.00001524,0.00000453,0.00000868,0.00000222,-0.0000033
 7,0.00000167,0.00000029,0.00002935,-0.00000574,-0.00000851,0.00000115,
 0.00000476,0.00000350,-0.00000767,-0.00000208,-0.00000214,0.00000253,-
 0.00000639,0.00000717,0.00000257,-0.00000200,-0.00000198,-0.00000770,0
 .00000111,-0.00001223,-0.00000385,0.00000127,-0.00000080,-0.00000125,-
 0.00000074,0.00000348,-0.00000011,-0.00000071,0.00000005,0.00000020,0.
 00000038,0.00000045,0.00000009,0.00000098,-0.00000217,-0.00000105,0.00
 000127,-0.00000077,-0.00000072,0.00000014,-0.00000095,-0.00000005,0.00
 000015,0.00000053,-0.00000099,-0.00000166,-0.00000122,-0.00000061,0.00
 000006,0.00000009,0.00000052,0.00000011,-0.00000075,0.00000011,-0.0000
 0055,0.00000039,0.00000108,-0.00000269,-0.00000106,-0.00000023,0.00000
 038,0.00000045,0.00000086,0.00000063,-0.00000019,-0.00000341,0.0000013
 7,0.00000461,-0.00056199,-0.00034685,-0.00030895,-0.00033263,-0.000454
 53,0.00093188,-0.00002899,0.00008246,-0.00021934,-0.01655946,-0.013081
 77,0.00991272,-0.00408265,0.00074669,-0.00161911,0.06065058,0.05556004
 ,-0.08245821,-0.00052166,-0.00020448,-0.00114037,0.02298376,0.01806298
 ,-0.00445329,-0.00185273,0.00320131,-0.00421891,0.00022400,-0.00025096
 ,0.00001253,0.00116375,0.00052159,0.00096419,0.00044804,-0.00162683,0.
 00079859,-0.00023194,0.00000931,-0.00034770,0.00023236,0.00039015,-0.0
 0080847,0.00010113,0.00003907,-0.00001148,0.00002863,0.00001736,-0.000
 02977,-0.00001121,0.00000385,0.00000750,0.00000167,-0.00000266,-0.0000
 0081,0.00000282,0.00000104,-0.00000284,0.00008773,-0.00000553,0.000120
 76,-0.00000004,0.00000002,0.00000049,-0.00000018,0.,-0.00000162,-0.000
 00038,0.00000014,0.00000125,0.00000061,-0.00000171,-0.00000169,0.00000
 254,0.00000069,-0.00000273,-0.06311595,-0.06183685,0.08244871,0.000187
 36,0.00004921,0.00005679,-0.00050485,-0.00004028,-0.00112257,0.0001375
 6,-0.00015223,0.00004318,-0.00003674,0.00022261,0.00012542,-0.00004142
 ,-0.00007285,-0.00001690,0.00002324,-0.00001680,-0.00000424,-0.0000832
 3,0.00003331,0.00001109,-0.00000860,-0.00001495,-0.00001175,0.00002822
 ,0.00000657,0.00000712,-0.00002162,0.00005151,-0.00005720,-0.00002168,
 0.00000821,0.00001348,0.00007192,0.00000638,0.00007484,0.00000250,-0.0
 0000393,0.00000370,0.00001122,0.00000194,-0.00000736,0.00000087,0.0000
 0297,-0.00000026,-0.00000239,-0.00000178,-0.00000131,-0.00000049,-0.00
 000604,0.00001298,0.00001022,-0.00000959,0.00000742,0.00000490,0.00000
 061,0.00000793,0.00000446,-0.00000139,-0.00000332,0.00000889,0.0000139
 5,0.00001142,0.00000654,0.00000982,-0.00000119,-0.00000239,0.00000030,
 0.00000313,-0.00000073,0.00000053,-0.00000264,-0.00000464,0.00002748,0
 .00001157,0.00000122,-0.00000385,-0.00000478,-0.00000345,-0.00000269,0
 .00000092,0.00000859,-0.00000814,-0.00003383,0.00069297,0.00031166,-0.
 00042255,-0.00096949,0.00134215,0.00198417,-0.00060096,0.00004390,-0.0
 0090089,-0.05439465,-0.00765950,0.00042234,0.00528613,-0.00782031,0.02
 160106,0.00531904,0.00777574,-0.02164079,-0.00191236,-0.00551936,0.000
 00473,-0.00095749,-0.00422524,-0.00406841,-0.00112924,-0.00023333,-0.0
 0010278,0.00021746,-0.00034759,0.00113818,-0.00047308,0.00049173,-0.00
 000477,0.00000754,0.00062439,-0.00085342,0.00020641,0.00002526,0.00004
 231,0.00008820,-0.00003957,0.00007489,0.00002348,0.00002998,-0.0000014
 7,-0.00015418,-0.00007831,0.00028177,0.00011775,-0.00003802,-0.0000748
 3,-0.00003095,0.00001274,0.00000840,-0.00000324,0.00000186,0.00002625,
 -0.00009730,-0.00007696,-0.00007054,0.00000006,-0.00000009,-0.00000383
 ,0.00000250,0.00000140,0.00001616,0.00000102,-0.00000318,-0.00001395,-
 0.00000613,0.00001345,0.00001069,-0.00002161,-0.00000598,0.00001425,-0
 .00033263,0.00204700,0.00141047,0.04934528,0.00014073,0.00003914,0.000
 01203,-0.00042822,0.00004724,-0.00080719,0.00010704,-0.00013425,0.0000
 1871,0.00000642,0.00013067,0.00007945,-0.00003387,-0.00005326,-0.00001
 810,0.00000931,-0.00001270,-0.00000571,-0.00006678,0.00002405,0.000009
 50,-0.00000438,-0.00000990,-0.00000750,0.00002062,0.00000360,0.0000038
 5,-0.00001717,0.00003108,-0.00003929,-0.00001708,0.00000933,0.00001053
 ,0.00005180,-0.00000167,0.00004599,0.00000607,-0.00000338,0.00000396,0
 .00001021,0.00000239,-0.00000381,0.00000035,0.00000114,0.00000008,-0.0
 0000203,-0.00000193,-0.00000216,0.00000026,-0.00000289,0.00001018,0.00
 000735,-0.00000817,0.00000368,0.00000498,0.00000014,0.00000530,0.00000
 138,-0.00000039,-0.00000137,0.00000698,0.00000911,0.00000889,0.0000058
 8,0.00000721,-0.00000019,-0.00000010,0.00000056,0.00000015,-0.00000122
 ,-0.00000100,0.00000066,0.00000347,0.00002109,0.00001046,-0.00000051,-
 0.00000196,-0.00000303,-0.00000254,-0.00000095,0.00000091,0.00000483,-
 0.00000524,-0.00001780,0.00005453,0.00061623,-0.00027525,0.00205542,-0
 .00314409,0.00069621,0.00081585,0.00084160,-0.00050536,-0.00811773,-0.
 08492377,0.09919531,0.00024370,-0.00131396,0.01768379,-0.00089552,0.00
 801041,-0.00780751,-0.00556648,0.00221044,0.00183523,-0.00433705,0.004
 89375,0.00026243,-0.00020792,-0.00064247,-0.00055015,0.00012534,-0.000
 12406,0.00084274,0.00043558,-0.00080348,-0.00035350,0.00020259,-0.0001
 4213,-0.00052600,0.00002623,0.00012477,0.00009160,-0.00000650,0.000066
 23,0.00009994,0.00003065,0.00000058,-0.00000758,-0.00010661,-0.0000885
 5,0.00015262,0.00006685,-0.00002018,-0.00005191,-0.00002137,0.00000621
 ,0.00000088,0.00000356,0.00000336,0.00001902,-0.00007581,-0.00000695,0
 .00001441,0.00000288,-0.00000117,-0.00000062,0.00000088,0.00000086,0.0
 0000965,-0.00000084,-0.00000282,-0.00000820,-0.00000819,0.00000228,0.0
 0000166,-0.00001386,0.00000114,0.00000583,0.00225472,-0.00248257,-0.00
 081355,0.01322532,0.07682926,0.00001467,-0.00000679,0.00002533,-0.0000
 6008,-0.00007671,0.00029305,0.00000965,-0.00000281,-0.00000975,0.00001
 574,-0.00000519,-0.00001508,0.00000044,0.00000035,-0.00000429,-0.00000
 138,-0.00000061,0.00000021,-0.00000601,-0.00000686,0.00000850,0.000000
 90,-0.00000015,-0.00000039,0.00000093,-0.00000030,-0.00000025,-0.00000
 030,-0.00000118,-0.00000020,-0.00000331,0.00000566,0.00000073,0.000013
 67,0.00000254,-0.00000443,0.00000252,0.00000010,0.00000090,-0.00000186
 ,0.00000067,-0.00000115,-0.00000040,-0.00000026,0.,0.00000039,-0.00000
 025,0.00000009,-0.00000077,0.00000105,0.00000052,0.00000053,-0.0000001
 3,-0.00000080,0.00000011,-0.00000047,0.00000003,0.00000039,-0.00000050
 ,-0.00000006,-0.00000042,-0.00000128,-0.00000006,0.00000059,0.00000050
 ,0.00000061,0.00000035,0.00000011,-0.00000043,0.00000020,-0.00000036,0
 .00000017,0.00000105,0.00000012,0.00000033,-0.00000018,0.00000010,-0.0
 0000003,0.00000005,0.00000050,0.00000027,-0.00000291,-0.00000187,-0.00
 000055,0.00017369,0.00012977,0.00043427,0.00018425,-0.00055045,-0.0023
 5559,-0.00299441,-0.00183541,-0.00015550,0.00172699,0.09998819,-0.3106
 1028,-0.00040664,0.00336519,-0.00471606,0.00178955,0.00750490,-0.01139
 263,0.00019786,0.00196015,0.00160440,-0.00379254,0.00045019,-0.0000708
 9,-0.00019537,-0.00061193,0.00059262,-0.00015041,0.00000675,-0.0001757
 1,0.00014000,-0.00026134,-0.00027018,0.00029479,0.00022562,-0.00056197
 ,0.00004582,0.00009280,-0.00002591,-0.00000996,0.00004799,-0.00004155,
 -0.00000177,-0.00000867,-0.00000191,0.00017694,0.00008756,0.00011704,0
 .00003258,-0.00000712,-0.00002326,-0.00000575,-0.00000018,-0.00000070,
 0.00000416,0.00000188,0.00000333,-0.00002919,0.00002513,-0.00003868,0.
 00000091,0.00000003,0.00000048,0.00000068,0.00000059,0.00000243,-0.000
 00056,-0.00000100,-0.00000062,-0.00000098,-0.00000066,0.00000156,0.000
 00441,0.00000340,0.00000105,0.00083144,-0.00118947,0.00040789,0.001998
 94,-0.10932986,0.32698310\\-0.00000174,0.00000049,0.00000039,0.0000067
 2,-0.00000637,-0.00000136,-0.00000231,-0.00000058,0.00000187,-0.000001
 04,-0.00000019,0.00000019,0.00000040,0.00000025,-0.00000042,0.00000141
 ,0.00000113,-0.00000079,0.00000125,-0.00000134,-0.00000060,0.00000078,
 -0.00000197,-0.00000066,0.00000073,-0.00000143,-0.00000049,-0.00000067
 ,-0.00000070,-0.00000040,0.00000112,-0.00000041,0.00000119,-0.00000061
 ,0.00000219,-0.00000123,-0.00000055,-0.00000133,-0.00000007,-0.0000002
 6,-0.00000175,-0.00000040,0.00000092,-0.00000121,-0.00000106,0.0000006
 4,-0.00000139,-0.00000057,-0.00000102,0.00000019,0.00000062,-0.0000011
 8,-0.00000061,0.00000067,-0.00000078,0.,0.00000027,-0.00000052,-0.0000
 0051,0.00000014,0.00000086,0.00000075,-0.00000027,0.00000163,-0.000000
 37,-0.00000080,0.00000164,0.00000104,-0.00000060,0.00000151,0.00000090
 ,-0.00000081,0.00000264,0.00000048,-0.00000141,0.00000172,0.00000085,-
 0.00000106,0.00000045,-0.00000260,-0.00000093,0.00000059,-0.00000146,-
 0.00000056,-0.00000350,0.00000195,-0.00000079,0.00001217,-0.00001541,-
 0.00000202,-0.00001261,0.00001594,0.00000820,-0.00001212,-0.00000657,-
 0.00000265,0.00000418,0.00000721,-0.00000806,0.00000542,0.00000098,0.0
 0001028,0.00000347,0.00000083,0.00000496,0.00000183,0.00000374,-0.0000
 0233,-0.00000720,-0.00000596,0.00000469,-0.00000085,-0.00000152,0.0000
 0085,-0.00001018,0.00000039,-0.00001895,-0.00000155,0.00000052,-0.0000
 0082,0.00000754,-0.00000013,0.00001269,-0.00000035,-0.00000023,-0.0000
 0076,0.00000031,-0.00000310,0.00000474,-0.00000229,0.00000176,-0.00000
 222,0.00000105,0.00000070,0.00000157,0.00000072,0.00000196,0.00000013,
 0.00000054,0.00000155,0.00000015,-0.00000085,-0.00000209,-0.00000129,-
 0.00000061,0.00000139,0.00000044,0.00000007,0.00000214,0.00000064,0.00
 000011,0.00000174,-0.00000035,0.,0.00000155,0.00000004,-0.00000025,0.0
 0000170,0.00000102,-0.00000246,0.00000140,-0.00000269,0.00000307,0.000
 00352,0.00000163\\\@


 GOD GAVE US TWO ENDS... ONE TO SIT ON...    
 AND THE OTHER TO THINK WITH...              
 YOUR SUCCESS DEPENDS UPON WHICH END YOU     
 USE THE MOST...                             
                                             
 IT'S A CASE OF HEADS YOU WIN TAILS YOU LOSE.
          SOURCE UNKNOWN(IT'S JUST AS WELL.) 
 Job cpu time:       3 days  6 hours 31 minutes 29.1 seconds.
 Elapsed time:       0 days  2 hours 10 minutes 59.0 seconds.
 File lengths (MBytes):  RWF=   5557 Int=      0 D2E=      0 Chk=    112 Scr=      1
 Normal termination of Gaussian 16 at Tue Sep  3 15:52:27 2019.
