 Entering Gaussian System, Link 0=g16
 Initial command:
 /nopt/nrel/apps/gaussian/g16B/g16/l1.exe "/dev/shm/Gau-358801.inp" -scrdir="/dev/shm/"
 Default is to use a total of  36 processors:
                               36 via shared-memory
                                1 via Linda
 Entering Link 1 = /nopt/nrel/apps/gaussian/g16B/g16/l1.exe PID=    358802.
  
 Copyright (c) 1988-2017, Gaussian, Inc.  All Rights Reserved.
  
 This is part of the Gaussian(R) 16 program.  It is based on
 the Gaussian(R) 09 system (copyright 2009, Gaussian, Inc.),
 the Gaussian(R) 03 system (copyright 2003, Gaussian, Inc.),
 the Gaussian(R) 98 system (copyright 1998, Gaussian, Inc.),
 the Gaussian(R) 94 system (copyright 1995, Gaussian, Inc.),
 the Gaussian 92(TM) system (copyright 1992, Gaussian, Inc.),
 the Gaussian 90(TM) system (copyright 1990, Gaussian, Inc.),
 the Gaussian 88(TM) system (copyright 1988, Gaussian, Inc.),
 the Gaussian 86(TM) system (copyright 1986, Carnegie Mellon
 University), and the Gaussian 82(TM) system (copyright 1983,
 Carnegie Mellon University). Gaussian is a federally registered
 trademark of Gaussian, Inc.
  
 This software contains proprietary and confidential information,
 including trade secrets, belonging to Gaussian, Inc.
  
 This software is provided under written license and may be
 used, copied, transmitted, or stored only in accord with that
 written license.
  
 The following legend is applicable only to US Government
 contracts under FAR:
  
                    RESTRICTED RIGHTS LEGEND
  
 Use, reproduction and disclosure by the US Government is
 subject to restrictions as set forth in subparagraphs (a)
 and (c) of the Commercial Computer Software - Restricted
 Rights clause in FAR 52.227-19.
  
 Gaussian, Inc.
 340 Quinnipiac St., Bldg. 40, Wallingford CT 06492
  
  
 ---------------------------------------------------------------
 Warning -- This program may not be used in any manner that
 competes with the business of Gaussian, Inc. or will provide
 assistance to any competitor of Gaussian, Inc.  The licensee
 of this program is prohibited from giving any competitor of
 Gaussian, Inc. access to this program.  By using this program,
 the user acknowledges that Gaussian, Inc. is engaged in the
 business of creating and licensing software in the field of
 computational chemistry and represents and warrants to the
 licensee that it is not a competitor of Gaussian, Inc. and that
 it will not use this program in any manner prohibited above.
 ---------------------------------------------------------------
  

 Cite this work as:
 Gaussian 16, Revision B.01,
 M. J. Frisch, G. W. Trucks, H. B. Schlegel, G. E. Scuseria, 
 M. A. Robb, J. R. Cheeseman, G. Scalmani, V. Barone, 
 G. A. Petersson, H. Nakatsuji, X. Li, M. Caricato, A. V. Marenich, 
 J. Bloino, B. G. Janesko, R. Gomperts, B. Mennucci, H. P. Hratchian, 
 J. V. Ortiz, A. F. Izmaylov, J. L. Sonnenberg, D. Williams-Young, 
 F. Ding, F. Lipparini, F. Egidi, J. Goings, B. Peng, A. Petrone, 
 T. Henderson, D. Ranasinghe, V. G. Zakrzewski, J. Gao, N. Rega, 
 G. Zheng, W. Liang, M. Hada, M. Ehara, K. Toyota, R. Fukuda, 
 J. Hasegawa, M. Ishida, T. Nakajima, Y. Honda, O. Kitao, H. Nakai, 
 T. Vreven, K. Throssell, J. A. Montgomery, Jr., J. E. Peralta, 
 F. Ogliaro, M. J. Bearpark, J. J. Heyd, E. N. Brothers, K. N. Kudin, 
 V. N. Staroverov, T. A. Keith, R. Kobayashi, J. Normand, 
 K. Raghavachari, A. P. Rendell, J. C. Burant, S. S. Iyengar, 
 J. Tomasi, M. Cossi, J. M. Millam, M. Klene, C. Adamo, R. Cammi, 
 J. W. Ochterski, R. L. Martin, K. Morokuma, O. Farkas, 
 J. B. Foresman, and D. J. Fox, Gaussian, Inc., Wallingford CT, 2016.
 
 ******************************************
 Gaussian 16:  ES64L-G16RevB.01 20-Dec-2017
                14-Aug-2019 
 ******************************************
 %RWF=/dev/shm/,5GB,/tmp/scratch/1148605/,-1
 %NoSave
 %OldChk=tpaegh1ats.chk
 %Chk=/dev/shm/tpaegh1ats_ts.chk
 Copying data from "tpaegh1ats.chk" to current chk file "/dev/shm/tpaegh1ats_ts.chk"
 IOpt=  2 FromEx=T IUOpen= 4 IOptOp= 5 NList=   0 IFRang= 0 IUIn= 4 IUOut= 2.
 Default route: CacheSize=180224 MaxDisk=256GB
 ----------------------------------------------------------------------
 # m062x/Def2TZVP nosymm scf=(xqc,maxconventionalcycles=400) opt=(TS,Re
 adFC,NoFreeze) freq=NoRaman guess=read geom=allcheck CPHF=Grid=Fine SC
 RF=(Solvent=1,2-EthaneDiol,Read)
 ----------------------------------------------------------------------
 1/4=180224,5=1,10=3,18=20,26=3,29=2007,38=1,40=2/1,3;
 2/4=180224,9=110,12=2,15=1,40=1/2;
 3/4=180224,5=44,7=101,11=2,14=-4,25=1,30=1,70=2203,71=1,72=30,74=-55,116=-2/1,2,3;
 4/4=180224,5=1/1;
 5/4=180224,5=2,8=3,13=1,38=6,53=30,85=400/2,8;
 6/4=180224,7=2,8=2,9=2,10=2,28=1/1;
 7/4=180224,30=1/1,2,3,16;
 1/4=180224,5=1,18=20,26=3/3(2);
 2/4=180224,9=110,15=1/2;
 99/4=180224/99;
 2/4=180224,9=110,15=1/2;
 3/4=180224,5=44,7=101,11=2,14=-2,25=1,30=1,70=2205,71=1,72=30,74=-55/1,2,3;
 4/4=180224,5=5,16=3,69=1/1;
 5/4=180224,5=2,8=3,13=1,38=5,53=30,85=400/2,8;
 7/4=180224,30=1/1,2,3,16;
 1/4=180224,5=1,18=20,26=3/3(-5);
 2/4=180224,9=110,15=1/2;
 6/4=180224,7=2,8=2,9=2,10=2,19=2,28=1/1;
 99/4=180224,9=1/99;
 Structure from the checkpoint file:  "/dev/shm/tpaegh1ats_ts.chk"
 -----------------------
 based on ipaegh1dts.log
 -----------------------
 Charge =  1 Multiplicity = 1
 Redundant internal coordinates found in file.  (old form).
 H,0,3.7198396039,20.1318977156,10.1146001761
 H,0,4.2387208504,16.2502105872,14.0504226011
 C,0,4.1098795037,20.2021787065,11.1291437839
 H,0,4.3761447072,18.0757455022,11.3477206346
 C,0,5.1000810852,20.4089663177,13.7414088773
 C,0,4.9769021342,19.1629209809,13.1216966332
 C,0,4.4813976748,19.0530419428,11.8193591737
 C,0,4.2333159655,21.451384744,11.7445574702
 C,0,4.7252434673,21.5546282446,13.0473574097
 C,0,5.4359288367,17.9376957604,13.8574744401
 H,0,5.4828898426,20.4765555538,14.7593455227
 O,0,4.7567675764,16.7251811034,13.3717562205
 O,0,5.4099179612,18.085126916,15.17750717
 H,0,7.311448421,18.3294424346,11.6412634582
 C,0,7.6778880292,18.159529151,12.6616486467
 O,0,9.8768703725,18.1558984486,11.9249318398
 H,0,7.7985217578,19.1194159262,13.1794610584
 H,0,5.9260674882,16.4712298697,13.0976678622
 O,0,6.7054758584,17.3880090405,13.4014581391
 C,0,8.9747068943,17.3778358712,12.6616764125
 H,0,10.7227599526,17.6954244464,11.8867005844
 H,0,8.8006012221,16.3878853081,12.2055217401
 H,0,9.299211359,17.2216695192,13.7043966667
 H,0,5.9651514519,17.4224650384,15.6231389215
 C,0,3.844473443,22.7148882272,11.0404224087
 O,0,3.3928054161,22.4998788653,9.8070711282
 H,0,3.1607449232,23.3557561202,9.4106645964
 O,0,3.9308230005,23.8085154249,11.5347603646
 H,0,4.8079212007,22.5397822334,13.5065860595
 Recover connectivity data from disk.
 Any frozen variables have been unfrozen.

 GradGradGradGradGradGradGradGradGradGradGradGradGradGradGradGradGradGrad
 Berny optimization.
 Initialization pass.
 Force constant matrix read from checkpoint file:
 "/dev/shm/tpaegh1ats_ts.chk"
                           ----------------------------
                           !    Initial Parameters    !
                           ! (Angstroms and Degrees)  !
 --------------------------                            --------------------------
 ! Name  Definition              Value          Derivative Info.                !
 --------------------------------------------------------------------------------
 ! R1    R(1,3)                  1.0892         D2E/DX2 =    0.3729             !
 ! R2    R(2,12)                 0.977          D2E/DX2 =    0.5008             !
 ! R3    R(3,7)                  1.391          D2E/DX2 =    0.4241             !
 ! R4    R(3,8)                  1.398          D2E/DX2 =    0.411              !
 ! R5    R(4,7)                  1.0902         D2E/DX2 =    0.3702             !
 ! R6    R(5,6)                  1.3971         D2E/DX2 =    0.4128             !
 ! R7    R(5,9)                  1.391          D2E/DX2 =    0.4242             !
 ! R8    R(5,11)                 1.0896         D2E/DX2 =    0.3714             !
 ! R9    R(6,7)                  1.3977         D2E/DX2 =    0.4112             !
 ! R10   R(6,10)                 1.5011         D2E/DX2 =    0.3383             !
 ! R11   R(8,9)                  1.3964         D2E/DX2 =    0.4143             !
 ! R12   R(8,25)                 1.4978         D2E/DX2 =    0.3321             !
 ! R13   R(9,29)                 1.0901         D2E/DX2 =    0.3708             !
 ! R14   R(10,12)                1.4722         D2E/DX2 =    0.165              !
 ! R15   R(10,13)                1.3285         D2E/DX2 =    0.5012             !
 ! R16   R(10,19)                1.4567         D2E/DX2 =    0.1905             !
 ! R17   R(12,18)                1.2275         D2E/DX2 =    0.0484             !
 ! R18   R(13,24)                0.9726         D2E/DX2 =    0.5107             !
 ! R19   R(14,15)                1.0974         D2E/DX2 =    0.351              !
 ! R20   R(15,17)                1.0973         D2E/DX2 =    0.3517             !
 ! R21   R(15,19)                1.445          D2E/DX2 =    0.3151             !
 ! R22   R(15,20)                1.5142         D2E/DX2 =    0.3132             !
 ! R23   R(16,20)                1.4007         D2E/DX2 =    0.4043             !
 ! R24   R(16,21)                0.9639         D2E/DX2 =    0.5424             !
 ! R25   R(18,19)                1.2411         D2E/DX2 =    0.0429             !
 ! R26   R(20,22)                1.1038         D2E/DX2 =    0.3325             !
 ! R27   R(20,23)                1.1032         D2E/DX2 =    0.3343             !
 ! R28   R(25,26)                1.3309         D2E/DX2 =    0.4678             !
 ! R29   R(25,28)                1.2033         D2E/DX2 =    0.9176             !
 ! R30   R(26,27)                0.9713         D2E/DX2 =    0.5195             !
 ! A1    A(1,3,7)              120.2993         D2E/DX2 =    0.0797             !
 ! A2    A(1,3,8)              119.9537         D2E/DX2 =    0.0793             !
 ! A3    A(7,3,8)              119.7465         D2E/DX2 =    0.082              !
 ! A4    A(6,5,9)              119.3086         D2E/DX2 =    0.0818             !
 ! A5    A(6,5,11)             120.0454         D2E/DX2 =    0.0801             !
 ! A6    A(9,5,11)             120.6456         D2E/DX2 =    0.0802             !
 ! A7    A(5,6,7)              120.9753         D2E/DX2 =    0.0893             !
 ! A8    A(5,6,10)             118.9207         D2E/DX2 =    0.1506             !
 ! A9    A(7,6,10)             120.0628         D2E/DX2 =    0.1492             !
 ! A10   A(3,7,4)              120.006          D2E/DX2 =    0.0825             !
 ! A11   A(3,7,6)              119.4764         D2E/DX2 =    0.0823             !
 ! A12   A(4,7,6)              120.515          D2E/DX2 =    0.0818             !
 ! A13   A(3,8,9)              120.5216         D2E/DX2 =    0.0879             !
 ! A14   A(3,8,25)             121.5944         D2E/DX2 =    0.1406             !
 ! A15   A(9,8,25)             117.8839         D2E/DX2 =    0.14               !
 ! A16   A(5,9,8)              119.9712         D2E/DX2 =    0.0822             !
 ! A17   A(5,9,29)             120.9125         D2E/DX2 =    0.0779             !
 ! A18   A(8,9,29)             119.1162         D2E/DX2 =    0.0783             !
 ! A19   A(6,10,12)            111.6824         D2E/DX2 =    0.0408             !
 ! A20   A(6,10,13)            112.984          D2E/DX2 =    0.0605             !
 ! A21   A(6,10,19)            114.9028         D2E/DX2 =    0.0355             !
 ! A22   A(12,10,13)           114.217          D2E/DX2 =    0.0349             !
 ! A23   A(12,10,19)            89.3114         D2E/DX2 =    0.0396             !
 ! A24   A(13,10,19)           111.7159         D2E/DX2 =    0.0349             !
 ! A25   A(2,12,10)            114.5712         D2E/DX2 =    0.0366             !
 ! A26   A(2,12,18)            124.0281         D2E/DX2 =    0.0105             !
 ! A27   A(10,12,18)            78.733          D2E/DX2 =    0.0411             !
 ! A28   A(10,13,24)           111.6213         D2E/DX2 =    0.1732             !
 ! A29   A(14,15,17)           109.8793         D2E/DX2 =    0.0222             !
 ! A30   A(14,15,19)           109.5113         D2E/DX2 =    0.058              !
 ! A31   A(14,15,20)           111.4643         D2E/DX2 =    0.05               !
 ! A32   A(17,15,19)           107.4236         D2E/DX2 =    0.0546             !
 ! A33   A(17,15,20)           110.9426         D2E/DX2 =    0.0485             !
 ! A34   A(19,15,20)           107.499          D2E/DX2 =    0.1505             !
 ! A35   A(20,16,21)           108.7069         D2E/DX2 =    0.1754             !
 ! A36   A(12,18,19)           113.0005         D2E/DX2 =    0.0538             !
 ! A37   A(10,19,15)           123.0443         D2E/DX2 =    0.0502             !
 ! A38   A(10,19,18)            78.933          D2E/DX2 =    0.0371             !
 ! A39   A(15,19,18)           133.764          D2E/DX2 =    0.0149             !
 ! A40   A(15,20,16)           105.3572         D2E/DX2 =    0.1571             !
 ! A41   A(15,20,22)           109.1412         D2E/DX2 =    0.0729             !
 ! A42   A(15,20,23)           108.9673         D2E/DX2 =    0.0722             !
 ! A43   A(16,20,22)           112.4824         D2E/DX2 =    0.0569             !
 ! A44   A(16,20,23)           112.7263         D2E/DX2 =    0.0567             !
 ! A45   A(22,20,23)           108.0624         D2E/DX2 =    0.0278             !
 ! A46   A(8,25,26)            112.7969         D2E/DX2 =    0.1988             !
 ! A47   A(8,25,28)            123.7064         D2E/DX2 =    0.1795             !
 ! A48   A(26,25,28)           123.4968         D2E/DX2 =    0.2114             !
 ! A49   A(25,26,27)           108.4761         D2E/DX2 =    0.1672             !
 ! D1    D(1,3,7,4)             -0.4348         D2E/DX2 =    0.0099             !
 ! D2    D(1,3,7,6)           -179.8499         D2E/DX2 =    0.0087             !
 ! D3    D(8,3,7,4)            179.2962         D2E/DX2 =    0.0086             !
 ! D4    D(8,3,7,6)             -0.1189         D2E/DX2 =    0.009              !
 ! D5    D(1,3,8,9)            179.6591         D2E/DX2 =    0.0076             !
 ! D6    D(1,3,8,25)            -0.2056         D2E/DX2 =    0.008              !
 ! D7    D(7,3,8,9)             -0.0728         D2E/DX2 =    0.008              !
 ! D8    D(7,3,8,25)          -179.9375         D2E/DX2 =    0.0074             !
 ! D9    D(9,5,6,7)             -0.1238         D2E/DX2 =    0.0077             !
 ! D10   D(9,5,6,10)           177.541          D2E/DX2 =    0.0072             !
 ! D11   D(11,5,6,7)           179.6495         D2E/DX2 =    0.0073             !
 ! D12   D(11,5,6,10)           -2.6858         D2E/DX2 =    0.0075             !
 ! D13   D(6,5,9,8)             -0.0699         D2E/DX2 =    0.009              !
 ! D14   D(6,5,9,29)           179.8382         D2E/DX2 =    0.0088             !
 ! D15   D(11,5,9,8)          -179.8418         D2E/DX2 =    0.0086             !
 ! D16   D(11,5,9,29)            0.0663         D2E/DX2 =    0.0099             !
 ! D17   D(5,6,7,3)              0.2188         D2E/DX2 =    0.0077             !
 ! D18   D(5,6,7,4)           -179.1934         D2E/DX2 =    0.0075             !
 ! D19   D(10,6,7,3)          -177.4195         D2E/DX2 =    0.0073             !
 ! D20   D(10,6,7,4)             3.1684         D2E/DX2 =    0.0077             !
 ! D21   D(5,6,10,12)          155.9786         D2E/DX2 =    0.0124             !
 ! D22   D(5,6,10,13)           25.578          D2E/DX2 =    0.0114             !
 ! D23   D(5,6,10,19)         -104.2149         D2E/DX2 =    0.0125             !
 ! D24   D(7,6,10,12)          -26.3348         D2E/DX2 =    0.0126             !
 ! D25   D(7,6,10,13)         -156.7354         D2E/DX2 =    0.0115             !
 ! D26   D(7,6,10,19)           73.4717         D2E/DX2 =    0.0126             !
 ! D27   D(3,8,9,5)              0.1684         D2E/DX2 =    0.0079             !
 ! D28   D(3,8,9,29)          -179.7413         D2E/DX2 =    0.0075             !
 ! D29   D(25,8,9,5)          -179.962          D2E/DX2 =    0.0073             !
 ! D30   D(25,8,9,29)            0.1283         D2E/DX2 =    0.0081             !
 ! D31   D(3,8,25,26)           -0.2667         D2E/DX2 =    0.0142             !
 ! D32   D(3,8,25,28)          179.7602         D2E/DX2 =    0.0134             !
 ! D33   D(9,8,25,26)          179.8652         D2E/DX2 =    0.0137             !
 ! D34   D(9,8,25,28)           -0.1079         D2E/DX2 =    0.0149             !
 ! D35   D(6,10,12,2)         -119.919          D2E/DX2 =    0.0172             !
 ! D36   D(6,10,12,18)         117.6473         D2E/DX2 =    0.0267             !
 ! D37   D(13,10,12,2)           9.8413         D2E/DX2 =    0.0167             !
 ! D38   D(13,10,12,18)       -112.5923         D2E/DX2 =    0.0275             !
 ! D39   D(19,10,12,2)         123.4402         D2E/DX2 =    0.0117             !
 ! D40   D(19,10,12,18)          1.0066         D2E/DX2 =    0.005              !
 ! D41   D(6,10,13,24)        -161.4509         D2E/DX2 =    0.014              !
 ! D42   D(12,10,13,24)         69.4389         D2E/DX2 =    0.0164             !
 ! D43   D(19,10,13,24)        -30.0553         D2E/DX2 =    0.0147             !
 ! D44   D(6,10,19,15)          20.8408         D2E/DX2 =    0.0188             !
 ! D45   D(6,10,19,18)        -114.6846         D2E/DX2 =    0.028              !
 ! D46   D(12,10,19,15)        134.5304         D2E/DX2 =    0.0132             !
 ! D47   D(12,10,19,18)         -0.9949         D2E/DX2 =    0.0049             !
 ! D48   D(13,10,19,15)       -109.5713         D2E/DX2 =    0.0181             !
 ! D49   D(13,10,19,18)        114.9033         D2E/DX2 =    0.0268             !
 ! D50   D(2,12,18,19)        -113.4364         D2E/DX2 =    0.029              !
 ! D51   D(10,12,18,19)         -1.2834         D2E/DX2 =    0.0082             !
 ! D52   D(14,15,19,10)        -72.2798         D2E/DX2 =    0.015              !
 ! D53   D(14,15,19,18)         35.5353         D2E/DX2 =    0.0143             !
 ! D54   D(17,15,19,10)         47.0153         D2E/DX2 =    0.0148             !
 ! D55   D(17,15,19,18)        154.8304         D2E/DX2 =    0.0151             !
 ! D56   D(20,15,19,10)        166.4706         D2E/DX2 =    0.0123             !
 ! D57   D(20,15,19,18)        -85.7143         D2E/DX2 =    0.0123             !
 ! D58   D(14,15,20,16)         59.3942         D2E/DX2 =    0.0184             !
 ! D59   D(14,15,20,22)        -61.6093         D2E/DX2 =    0.0184             !
 ! D60   D(14,15,20,23)       -179.4057         D2E/DX2 =    0.0162             !
 ! D61   D(17,15,20,16)        -63.4055         D2E/DX2 =    0.0182             !
 ! D62   D(17,15,20,22)        175.5909         D2E/DX2 =    0.0162             !
 ! D63   D(17,15,20,23)         57.7945         D2E/DX2 =    0.0184             !
 ! D64   D(19,15,20,16)        179.4115         D2E/DX2 =    0.0196             !
 ! D65   D(19,15,20,22)         58.4079         D2E/DX2 =    0.0179             !
 ! D66   D(19,15,20,23)        -59.3884         D2E/DX2 =    0.0179             !
 ! D67   D(21,16,20,15)       -179.4366         D2E/DX2 =    0.0179             !
 ! D68   D(21,16,20,22)        -60.642          D2E/DX2 =    0.0278             !
 ! D69   D(21,16,20,23)         61.8473         D2E/DX2 =    0.0276             !
 ! D70   D(12,18,19,10)          1.2962         D2E/DX2 =    0.0083             !
 ! D71   D(12,18,19,15)       -124.2964         D2E/DX2 =    0.0292             !
 ! D72   D(8,25,26,27)        -179.9708         D2E/DX2 =    0.0216             !
 ! D73   D(28,25,26,27)          0.0024         D2E/DX2 =    0.0199             !
 --------------------------------------------------------------------------------
 Trust Radius=3.00D-01 FncErr=1.00D-07 GrdErr=1.00D-06 EigMax=2.50D+02 EigMin=1.00D-04
 Number of steps in this run=    162 maximum allowed number of steps=    174.
 Search for a saddle point of order  1.
 GradGradGradGradGradGradGradGradGradGradGradGradGradGradGradGradGradGrad

                          Input orientation:                          
 ---------------------------------------------------------------------
 Center     Atomic      Atomic             Coordinates (Angstroms)
 Number     Number       Type             X           Y           Z
 ---------------------------------------------------------------------
      1          1           0        3.719840   20.131898   10.114600
      2          1           0        4.238721   16.250211   14.050423
      3          6           0        4.109880   20.202179   11.129144
      4          1           0        4.376145   18.075746   11.347721
      5          6           0        5.100081   20.408966   13.741409
      6          6           0        4.976902   19.162921   13.121697
      7          6           0        4.481398   19.053042   11.819359
      8          6           0        4.233316   21.451385   11.744557
      9          6           0        4.725243   21.554628   13.047357
     10          6           0        5.435929   17.937696   13.857474
     11          1           0        5.482890   20.476556   14.759346
     12          8           0        4.756768   16.725181   13.371756
     13          8           0        5.409918   18.085127   15.177507
     14          1           0        7.311448   18.329442   11.641263
     15          6           0        7.677888   18.159529   12.661649
     16          8           0        9.876870   18.155898   11.924932
     17          1           0        7.798522   19.119416   13.179461
     18          1           0        5.926067   16.471230   13.097668
     19          8           0        6.705476   17.388009   13.401458
     20          6           0        8.974707   17.377836   12.661676
     21          1           0       10.722760   17.695424   11.886701
     22          1           0        8.800601   16.387885   12.205522
     23          1           0        9.299211   17.221670   13.704397
     24          1           0        5.965151   17.422465   15.623139
     25          6           0        3.844473   22.714888   11.040422
     26          8           0        3.392805   22.499879    9.807071
     27          1           0        3.160745   23.355756    9.410665
     28          8           0        3.930823   23.808515   11.534760
     29          1           0        4.807921   22.539782   13.506586
 ---------------------------------------------------------------------
                    Distance matrix (angstroms):
                    1          2          3          4          5
     1  H    0.000000
     2  H    5.552246   0.000000
     3  C    1.089206   4.916149   0.000000
     4  H    2.485776   3.264362   2.154157   0.000000
     5  C    3.890447   4.258248   2.801283   3.420197   0.000000
     6  C    3.400258   3.145048   2.408745   2.165606   1.397085
     7  C    2.156410   3.590599   1.391021   1.090243   2.432196
     8  C    2.159043   5.689399   1.398029   3.401885   2.413573
     9  C    3.411168   5.420304   2.426383   3.887578   1.390954
    10  C    4.665682   2.078014   3.785509   2.727831   2.496686
    11  H    4.980040   4.462345   3.890862   4.316012   1.089636
    12  O    4.825972   0.977015   4.187754   2.462848   3.718169
    13  O    5.716525   2.451314   4.749869   3.966868   2.749292
    14  H    4.298744   4.423676   3.744256   2.960834   3.691230
    15  C    5.103317   4.171578   4.387673   3.554565   3.587609
    16  O    6.714976   6.319659   6.170796   5.531508   5.585125
    17  H    5.201359   4.654363   4.356863   4.019600   3.043075
    18  H    5.212161   1.950315   4.592777   2.835321   4.074607
    19  O    5.219807   2.792959   4.451975   3.180661   3.437883
    20  C    6.456476   5.062580   5.830276   4.833253   5.036497
    21  H    7.623492   6.986637   7.112517   6.380805   6.512893
    22  H    6.648588   4.922740   6.140871   4.812537   5.676433
    23  H    7.244685   5.164497   6.514946   5.524487   5.271900
    24  H    6.536547   2.613079   5.600432   4.607702   3.634342
    25  C    2.746729   7.141960   2.528245   4.679610   3.766849
    26  O    2.410158   7.601313   2.746179   4.786806   4.771344
    27  H    3.346846   8.554424   3.714711   5.753946   5.585691
    28  O    3.947010   7.971909   3.633490   5.753081   4.218222
    29  H    4.299697   6.338648   3.406447   4.977425   2.163533
                    6          7          8          9         10
     6  C    0.000000
     7  C    1.397741   0.000000
     8  C    2.772454   2.412299   0.000000
     9  C    2.406059   2.797387   1.396402   0.000000
    10  C    1.501083   2.511780   4.272787   3.774065   0.000000
    11  H    2.159526   3.416562   3.405976   2.160364   2.694696
    12  O    2.460399   2.811530   5.025811   4.840433   1.472200
    13  O    2.361250   3.616098   4.949871   4.128408   1.328495
    14  H    2.887295   2.926517   4.385441   4.366621   2.929613
    15  C    2.917836   3.424232   4.852056   4.515925   2.550606
    16  O    5.143542   5.470570   6.537773   6.272995   4.848123
    17  H    2.822546   3.585749   4.495300   3.923360   2.727272
    18  H    2.854241   3.222871   5.431230   5.223548   1.722807
    19  O    2.493300   3.197170   5.036657   4.626816   1.456659
    20  C    4.402339   4.868844   6.317887   5.970953   3.777079
    21  H    6.057528   6.387665   7.499355   7.225703   5.647409
    22  H    4.812575   5.089961   6.834589   6.634189   4.056092
    23  H    4.773924   5.488043   6.884385   6.334620   3.932058
    24  H    3.203598   4.396481   5.854472   5.024619   1.913925
    25  C    4.269727   3.797569   1.497814   2.479868   5.769756
    26  O    4.963002   4.137030   2.357891   3.628821   6.433789
    27  H    5.886430   5.104829   3.197514   4.349397   7.369258
    28  O    5.019382   4.795692   2.385704   2.828261   6.490521
    29  H    3.402923   3.887250   2.149308   1.090071   4.657973
                   11         12         13         14         15
    11  H    0.000000
    12  O    4.065153   0.000000
    13  O    2.428809   2.353039   0.000000
    14  H    4.204302   3.477737   4.022503   0.000000
    15  C    3.819288   3.330849   3.388033   1.097422   0.000000
    16  O    5.720701   5.509601   5.526112   2.586885   2.319114
    17  H    3.114485   3.875772   3.281367   1.796483   1.097299
    18  H    4.358923   1.227550   2.682686   2.737398   2.471708
    19  O    3.588550   2.058564   2.306251   2.086093   1.445042
    20  C    5.118112   4.326798   4.420111   2.170997   1.514194
    21  H    6.591132   6.224133   6.261595   3.478400   3.176033
    22  H    5.852047   4.222139   4.817682   2.511097   2.146453
    23  H    5.125574   4.581588   4.247613   3.071625   2.143734
    24  H    3.210325   2.648607   0.972622   4.300053   3.499594
    25  C    4.639497   6.491840   6.403185   5.622549   6.170473
    26  O    5.743458   6.922031   7.238809   6.009373   6.734180
    27  H    6.503118   7.886828   8.129870   6.889684   7.614083
    28  O    4.889664   7.364127   6.943666   6.438960   6.871784
    29  H    2.506371   5.816389   4.795658   5.241568   5.304455
                   16         17         18         19         20
    16  O    0.000000
    17  H    2.611847   0.000000
    18  H    4.452220   3.244328   0.000000
    19  O    3.581554   2.059564   1.241068   0.000000
    20  C    1.400740   2.164397   3.210331   2.386795   0.000000
    21  H    0.963861   3.500021   5.096406   4.304366   1.938334
    22  H    2.088769   3.068221   3.010949   2.611525   1.103808
    23  H    2.091164   2.475695   3.508472   2.616659   1.103158
    24  H    5.432882   3.494632   2.698959   2.342036   4.222520
    25  C    7.612920   5.756510   6.895547   6.491184   7.578383
    26  O    8.086940   6.496990   7.320523   7.072808   8.095784
    27  H    8.858126   7.325256   8.284787   8.006595   8.950238
    28  O    8.213391   6.296967   7.762695   7.239210   8.250112
    29  H    6.885805   4.555174   6.184237   5.491132   6.687426
                   21         22         23         24         25
    21  H    0.000000
    22  H    2.346487   0.000000
    23  H    2.356895   1.786179   0.000000
    24  H    6.055602   4.559631   3.851992   0.000000
    25  C    8.556987   8.121061   8.186964   7.314937   0.000000
    26  O    9.007545   8.506073   8.828039   8.137797   1.330935
    27  H    9.764947   9.389911   9.682145   9.036785   1.879975
    28  O    9.144624   8.901147   8.770032   7.850794   1.203265
    29  H    7.815187   7.448496   6.963702   5.657377   2.653461
                   26         27         28         29
    26  O    0.000000
    27  H    0.971348   0.000000
    28  O    2.233137   2.304299   0.000000
    29  H    3.961131   4.489496   2.503414   0.000000
 Symmetry turned off by external request.
 Stoichiometry    C10H13O6(1+)
 Framework group  C1[X(C10H13O6)]
 Deg. of freedom    81
 Full point group                 C1      NOp   1
 Rotational constants (GHZ):           0.7920916           0.2653234           0.2320595
 Standard basis: def2TZVP (5D, 7F)
   574 basis functions,   920 primitive gaussians,   654 cartesian basis functions
    60 alpha electrons       60 beta electrons
       nuclear repulsion energy      1133.4421705800 Hartrees.
 NAtoms=   29 NActive=   29 NUniq=   29 SFac= 1.00D+00 NAtFMM=   60 NAOKFM=F Big=F
 Integral buffers will be    131072 words long.
 Raffenetti 2 integral format.
 Two-electron integral symmetry is turned off.
 Using the following non-standard input for PCM:
 PDENS=7.0
 --- end of non-standard input.
 ------------------------------------------------------------------------------
 Polarizable Continuum Model (PCM)
 =================================
 Model                : PCM.
 Atomic radii         : UFF (Universal Force Field).
 Polarization charges : Total charges.
 Charge compensation  : None.
 Solution method      : On-the-fly selection.
 Cavity type          : Scaled VdW (van der Waals Surface) (Alpha=1.100).
 Cavity algorithm     : GePol (No added spheres)
                        Default sphere list used, NSphG=   29.
                        Lebedev-Laikov grids with approx.  7.0 points / Ang**2.
                        Smoothing algorithm: York/Karplus (Gamma=1.0000).
                        Polarization charges: spherical gaussians, with
                                              point-specific exponents (IZeta= 3).
                        Self-potential: point-specific (ISelfS= 7).
                        Self-field    : sphere-specific E.n sum rule (ISelfD= 2).
 1st derivatives      : Analytical E(r).r(x)/FMM algorithm (CHGder, D1EAlg=3).
                        Cavity 1st derivative terms included.
 Solvent              : 1,2-EthaneDiol, Eps=  40.245000 Eps(inf)=   2.050051
 ------------------------------------------------------------------------------
 One-electron integrals computed using PRISM.
   1 Symmetry operations used in ECPInt.
 ECPInt:  NShTT=   26106 NPrTT=   79792 LenC2=   22981 LenP2D=   51240.
 LDataN:  DoStor=T MaxTD1= 6 Len=  172
 NBasis=   574 RedAO= T EigKep=  6.94D-06  NBF=   574
 NBsUse=   574 1.00D-06 EigRej= -1.00D+00 NBFU=   574
 Initial guess from the checkpoint file:  "/dev/shm/tpaegh1ats_ts.chk"
 B after Tr=     0.000000    0.000000    0.000000
         Rot=    1.000000    0.000000    0.000000    0.000000 Ang=   0.00 deg.
 Requested convergence on RMS density matrix=1.00D-08 within 400 cycles.
 Requested convergence on MAX density matrix=1.00D-06.
 Requested convergence on             energy=1.00D-06.
 No special actions if energy rises.
 Inv3:  Mode=1 IEnd=    33949488.
 Iteration    1 A*A^-1 deviation from unit magnitude is 3.22D-15 for    244.
 Iteration    1 A*A^-1 deviation from orthogonality  is 2.44D-15 for   3038   1363.
 Iteration    1 A^-1*A deviation from unit magnitude is 3.11D-15 for   1934.
 Iteration    1 A^-1*A deviation from orthogonality  is 4.44D-15 for   3170   3074.
 Error on total polarization charges =  0.01069
 SCF Done:  E(RM062X) =  -840.030029842     A.U. after   12 cycles
            NFock= 12  Conv=0.67D-08     -V/T= 2.0048
 QCSCF skips out because SCF is already converged.

 **********************************************************************

            Population analysis using the SCF Density.

 **********************************************************************

 Alpha  occ. eigenvalues --  -19.74626 -19.74464 -19.70954 -19.68922 -19.64623
 Alpha  occ. eigenvalues --  -19.63618 -10.78584 -10.69809 -10.63205 -10.60798
 Alpha  occ. eigenvalues --  -10.59920 -10.58690 -10.58161 -10.58052 -10.57810
 Alpha  occ. eigenvalues --  -10.57652  -1.34257  -1.25910  -1.23512  -1.21543
 Alpha  occ. eigenvalues --   -1.17191  -1.16221  -1.00535  -0.92662  -0.90471
 Alpha  occ. eigenvalues --   -0.87886  -0.82957  -0.78727  -0.75511  -0.74063
 Alpha  occ. eigenvalues --   -0.71279  -0.69299  -0.68477  -0.65779  -0.65040
 Alpha  occ. eigenvalues --   -0.61983  -0.61002  -0.60008  -0.59782  -0.56331
 Alpha  occ. eigenvalues --   -0.56107  -0.55341  -0.54975  -0.54092  -0.52372
 Alpha  occ. eigenvalues --   -0.52132  -0.50706  -0.49994  -0.48836  -0.47204
 Alpha  occ. eigenvalues --   -0.46656  -0.45898  -0.43736  -0.43428  -0.42717
 Alpha  occ. eigenvalues --   -0.41976  -0.38158  -0.37371  -0.34937  -0.34137
 Alpha virt. eigenvalues --   -0.05336  -0.01115   0.02780   0.05260   0.06167
 Alpha virt. eigenvalues --    0.07020   0.07255   0.07644   0.08851   0.09868
 Alpha virt. eigenvalues --    0.10773   0.11456   0.12665   0.12913   0.13576
 Alpha virt. eigenvalues --    0.14178   0.14855   0.15151   0.16259   0.16471
 Alpha virt. eigenvalues --    0.17290   0.18261   0.20483   0.21122   0.21431
 Alpha virt. eigenvalues --    0.21966   0.22696   0.23734   0.24079   0.24620
 Alpha virt. eigenvalues --    0.24951   0.25380   0.26574   0.27249   0.27414
 Alpha virt. eigenvalues --    0.28328   0.28746   0.29155   0.29876   0.30786
 Alpha virt. eigenvalues --    0.31403   0.32707   0.33368   0.34867   0.35568
 Alpha virt. eigenvalues --    0.35972   0.37230   0.37713   0.38461   0.38733
 Alpha virt. eigenvalues --    0.39295   0.39600   0.40380   0.41378   0.41605
 Alpha virt. eigenvalues --    0.41958   0.42750   0.42984   0.43520   0.44596
 Alpha virt. eigenvalues --    0.44876   0.45305   0.46133   0.46589   0.47705
 Alpha virt. eigenvalues --    0.48097   0.49099   0.49967   0.50314   0.50780
 Alpha virt. eigenvalues --    0.51083   0.51944   0.52151   0.52536   0.52837
 Alpha virt. eigenvalues --    0.53639   0.54567   0.54817   0.56231   0.56413
 Alpha virt. eigenvalues --    0.57906   0.58453   0.59628   0.61478   0.61546
 Alpha virt. eigenvalues --    0.62774   0.63016   0.64182   0.64657   0.66855
 Alpha virt. eigenvalues --    0.67292   0.67980   0.68680   0.69914   0.70235
 Alpha virt. eigenvalues --    0.70847   0.71861   0.72709   0.73979   0.74762
 Alpha virt. eigenvalues --    0.76027   0.76588   0.77120   0.78052   0.79080
 Alpha virt. eigenvalues --    0.79492   0.79998   0.81593   0.82183   0.83185
 Alpha virt. eigenvalues --    0.85406   0.85785   0.86874   0.88015   0.88690
 Alpha virt. eigenvalues --    0.89710   0.90133   0.92066   0.93165   0.93752
 Alpha virt. eigenvalues --    0.95084   0.96207   0.97299   0.97763   0.99287
 Alpha virt. eigenvalues --    1.00378   1.01312   1.02674   1.03500   1.04743
 Alpha virt. eigenvalues --    1.06847   1.07899   1.08174   1.11140   1.11992
 Alpha virt. eigenvalues --    1.12868   1.14653   1.17750   1.18458   1.20223
 Alpha virt. eigenvalues --    1.20924   1.21878   1.23332   1.24506   1.25671
 Alpha virt. eigenvalues --    1.27584   1.28832   1.30102   1.31109   1.32218
 Alpha virt. eigenvalues --    1.32962   1.35198   1.37317   1.38058   1.38776
 Alpha virt. eigenvalues --    1.39364   1.39907   1.41128   1.44170   1.44853
 Alpha virt. eigenvalues --    1.46198   1.46684   1.48767   1.50290   1.51641
 Alpha virt. eigenvalues --    1.52222   1.53191   1.53633   1.54419   1.55893
 Alpha virt. eigenvalues --    1.57426   1.58557   1.58836   1.60003   1.60401
 Alpha virt. eigenvalues --    1.61341   1.62176   1.62708   1.63789   1.64842
 Alpha virt. eigenvalues --    1.65841   1.66483   1.67309   1.68061   1.69176
 Alpha virt. eigenvalues --    1.70963   1.72083   1.73248   1.75507   1.75866
 Alpha virt. eigenvalues --    1.78010   1.79372   1.79454   1.80269   1.80393
 Alpha virt. eigenvalues --    1.81881   1.84499   1.85393   1.85544   1.86187
 Alpha virt. eigenvalues --    1.86329   1.88512   1.88951   1.89339   1.90803
 Alpha virt. eigenvalues --    1.91589   1.92754   1.95015   1.96735   1.96954
 Alpha virt. eigenvalues --    1.97428   2.00721   2.01260   2.01670   2.03220
 Alpha virt. eigenvalues --    2.04303   2.05194   2.07249   2.07764   2.09326
 Alpha virt. eigenvalues --    2.09688   2.13289   2.13518   2.14770   2.15345
 Alpha virt. eigenvalues --    2.17253   2.17730   2.19564   2.20276   2.21829
 Alpha virt. eigenvalues --    2.22533   2.23077   2.24271   2.24777   2.25788
 Alpha virt. eigenvalues --    2.27328   2.28723   2.30700   2.30862   2.31559
 Alpha virt. eigenvalues --    2.32845   2.33854   2.35309   2.36417   2.37282
 Alpha virt. eigenvalues --    2.38125   2.40285   2.40681   2.41852   2.43748
 Alpha virt. eigenvalues --    2.44294   2.48261   2.48534   2.48827   2.51718
 Alpha virt. eigenvalues --    2.52085   2.54168   2.54689   2.56200   2.58271
 Alpha virt. eigenvalues --    2.59498   2.60415   2.60987   2.61913   2.62388
 Alpha virt. eigenvalues --    2.62982   2.64216   2.66610   2.66793   2.67239
 Alpha virt. eigenvalues --    2.68593   2.70022   2.70260   2.71466   2.72660
 Alpha virt. eigenvalues --    2.72947   2.73588   2.74427   2.75547   2.78648
 Alpha virt. eigenvalues --    2.80579   2.81002   2.82296   2.82661   2.83478
 Alpha virt. eigenvalues --    2.84907   2.85494   2.85877   2.86601   2.87381
 Alpha virt. eigenvalues --    2.88149   2.88846   2.90036   2.90746   2.91894
 Alpha virt. eigenvalues --    2.93331   2.94643   2.96219   2.97835   3.00043
 Alpha virt. eigenvalues --    3.00541   3.01586   3.03541   3.04659   3.05912
 Alpha virt. eigenvalues --    3.06295   3.06877   3.07669   3.09322   3.10482
 Alpha virt. eigenvalues --    3.11747   3.12570   3.12818   3.14063   3.14657
 Alpha virt. eigenvalues --    3.15891   3.17301   3.17967   3.19431   3.20395
 Alpha virt. eigenvalues --    3.21438   3.22083   3.22828   3.24727   3.25077
 Alpha virt. eigenvalues --    3.26642   3.26970   3.27808   3.28943   3.29506
 Alpha virt. eigenvalues --    3.31390   3.32818   3.33463   3.33730   3.34068
 Alpha virt. eigenvalues --    3.35376   3.35813   3.36518   3.36925   3.38088
 Alpha virt. eigenvalues --    3.38315   3.40024   3.40547   3.41251   3.43904
 Alpha virt. eigenvalues --    3.44719   3.45270   3.47681   3.48216   3.49055
 Alpha virt. eigenvalues --    3.49802   3.50711   3.52794   3.54149   3.54490
 Alpha virt. eigenvalues --    3.55647   3.58863   3.60873   3.60995   3.63103
 Alpha virt. eigenvalues --    3.64914   3.67387   3.69746   3.70696   3.71983
 Alpha virt. eigenvalues --    3.74180   3.77576   3.78317   3.80456   3.81395
 Alpha virt. eigenvalues --    3.83452   3.84199   3.85261   3.86553   3.88568
 Alpha virt. eigenvalues --    3.90957   3.93027   3.95578   3.96930   3.99817
 Alpha virt. eigenvalues --    4.01599   4.03706   4.04224   4.06286   4.10407
 Alpha virt. eigenvalues --    4.11386   4.13699   4.14191   4.16037   4.16986
 Alpha virt. eigenvalues --    4.17587   4.18766   4.21006   4.22179   4.22657
 Alpha virt. eigenvalues --    4.28092   4.29379   4.32964   4.35604   4.39054
 Alpha virt. eigenvalues --    4.40754   4.45302   4.48827   4.51451   4.52753
 Alpha virt. eigenvalues --    4.56039   4.57162   4.58504   4.61537   4.62366
 Alpha virt. eigenvalues --    4.65782   4.71690   4.74481   4.79557   4.84314
 Alpha virt. eigenvalues --    4.85874   4.86105   4.89063   4.93359   4.98655
 Alpha virt. eigenvalues --    5.07871   5.11933   5.14697   5.15862   5.19350
 Alpha virt. eigenvalues --    5.21357   5.22201   5.23058   5.26597   5.28058
 Alpha virt. eigenvalues --    5.30666   5.30958   5.33399   5.36241   5.37377
 Alpha virt. eigenvalues --    5.38234   5.42797   5.43566   5.44966   5.47106
 Alpha virt. eigenvalues --    5.49792   5.50130   5.51626   5.53864   5.61620
 Alpha virt. eigenvalues --    5.65515   5.67998   5.72980   5.73847   5.77358
 Alpha virt. eigenvalues --    5.82241   5.84308   5.85100   5.89649   5.90124
 Alpha virt. eigenvalues --    5.94720   5.95880   5.99231   6.03111   6.09641
 Alpha virt. eigenvalues --    6.14300   6.23244   6.23772   6.26436   6.29981
 Alpha virt. eigenvalues --    6.30118   6.31269   6.38084   6.43017   6.43080
 Alpha virt. eigenvalues --    6.45517   6.49134   6.51112   6.61444   6.62242
 Alpha virt. eigenvalues --    6.65931   6.68093   6.68616   6.70203   6.70377
 Alpha virt. eigenvalues --    6.73311   6.79920   6.80939   6.83466   6.88847
 Alpha virt. eigenvalues --    6.92918   6.93053   6.93210   6.98234   7.03138
 Alpha virt. eigenvalues --    7.08645   7.10541   7.12382   7.15985   7.19366
 Alpha virt. eigenvalues --    7.29196   7.37804   7.40526  22.32588  22.45285
 Alpha virt. eigenvalues --   22.55028  22.76693  22.77190  22.81220  22.89627
 Alpha virt. eigenvalues --   23.00452  23.35820  23.55495  43.91902  43.96861
 Alpha virt. eigenvalues --   44.00559  44.06592  44.11802  44.54601
          Condensed to atoms (all electrons):
               1          2          3          4          5          6
     1  H    0.446456  -0.000001   0.408592  -0.002976  -0.000791   0.004947
     2  H   -0.000001   0.281259   0.000088   0.000030  -0.000700   0.004536
     3  C    0.408592   0.000088   5.042022  -0.026497  -0.056631   0.000762
     4  H   -0.002976   0.000030  -0.026497   0.435693   0.005595  -0.046393
     5  C   -0.000791  -0.000700  -0.056631   0.005595   5.205758   0.223729
     6  C    0.004947   0.004536   0.000762  -0.046393   0.223729   5.779734
     7  C   -0.028833   0.001415   0.416988   0.420370  -0.045975   0.342440
     8  C   -0.023241  -0.000004   0.436417   0.005126  -0.008240  -0.065586
     9  C    0.004590   0.000074  -0.025673  -0.001599   0.382168   0.024337
    10  C   -0.000264  -0.017109  -0.024796   0.004268   0.008489   0.052638
    11  H    0.000033  -0.000021  -0.001623  -0.000085   0.410864  -0.034767
    12  O   -0.000061   0.301663  -0.008934   0.003806   0.006367  -0.063333
    13  O    0.000001   0.003063  -0.000412   0.000202   0.025884  -0.166741
    14  H    0.000030  -0.000085   0.001361  -0.000575   0.006638   0.019161
    15  C   -0.000025  -0.000331  -0.000556  -0.000172  -0.006244   0.008489
    16  O    0.000000  -0.000001   0.000020  -0.000008  -0.000125   0.000212
    17  H   -0.000002   0.000027  -0.000366   0.000002  -0.020061   0.013509
    18  H   -0.000001  -0.001656   0.000498  -0.000508  -0.002600   0.022062
    19  O   -0.000005   0.006377  -0.000891   0.000352   0.008152  -0.110565
    20  C   -0.000001   0.000012   0.000034  -0.000051  -0.000210  -0.001308
    21  H   -0.000000   0.000000  -0.000001   0.000000   0.000004  -0.000008
    22  H   -0.000000   0.000014  -0.000003   0.000016  -0.000243   0.000129
    23  H    0.000000  -0.000015   0.000006  -0.000006   0.000391  -0.000548
    24  H   -0.000000   0.000074   0.000019  -0.000003  -0.001144   0.019184
    25  C   -0.009808   0.000001  -0.027567  -0.000028   0.011053  -0.005847
    26  O    0.008097   0.000000   0.020313  -0.000066   0.000037   0.000012
    27  H   -0.000191  -0.000000  -0.002553  -0.000001  -0.000006   0.000023
    28  O    0.000126   0.000000   0.002571   0.000005   0.004380  -0.000505
    29  H   -0.000143   0.000000   0.004882   0.000039  -0.027622   0.006912
               7          8          9         10         11         12
     1  H   -0.028833  -0.023241   0.004590  -0.000264   0.000033  -0.000061
     2  H    0.001415  -0.000004   0.000074  -0.017109  -0.000021   0.301663
     3  C    0.416988   0.436417  -0.025673  -0.024796  -0.001623  -0.008934
     4  H    0.420370   0.005126  -0.001599   0.004268  -0.000085   0.003806
     5  C   -0.045975  -0.008240   0.382168   0.008489   0.410864   0.006367
     6  C    0.342440  -0.065586   0.024337   0.052638  -0.034767  -0.063333
     7  C    5.167639  -0.033344  -0.041810  -0.019758   0.006998  -0.011746
     8  C   -0.033344   5.350451   0.397612   0.004734   0.005077   0.000478
     9  C   -0.041810   0.397612   5.087619  -0.014787  -0.024297  -0.001256
    10  C   -0.019758   0.004734  -0.014787   4.826127  -0.005339   0.265043
    11  H    0.006998   0.005077  -0.024297  -0.005339   0.439437   0.000294
    12  O   -0.011746   0.000478  -0.001256   0.265043   0.000294   7.987330
    13  O    0.001341   0.000345  -0.004016   0.466978   0.006964  -0.062430
    14  H   -0.022852   0.000096  -0.000565  -0.009899  -0.000038   0.000078
    15  C   -0.011115   0.000056  -0.001105  -0.041994  -0.000004   0.008188
    16  O   -0.000195  -0.000007   0.000007   0.000254  -0.000002   0.000003
    17  H    0.006758  -0.000452   0.000097  -0.000636   0.000198   0.000067
    18  H   -0.000455  -0.000018  -0.000010  -0.042863  -0.000022   0.167679
    19  O    0.006756   0.000084   0.000819   0.248958   0.000162  -0.190995
    20  C    0.000900  -0.000078   0.000074   0.011266  -0.000056  -0.000044
    21  H    0.000008   0.000000  -0.000000  -0.000038   0.000000  -0.000001
    22  H    0.000419   0.000000   0.000001  -0.000446   0.000001  -0.000046
    23  H   -0.000346   0.000002  -0.000000   0.000983  -0.000006  -0.000073
    24  H   -0.001003   0.000010  -0.000055  -0.022191  -0.000170  -0.002168
    25  C    0.001619   0.236735  -0.068797  -0.000895  -0.000236  -0.000009
    26  O   -0.000428  -0.172852   0.007127  -0.000010   0.000001  -0.000000
    27  H   -0.000091   0.025767  -0.000784   0.000000  -0.000000  -0.000000
    28  O    0.000372  -0.159318   0.027164  -0.000012  -0.000051   0.000000
    29  H   -0.000335  -0.034554   0.411841  -0.000472  -0.002694  -0.000002
              13         14         15         16         17         18
     1  H    0.000001   0.000030  -0.000025   0.000000  -0.000002  -0.000001
     2  H    0.003063  -0.000085  -0.000331  -0.000001   0.000027  -0.001656
     3  C   -0.000412   0.001361  -0.000556   0.000020  -0.000366   0.000498
     4  H    0.000202  -0.000575  -0.000172  -0.000008   0.000002  -0.000508
     5  C    0.025884   0.006638  -0.006244  -0.000125  -0.020061  -0.002600
     6  C   -0.166741   0.019161   0.008489   0.000212   0.013509   0.022062
     7  C    0.001341  -0.022852  -0.011115  -0.000195   0.006758  -0.000455
     8  C    0.000345   0.000096   0.000056  -0.000007  -0.000452  -0.000018
     9  C   -0.004016  -0.000565  -0.001105   0.000007   0.000097  -0.000010
    10  C    0.466978  -0.009899  -0.041994   0.000254  -0.000636  -0.042863
    11  H    0.006964  -0.000038  -0.000004  -0.000002   0.000198  -0.000022
    12  O   -0.062430   0.000078   0.008188   0.000003   0.000067   0.167679
    13  O    7.877698   0.000079   0.005507   0.000002  -0.000015   0.001074
    14  H    0.000079   0.514793   0.405502   0.011294  -0.038826  -0.001678
    15  C    0.005507   0.405502   5.122476  -0.085793   0.389227  -0.010604
    16  O    0.000002   0.011294  -0.085793   8.068918   0.010251   0.000029
    17  H   -0.000015  -0.038826   0.389227   0.010251   0.504691   0.002545
    18  H    0.001074  -0.001678  -0.010604   0.000029   0.002545   0.254054
    19  O   -0.054626  -0.033165   0.153756   0.002697  -0.024410   0.161443
    20  C   -0.000903  -0.025047   0.242273   0.269598  -0.020350  -0.000759
    21  H   -0.000000  -0.000525   0.014430   0.307270  -0.000527  -0.000013
    22  H   -0.000014  -0.014138  -0.052478  -0.041892   0.009395   0.002109
    23  H    0.000146   0.009666  -0.048340  -0.041110  -0.014553  -0.000405
    24  H    0.298798   0.000168  -0.000661  -0.000001  -0.000171   0.000323
    25  C   -0.000010   0.000027   0.000033  -0.000000   0.000001   0.000002
    26  O    0.000000  -0.000000   0.000000   0.000000  -0.000000  -0.000000
    27  H   -0.000000   0.000000   0.000000  -0.000000   0.000000   0.000000
    28  O    0.000000  -0.000000  -0.000000   0.000000   0.000000  -0.000000
    29  H   -0.000092  -0.000009  -0.000029   0.000000   0.000036  -0.000000
              19         20         21         22         23         24
     1  H   -0.000005  -0.000001  -0.000000  -0.000000   0.000000  -0.000000
     2  H    0.006377   0.000012   0.000000   0.000014  -0.000015   0.000074
     3  C   -0.000891   0.000034  -0.000001  -0.000003   0.000006   0.000019
     4  H    0.000352  -0.000051   0.000000   0.000016  -0.000006  -0.000003
     5  C    0.008152  -0.000210   0.000004  -0.000243   0.000391  -0.001144
     6  C   -0.110565  -0.001308  -0.000008   0.000129  -0.000548   0.019184
     7  C    0.006756   0.000900   0.000008   0.000419  -0.000346  -0.001003
     8  C    0.000084  -0.000078   0.000000   0.000000   0.000002   0.000010
     9  C    0.000819   0.000074  -0.000000   0.000001  -0.000000  -0.000055
    10  C    0.248958   0.011266  -0.000038  -0.000446   0.000983  -0.022191
    11  H    0.000162  -0.000056   0.000000   0.000001  -0.000006  -0.000170
    12  O   -0.190995  -0.000044  -0.000001  -0.000046  -0.000073  -0.002168
    13  O   -0.054626  -0.000903  -0.000000  -0.000014   0.000146   0.298798
    14  H   -0.033165  -0.025047  -0.000525  -0.014138   0.009666   0.000168
    15  C    0.153756   0.242273   0.014430  -0.052478  -0.048340  -0.000661
    16  O    0.002697   0.269598   0.307270  -0.041892  -0.041110  -0.000001
    17  H   -0.024410  -0.020350  -0.000527   0.009395  -0.014553  -0.000171
    18  H    0.161443  -0.000759  -0.000013   0.002109  -0.000405   0.000323
    19  O    8.097234  -0.025273  -0.000306   0.003326   0.003436  -0.000644
    20  C   -0.025273   4.799479  -0.034360   0.439598   0.435958  -0.000078
    21  H   -0.000306  -0.034360   0.365142  -0.004550  -0.004148  -0.000000
    22  H    0.003326   0.439598  -0.004550   0.565017  -0.052839  -0.000050
    23  H    0.003436   0.435958  -0.004148  -0.052839   0.565144   0.000284
    24  H   -0.000644  -0.000078  -0.000000  -0.000050   0.000284   0.315463
    25  C   -0.000005   0.000000  -0.000000  -0.000000   0.000000   0.000001
    26  O   -0.000000   0.000000  -0.000000  -0.000000  -0.000000  -0.000000
    27  H   -0.000000   0.000000   0.000000  -0.000000  -0.000000  -0.000000
    28  O   -0.000000   0.000000   0.000000  -0.000000  -0.000000  -0.000000
    29  H    0.000001  -0.000000  -0.000000   0.000000  -0.000000  -0.000000
              25         26         27         28         29
     1  H   -0.009808   0.008097  -0.000191   0.000126  -0.000143
     2  H    0.000001   0.000000  -0.000000   0.000000   0.000000
     3  C   -0.027567   0.020313  -0.002553   0.002571   0.004882
     4  H   -0.000028  -0.000066  -0.000001   0.000005   0.000039
     5  C    0.011053   0.000037  -0.000006   0.004380  -0.027622
     6  C   -0.005847   0.000012   0.000023  -0.000505   0.006912
     7  C    0.001619  -0.000428  -0.000091   0.000372  -0.000335
     8  C    0.236735  -0.172852   0.025767  -0.159318  -0.034554
     9  C   -0.068797   0.007127  -0.000784   0.027164   0.411841
    10  C   -0.000895  -0.000010   0.000000  -0.000012  -0.000472
    11  H   -0.000236   0.000001  -0.000000  -0.000051  -0.002694
    12  O   -0.000009  -0.000000  -0.000000   0.000000  -0.000002
    13  O   -0.000010   0.000000  -0.000000   0.000000  -0.000092
    14  H    0.000027  -0.000000   0.000000  -0.000000  -0.000009
    15  C    0.000033   0.000000   0.000000  -0.000000  -0.000029
    16  O   -0.000000   0.000000  -0.000000   0.000000   0.000000
    17  H    0.000001  -0.000000   0.000000   0.000000   0.000036
    18  H    0.000002  -0.000000   0.000000  -0.000000  -0.000000
    19  O   -0.000005  -0.000000  -0.000000  -0.000000   0.000001
    20  C    0.000000   0.000000   0.000000   0.000000  -0.000000
    21  H   -0.000000  -0.000000   0.000000   0.000000  -0.000000
    22  H   -0.000000  -0.000000  -0.000000  -0.000000   0.000000
    23  H    0.000000  -0.000000  -0.000000  -0.000000  -0.000000
    24  H    0.000001  -0.000000  -0.000000  -0.000000  -0.000000
    25  C    4.411780   0.431264  -0.028345   0.698233  -0.012706
    26  O    0.431264   7.907951   0.297880  -0.086770   0.000699
    27  H   -0.028345   0.297880   0.333581   0.003869  -0.000065
    28  O    0.698233  -0.086770   0.003869   7.863517   0.014766
    29  H   -0.012706   0.000699  -0.000065   0.014766   0.450292
 Mulliken charges:
               1
     1  H    0.193471
     2  H    0.421288
     3  C   -0.158071
     4  H    0.203464
     5  C   -0.128917
     6  C   -0.027216
     7  C   -0.155735
     8  C    0.034702
     9  C   -0.158776
    10  C    0.311769
    11  H    0.199384
    12  O   -0.399899
    13  O   -0.398822
    14  H    0.178508
    15  C   -0.090486
    16  O   -0.501422
    17  H    0.183566
    18  H    0.449774
    19  O   -0.252666
    20  C   -0.090673
    21  H    0.357623
    22  H    0.146673
    23  H    0.146374
    24  H    0.394012
    25  C    0.363504
    26  O   -0.413254
    27  H    0.370915
    28  O   -0.368345
    29  H    0.189256
 Sum of Mulliken charges =   1.00000
 Mulliken charges with hydrogens summed into heavy atoms:
               1
     3  C    0.035400
     5  C    0.070467
     6  C   -0.027216
     7  C    0.047729
     8  C    0.034702
     9  C    0.030480
    10  C    0.311769
    12  O    0.471163
    13  O   -0.004810
    15  C    0.271588
    16  O   -0.143799
    19  O   -0.252666
    20  C    0.202374
    25  C    0.363504
    26  O   -0.042339
    28  O   -0.368345
 Electronic spatial extent (au):  <R**2>=         249234.1469
 Charge=              1.0000 electrons
 Dipole moment (field-independent basis, Debye):
    X=             29.2193    Y=             80.3200    Z=             64.3616  Tot=            106.9929
 Quadrupole moment (field-independent basis, Debye-Ang):
   XX=            106.6349   YY=           1246.2452   ZZ=            790.0654
   XY=            484.5512   XZ=            397.7192   YZ=           1067.1513
 Traceless Quadrupole moment (field-independent basis, Debye-Ang):
   XX=           -607.6803   YY=            531.9301   ZZ=             75.7502
   XY=            484.5512   XZ=            397.7192   YZ=           1067.1513
 Octapole moment (field-independent basis, Debye-Ang**2):
  XXX=             -9.3421  YYY=          16703.4409  ZZZ=           8850.3912  XYY=           7474.1037
  XXY=           1469.8999  XXZ=           1552.2998  XZZ=           4980.3024  YZZ=          12780.9316
  YYZ=          16417.6694  XYZ=           6601.2961
 Hexadecapole moment (field-independent basis, Debye-Ang**3):
 XXXX=          -5900.1619 YYYY=         144759.9308 ZZZZ=          86555.2457 XXXY=          -4376.9005
 XXXZ=           1104.1263 YYYX=         100771.3074 YYYZ=         218106.4797 ZZZX=          57382.3108
 ZZZY=         136382.4523 XXYY=          14598.3770 XXZZ=          19395.7866 YYZZ=         188860.3004
 XXYZ=          22395.5278 YYXZ=         102421.8663 ZZXY=          81649.0348
 N-N= 1.133442170580D+03 E-N=-4.215910892252D+03  KE= 8.360378300511D+02
   1 Symmetry operations used in ECPInt.
 ECPInt:  NShTT=   26106 NPrTT=   79792 LenC2=   22981 LenP2D=   51240.
 LDataN:  DoStor=T MaxTD1= 7 Len=  274
 D1PCM: PCM CHGder 1st derivatives, ID1Alg=3 FixD1E=F DoIter=F DoCFld=F I1PDM=0.
 Calling FoFJK, ICntrl=      2127 FMM=F ISym2X=0 I1Cent= 0 IOpClX= 0 NMat=1 NMatS=1 NMatT=0.
 -------------------------------------------------------------------
 Center     Atomic                   Forces (Hartrees/Bohr)
 Number     Number              X              Y              Z
 -------------------------------------------------------------------
      1        1           0.002232962   -0.000004115    0.005742138
      2        1           0.002890622    0.002088215   -0.002011656
      3        6           0.000042992    0.000482089    0.000519385
      4        1           0.000705048    0.005621012    0.002454718
      5        6          -0.000038384   -0.000293165   -0.000474381
      6        6          -0.002025881    0.004031527   -0.002426482
      7        6           0.000123393    0.000445470    0.000470437
      8        6           0.001163434   -0.003004078    0.002262162
      9        6          -0.000255985   -0.000369531   -0.000556490
     10        6          -0.001406013    0.002006947   -0.004460257
     11        1          -0.002067381   -0.000121298   -0.005828038
     12        8          -0.001814656   -0.001383780    0.001912585
     13        8           0.000671826   -0.000960010    0.004236052
     14        1           0.001456453   -0.001015667    0.005230700
     15        6          -0.000402504    0.007931164   -0.004265597
     16        8           0.004852631    0.000385826   -0.001874459
     17        1          -0.000750052   -0.004667936   -0.002273457
     18        1          -0.000882398   -0.000018767   -0.000240460
     19        8           0.002540752   -0.002868344    0.000860297
     20        6          -0.006399026   -0.009470070    0.007391286
     21        1          -0.001113434    0.001315730   -0.000383892
     22        1           0.001924009    0.005430241    0.001513550
     23        1          -0.000413561    0.001447909   -0.005844006
     24        1          -0.001432970    0.001316800   -0.000933707
     25        6           0.001803985   -0.003124919    0.004020077
     26        8          -0.001180051    0.001742072   -0.002697666
     27        1           0.000336294   -0.001430213    0.000545544
     28        8          -0.000248540    0.000251531   -0.000629549
     29        1          -0.000313564   -0.005764641   -0.002258834
 -------------------------------------------------------------------
 Cartesian Forces:  Max     0.009470070 RMS     0.002953038

 GradGradGradGradGradGradGradGradGradGradGradGradGradGradGradGradGradGrad
 Berny optimization.
 FormGI is forming the generalized inverse of G from B-inverse, IUseBI=4.
 Internal  Forces:  Max     0.006968990 RMS     0.002070765
 Search for a saddle point.
 Step number   1 out of a maximum of  162
 All quantities printed in internal units (Hartrees-Bohrs-Radians)
 Swapping is turned off.
 Second derivative matrix not updated -- first step.
 ITU=  0
     Eigenvalues ---   -0.06535   0.00096   0.00202   0.00276   0.00354
     Eigenvalues ---    0.00368   0.00460   0.00578   0.00815   0.01628
     Eigenvalues ---    0.01751   0.01805   0.01891   0.02028   0.02100
     Eigenvalues ---    0.02219   0.02498   0.02799   0.02839   0.02976
     Eigenvalues ---    0.04261   0.04790   0.04930   0.05176   0.05216
     Eigenvalues ---    0.06376   0.06711   0.06961   0.07568   0.08266
     Eigenvalues ---    0.10363   0.10606   0.10822   0.11067   0.11334
     Eigenvalues ---    0.11555   0.11741   0.12379   0.13243   0.14548
     Eigenvalues ---    0.14995   0.15536   0.16390   0.18126   0.18260
     Eigenvalues ---    0.18832   0.19879   0.20086   0.21259   0.22672
     Eigenvalues ---    0.24618   0.25170   0.25730   0.27189   0.28322
     Eigenvalues ---    0.30200   0.31508   0.33080   0.33275   0.34148
     Eigenvalues ---    0.34537   0.35085   0.35733   0.36921   0.37198
     Eigenvalues ---    0.37354   0.37465   0.39285   0.44047   0.44250
     Eigenvalues ---    0.45505   0.47631   0.49630   0.49743   0.50054
     Eigenvalues ---    0.51148   0.52518   0.53424   0.53920   0.54316
     Eigenvalues ---    0.94752
 Eigenvectors required to have negative eigenvalues:
                          R25       R17       R14       R16       A27
   1                   -0.64746   0.63659  -0.16538   0.15435  -0.13365
                          A39       A38       D50       A26       D44
   1                   -0.12624   0.11374   0.10694   0.09350  -0.08442
 RFO step:  Lambda0=8.392959718D-07 Lambda=-1.83138833D-03.
 Linear search not attempted -- option 19 set.
 Iteration  1 RMS(Cart)=  0.01782780 RMS(Int)=  0.00021376
 Iteration  2 RMS(Cart)=  0.00045964 RMS(Int)=  0.00009417
 Iteration  3 RMS(Cart)=  0.00000006 RMS(Int)=  0.00009417
 Variable       Old X    -DE/DX   Delta X   Delta X   Delta X     New X
                                 (Linear)    (Quad)   (Total)
    R1        2.05830  -0.00615   0.00000  -0.01644  -0.01644   2.04186
    R2        1.84629  -0.00395   0.00000  -0.00751  -0.00751   1.83878
    R3        2.62865  -0.00684   0.00000  -0.01203  -0.01203   2.61662
    R4        2.64189  -0.00666   0.00000  -0.01265  -0.01265   2.62924
    R5        2.06026  -0.00617   0.00000  -0.01651  -0.01651   2.04375
    R6        2.64011  -0.00673   0.00000  -0.01237  -0.01237   2.62774
    R7        2.62852  -0.00683   0.00000  -0.01244  -0.01244   2.61608
    R8        2.05911  -0.00618   0.00000  -0.01653  -0.01653   2.04259
    R9        2.64135  -0.00697   0.00000  -0.01334  -0.01334   2.62801
   R10        2.83664  -0.00190   0.00000  -0.00596  -0.00596   2.83067
   R11        2.63882  -0.00666   0.00000  -0.01238  -0.01238   2.62644
   R12        2.83046  -0.00293   0.00000  -0.00972  -0.00972   2.82073
   R13        2.05994  -0.00619   0.00000  -0.01654  -0.01654   2.04339
   R14        2.78206  -0.00063   0.00000  -0.00319  -0.00327   2.77878
   R15        2.51049   0.00334   0.00000   0.00752   0.00752   2.51801
   R16        2.75269   0.00143   0.00000   0.00921   0.00933   2.76201
   R17        2.31973  -0.00026   0.00000   0.00175   0.00165   2.32138
   R18        1.83799  -0.00214   0.00000  -0.00426  -0.00426   1.83373
   R19        2.07383  -0.00551   0.00000  -0.01615  -0.01615   2.05768
   R20        2.07359  -0.00524   0.00000  -0.01542  -0.01542   2.05817
   R21        2.73073   0.00042   0.00000   0.00722   0.00722   2.73796
   R22        2.86141  -0.00053   0.00000  -0.00296  -0.00296   2.85845
   R23        2.64702   0.00454   0.00000   0.01714   0.01714   2.66416
   R24        1.82143  -0.00159   0.00000  -0.00316  -0.00316   1.81828
   R25        2.34528   0.00018   0.00000  -0.00120  -0.00114   2.34413
   R26        2.08589  -0.00580   0.00000  -0.01861  -0.01861   2.06729
   R27        2.08467  -0.00585   0.00000  -0.01873  -0.01873   2.06594
   R28        2.51510   0.00224   0.00000   0.00610   0.00610   2.52120
   R29        2.27384  -0.00005   0.00000   0.00007   0.00007   2.27392
   R30        1.83558  -0.00156   0.00000  -0.00331  -0.00331   1.83227
    A1        2.09962  -0.00044   0.00000  -0.00397  -0.00397   2.09565
    A2        2.09359   0.00040   0.00000   0.00352   0.00352   2.09710
    A3        2.08997   0.00004   0.00000   0.00045   0.00045   2.09042
    A4        2.08233  -0.00000   0.00000   0.00030   0.00030   2.08263
    A5        2.09519   0.00026   0.00000   0.00265   0.00266   2.09784
    A6        2.10566  -0.00026   0.00000  -0.00295  -0.00295   2.10271
    A7        2.11142   0.00008   0.00000  -0.00025  -0.00025   2.11117
    A8        2.07556  -0.00015   0.00000  -0.00158  -0.00158   2.07398
    A9        2.09549   0.00006   0.00000   0.00185   0.00185   2.09735
   A10        2.09450  -0.00017   0.00000  -0.00221  -0.00221   2.09229
   A11        2.08526  -0.00002   0.00000   0.00001   0.00001   2.08527
   A12        2.10338   0.00019   0.00000   0.00221   0.00221   2.10560
   A13        2.10350  -0.00005   0.00000  -0.00059  -0.00059   2.10291
   A14        2.12222  -0.00034   0.00000  -0.00145  -0.00145   2.12077
   A15        2.05746   0.00039   0.00000   0.00204   0.00204   2.05951
   A16        2.09389  -0.00004   0.00000   0.00008   0.00008   2.09397
   A17        2.11032  -0.00041   0.00000  -0.00426  -0.00426   2.10607
   A18        2.07897   0.00045   0.00000   0.00417   0.00417   2.08314
   A19        1.94922   0.00028   0.00000   0.00062   0.00057   1.94979
   A20        1.97194  -0.00037   0.00000  -0.00240  -0.00237   1.96957
   A21        2.00543   0.00041   0.00000   0.00560   0.00553   2.01097
   A22        1.99346  -0.00015   0.00000  -0.00387  -0.00391   1.98955
   A23        1.55878  -0.00049   0.00000   0.00246   0.00259   1.56136
   A24        1.94981   0.00034   0.00000  -0.00137  -0.00139   1.94842
   A25        1.99965  -0.00080   0.00000  -0.01584  -0.01609   1.98355
   A26        2.16470  -0.00044   0.00000  -0.02801  -0.02822   2.13648
   A27        1.37415   0.00082   0.00000  -0.00253  -0.00272   1.37143
   A28        1.94816   0.00008   0.00000   0.00012   0.00012   1.94828
   A29        1.91776  -0.00020   0.00000   0.00631   0.00629   1.92404
   A30        1.91133   0.00027   0.00000  -0.00266  -0.00266   1.90867
   A31        1.94542   0.00068   0.00000   0.00314   0.00309   1.94851
   A32        1.87490   0.00047   0.00000  -0.00127  -0.00125   1.87364
   A33        1.93631   0.00057   0.00000   0.00480   0.00477   1.94108
   A34        1.87621  -0.00182   0.00000  -0.01098  -0.01099   1.86522
   A35        1.89729   0.00140   0.00000   0.00379   0.00379   1.90108
   A36        1.97223  -0.00026   0.00000   0.00666   0.00692   1.97915
   A37        2.14753  -0.00052   0.00000  -0.01305  -0.01374   2.13379
   A38        1.37764  -0.00006   0.00000  -0.00621  -0.00650   1.37114
   A39        2.33462   0.00018   0.00000  -0.02297  -0.02340   2.31122
   A40        1.83883   0.00032   0.00000  -0.00370  -0.00367   1.83516
   A41        1.90487   0.00072   0.00000   0.00877   0.00869   1.91356
   A42        1.90184   0.00081   0.00000   0.01032   0.01025   1.91209
   A43        1.96319  -0.00093   0.00000  -0.01278  -0.01277   1.95042
   A44        1.96744  -0.00097   0.00000  -0.01350  -0.01349   1.95395
   A45        1.88604   0.00017   0.00000   0.01185   0.01165   1.89770
   A46        1.96868   0.00044   0.00000   0.00197   0.00197   1.97065
   A47        2.15908   0.00061   0.00000   0.00360   0.00360   2.16268
   A48        2.15543  -0.00104   0.00000  -0.00557  -0.00557   2.14986
   A49        1.89327   0.00022   0.00000  -0.00080  -0.00080   1.89246
    D1       -0.00759   0.00005   0.00000   0.00239   0.00239  -0.00520
    D2       -3.13897   0.00002   0.00000   0.00078   0.00078  -3.13819
    D3        3.12931   0.00008   0.00000   0.00314   0.00313   3.13244
    D4       -0.00208   0.00005   0.00000   0.00152   0.00153  -0.00055
    D5        3.13564   0.00004   0.00000   0.00180   0.00181   3.13745
    D6       -0.00359   0.00001   0.00000   0.00083   0.00084  -0.00275
    D7       -0.00127   0.00001   0.00000   0.00108   0.00108  -0.00019
    D8       -3.14050  -0.00001   0.00000   0.00011   0.00011  -3.14039
    D9       -0.00216   0.00010   0.00000   0.00378   0.00378   0.00162
   D10        3.09867   0.00005   0.00000   0.00454   0.00454   3.10322
   D11        3.13547   0.00011   0.00000   0.00408   0.00408   3.13956
   D12       -0.04688   0.00006   0.00000   0.00485   0.00485  -0.04203
   D13       -0.00122  -0.00004   0.00000  -0.00113  -0.00113  -0.00235
   D14        3.13877  -0.00002   0.00000  -0.00078  -0.00078   3.13799
   D15       -3.13883  -0.00005   0.00000  -0.00145  -0.00145  -3.14028
   D16        0.00116  -0.00003   0.00000  -0.00110  -0.00110   0.00006
   D17        0.00382  -0.00011   0.00000  -0.00398  -0.00398  -0.00016
   D18       -3.12751  -0.00013   0.00000  -0.00558  -0.00558  -3.13309
   D19       -3.09655  -0.00005   0.00000  -0.00468  -0.00468  -3.10123
   D20        0.05530  -0.00007   0.00000  -0.00627  -0.00627   0.04903
   D21        2.72234   0.00002   0.00000   0.01020   0.01015   2.73249
   D22        0.44642   0.00031   0.00000   0.01718   0.01719   0.46361
   D23       -1.81889  -0.00022   0.00000   0.01622   0.01627  -1.80263
   D24       -0.45963  -0.00003   0.00000   0.01091   0.01086  -0.44877
   D25       -2.73555   0.00025   0.00000   0.01789   0.01790  -2.71765
   D26        1.28232  -0.00027   0.00000   0.01692   0.01698   1.29930
   D27        0.00294  -0.00002   0.00000  -0.00128  -0.00128   0.00166
   D28       -3.13708  -0.00004   0.00000  -0.00161  -0.00162  -3.13869
   D29       -3.14093   0.00000   0.00000  -0.00035  -0.00035  -3.14128
   D30        0.00224  -0.00001   0.00000  -0.00068  -0.00068   0.00156
   D31       -0.00466   0.00000   0.00000  -0.00019  -0.00019  -0.00484
   D32        3.13741   0.00002   0.00000   0.00006   0.00006   3.13747
   D33        3.13924  -0.00002   0.00000  -0.00113  -0.00113   3.13811
   D34       -0.00188  -0.00000   0.00000  -0.00088  -0.00088  -0.00277
   D35       -2.09298  -0.00003   0.00000  -0.03420  -0.03413  -2.12711
   D36        2.05333   0.00016   0.00000  -0.00145  -0.00148   2.05186
   D37        0.17176  -0.00043   0.00000  -0.04047  -0.04042   0.13134
   D38       -1.96511  -0.00024   0.00000  -0.00772  -0.00776  -1.97287
   D39        2.15444  -0.00032   0.00000  -0.04151  -0.04143   2.11301
   D40        0.01757  -0.00012   0.00000  -0.00876  -0.00877   0.00880
   D41       -2.81785  -0.00036   0.00000  -0.00405  -0.00404  -2.82189
   D42        1.21194  -0.00028   0.00000   0.00081   0.00087   1.21281
   D43       -0.52456   0.00020   0.00000   0.00044   0.00037  -0.52419
   D44        0.36374  -0.00003   0.00000  -0.03269  -0.03271   0.33103
   D45       -2.00162  -0.00002   0.00000   0.00563   0.00563  -1.99599
   D46        2.34800   0.00011   0.00000  -0.02969  -0.02969   2.31831
   D47       -0.01736   0.00012   0.00000   0.00863   0.00865  -0.00871
   D48       -1.91238  -0.00020   0.00000  -0.03308  -0.03308  -1.94546
   D49        2.00544  -0.00019   0.00000   0.00523   0.00526   2.01070
   D50       -1.97984   0.00062   0.00000   0.03347   0.03326  -1.94658
   D51       -0.02240   0.00015   0.00000   0.01102   0.01110  -0.01129
   D52       -1.26152   0.00021   0.00000   0.03373   0.03359  -1.22793
   D53        0.62021  -0.00034   0.00000  -0.01547  -0.01530   0.60491
   D54        0.82057   0.00040   0.00000   0.03907   0.03891   0.85948
   D55        2.70230  -0.00015   0.00000  -0.01013  -0.00999   2.69231
   D56        2.90546   0.00034   0.00000   0.03813   0.03797   2.94343
   D57       -1.49600  -0.00021   0.00000  -0.01107  -0.01092  -1.50692
   D58        1.03663   0.00032   0.00000   0.00061   0.00062   1.03724
   D59       -1.07529   0.00086   0.00000   0.01319   0.01326  -1.06203
   D60       -3.13122  -0.00022   0.00000  -0.01200  -0.01204   3.13992
   D61       -1.10664  -0.00031   0.00000  -0.01318  -0.01319  -1.11982
   D62        3.06464   0.00023   0.00000  -0.00059  -0.00055   3.06409
   D63        1.00870  -0.00085   0.00000  -0.02578  -0.02585   0.98285
   D64        3.13132  -0.00011   0.00000  -0.00779  -0.00778   3.12354
   D65        1.01941   0.00043   0.00000   0.00480   0.00486   1.02427
   D66       -1.03652  -0.00065   0.00000  -0.02039  -0.02044  -1.05697
   D67       -3.13176   0.00005   0.00000   0.00190   0.00190  -3.12986
   D68       -1.05840   0.00061   0.00000   0.00329   0.00328  -1.05513
   D69        1.07944  -0.00061   0.00000  -0.00097  -0.00095   1.07849
   D70        0.02262  -0.00017   0.00000  -0.01122  -0.01126   0.01136
   D71       -2.16938   0.00057   0.00000   0.02443   0.02429  -2.14509
   D72       -3.14108   0.00000   0.00000  -0.00003  -0.00003  -3.14111
   D73        0.00004  -0.00001   0.00000  -0.00027  -0.00027  -0.00023
         Item               Value     Threshold  Converged?
 Maximum Force            0.006969     0.000450     NO 
 RMS     Force            0.002071     0.000300     NO 
 Maximum Displacement     0.084150     0.001800     NO 
 RMS     Displacement     0.018092     0.001200     NO 
 Predicted change in Energy=-9.378056D-04
 GradGradGradGradGradGradGradGradGradGradGradGradGradGradGradGradGradGrad

                          Input orientation:                          
 ---------------------------------------------------------------------
 Center     Atomic      Atomic             Coordinates (Angstroms)
 Number     Number       Type             X           Y           Z
 ---------------------------------------------------------------------
      1          1           0        3.737374   20.128303   10.127143
      2          1           0        4.264138   16.247365   14.047766
      3          6           0        4.120731   20.200836   11.134751
      4          1           0        4.387070   18.088435   11.348793
      5          6           0        5.100594   20.403122   13.736433
      6          6           0        4.976719   19.163349   13.119006
      7          6           0        4.488633   19.055987   11.821221
      8          6           0        4.242057   21.443512   11.748633
      9          6           0        4.729695   21.544401   13.046217
     10          6           0        5.427764   17.940484   13.857211
     11          1           0        5.479686   20.472092   14.746312
     12          8           0        4.758983   16.728262   13.361707
     13          8           0        5.374678   18.086052   15.180647
     14          1           0        7.292545   18.336400   11.665706
     15          6           0        7.672641   18.170982   12.672591
     16          8           0        9.861554   18.159745   11.898925
     17          1           0        7.796615   19.121628   13.189433
     18          1           0        5.933987   16.481201   13.102193
     19          8           0        6.711969   17.391309   13.426532
     20          6           0        8.963652   17.382853   12.659042
     21          1           0       10.704962   17.699645   11.846192
     22          1           0        8.791204   16.402508   12.205237
     23          1           0        9.314870   17.238267   13.684192
     24          1           0        5.920621   17.425137   15.635346
     25          6           0        3.855653   22.702147   11.045363
     26          8           0        3.406013   22.488415    9.807571
     27          1           0        3.175618   23.343687    9.413183
     28          8           0        3.938651   23.797841   11.535778
     29          1           0        4.813823   22.519195   13.506594
 ---------------------------------------------------------------------
                    Distance matrix (angstroms):
                    1          2          3          4          5
     1  H    0.000000
     2  H    5.541701   0.000000
     3  C    1.080507   4.912857   0.000000
     4  H    2.464873   3.269420   2.139857   0.000000
     5  C    3.867928   4.250518   2.787436   3.401134   0.000000
     6  C    3.379106   3.142186   2.397158   2.153319   1.390538
     7  C    2.141064   3.591136   1.384657   1.081508   2.420187
     8  C    2.147955   5.682117   1.391336   3.381929   2.402258
     9  C    3.392790   5.410955   2.414479   3.865532   1.384370
    10  C    4.642992   2.063248   3.772177   2.719760   2.487210
    11  H    4.948794   4.451274   3.868296   4.291709   1.080890
    12  O    4.802746   0.973042   4.174383   2.457684   3.709678
    13  O    5.691174   2.428475   4.734340   3.957079   2.744028
    14  H    4.268177   4.382868   3.717316   2.933207   3.655667
    15  C    5.079049   4.148410   4.370507   3.543195   3.567862
    16  O    6.672331   6.293313   6.140607   5.502517   5.574577
    17  H    5.183478   4.634277   4.347244   4.010042   3.034792
    18  H    5.193976   1.933180   4.581966   2.837352   4.059343
    19  O    5.217788   2.772439   4.456480   3.195017   3.429808
    20  C    6.423549   5.030241   5.806752   4.812452   5.020559
    21  H    7.576331   6.959904   7.079139   6.349356   6.503133
    22  H    6.613714   4.890124   6.114454   4.792936   5.654208
    23  H    7.218959   5.159842   6.500427   5.519066   5.270594
    24  H    6.512601   2.579050   5.585649   4.600682   3.625839
    25  C    2.735286   7.130603   2.516906   4.654118   3.751966
    26  O    2.404590   7.593835   2.739570   4.764206   4.759832
    27  H    3.341257   8.545292   3.706015   5.729911   5.571619
    28  O    3.935768   7.964027   3.623869   5.730040   4.209170
    29  H    4.277358   6.319088   3.388334   4.946701   2.147750
                    6          7          8          9         10
     6  C    0.000000
     7  C    1.390684   0.000000
     8  C    2.759854   2.401322   0.000000
     9  C    2.394937   2.784049   1.389854   0.000000
    10  C    1.497927   2.504310   4.257136   3.759418   0.000000
    11  H    2.148001   3.397602   3.385478   2.145380   2.683698
    12  O    2.456820   2.804369   5.010270   4.826550   1.470468
    13  O    2.359937   3.607158   4.932959   4.114848   1.332475
    14  H    2.856393   2.898951   4.355055   4.331891   2.904626
    15  C    2.907246   3.412620   4.830327   4.492269   2.548711
    16  O    5.133949   5.447712   6.510334   6.253650   4.851953
    17  H    2.821084   3.580371   4.483517   3.911052   2.729924
    18  H    2.847905   3.218611   5.414728   5.204752   1.719250
    19  O    2.499158   3.208020   5.033503   4.617598   1.461595
    20  C    4.390600   4.850476   6.293747   5.949350   3.774793
    21  H    6.047748   6.362628   7.469618   7.205971   5.652523
    22  H    4.796614   5.069569   6.805508   6.606221   4.050569
    23  H    4.779637   5.483369   6.867599   6.322470   3.953813
    24  H    3.200671   4.388372   5.837076   5.009014   1.915791
    25  C    4.252044   3.781151   1.492668   2.471385   5.749040
    26  O    4.948614   4.124126   2.357650   3.623827   6.416442
    27  H    5.869609   5.089895   3.194101   4.341834   7.349568
    28  O    5.006267   4.782169   2.383323   2.825804   6.474190
    29  H    3.382079   3.865235   2.138793   1.081318   4.632974
                   11         12         13         14         15
    11  H    0.000000
    12  O    4.056206   0.000000
    13  O    2.427522   2.351854   0.000000
    14  H    4.163866   3.446950   4.011945   0.000000
    15  C    3.795324   3.323512   3.402674   1.088878   0.000000
    16  O    5.714484   5.497736   5.559423   2.585614   2.321642
    17  H    3.100933   3.871058   3.301989   1.786733   1.089139
    18  H    4.340130   1.228423   2.684835   2.711261   2.462282
    19  O    3.570933   2.063490   2.312560   2.081051   1.448864
    20  C    5.102755   4.312942   4.442264   2.165310   1.512626
    21  H    6.587919   6.212491   6.299193   3.476006   3.178059
    22  H    5.829642   4.207415   4.833221   2.505396   2.144085
    23  H    5.127803   4.595673   4.299213   3.061043   2.142477
    24  H    3.204487   2.646596   0.970368   4.297746   3.521899
    25  C    4.616021   6.470607   6.380936   5.590778   6.143999
    26  O    5.723359   6.902302   7.219860   5.983061   6.712129
    27  H    6.480513   7.865223   8.108158   6.862643   7.589719
    28  O    4.872671   7.347511   6.926166   6.410369   6.848107
    29  H    2.484131   5.793005   4.771769   5.198914   5.270234
                   16         17         18         19         20
    16  O    0.000000
    17  H    2.618129   0.000000
    18  H    4.437470   3.232468   0.000000
    19  O    3.583847   2.055888   1.240463   0.000000
    20  C    1.409811   2.160238   3.191900   2.378905   0.000000
    21  H    0.962191   3.504970   5.081766   4.305408   1.947625
    22  H    2.080231   3.058016   2.995732   2.606244   1.093962
    23  H    2.082106   2.469198   3.513152   2.620097   1.093249
    24  H    5.480095   3.518512   2.703342   2.346537   4.256784
    25  C    7.578444   5.740063   6.873877   6.483325   7.549205
    26  O    8.048922   6.484568   7.302863   7.071542   8.067527
    27  H    8.817817   7.310229   8.265053   8.002721   8.920116
[...]
 89,-0.00000167,-0.00000244,0.00000221,-0.00001592,-0.00000804,-0.00000
 365,0.00000742,0.00004552,-0.00002078,-0.00002102,-0.00001047,-0.00000
 631,0.00001109,0.00004647,0.00001449,0.00005177,0.00000796,-0.00000025
 ,0.00003248,-0.00003386,-0.00002771,-0.00000226,-0.00003433,-0.0000001
 4,-0.00000127,-0.00001137,0.00001319,-0.00004459,-0.00005030,-0.000051
 60,-0.00000114,-0.00000326,-0.00000070,0.00004276,-0.00002682,0.000030
 28,0.00003030,-0.00001062,-0.00006382,0.00278617,-0.00096518,-0.000016
 76,0.00933516,-0.00320414,0.01802879,-0.00000280,-0.00497906,0.0248182
 7,-0.00085993,0.00076500,0.00050826,-0.00005457,-0.00006191,-0.0000804
 4,-0.00094586,0.00058786,-0.00040873,0.00885840,-0.05719718,0.01921405
 ,0.00084849,0.00003818,-0.00094365,-0.01047181,0.00480398,-0.02606345,
 -0.00957122,0.06029002,0.00000139,0.00000126,-0.00000093,-0.00000136,0
 .00000734,-0.00001033,-0.00000210,0.00004268,-0.00001157,-0.00000581,-
 0.00000170,0.00000075,0.00000523,0.00004103,-0.00001735,0.00002177,-0.
 00007583,-0.00001782,0.00003975,-0.00002037,0.00001404,-0.00001091,-0.
 00001958,-0.00002704,0.00000848,-0.00002209,0.00003435,0.00001368,-0.0
 0008827,0.00004183,0.00000314,-0.00000117,-0.00000268,-0.00010203,-0.0
 0004023,0.00000523,-0.00004658,0.00000967,0.00008881,0.00128231,0.0000
 0086,0.00080850,0.00077547,-0.00033843,0.00175402,0.00656403,0.0111119
 7,-0.01926276,-0.00024624,0.00018770,0.00073907,0.00010306,0.00003591,
 -0.00002063,-0.00091353,-0.00033352,0.00119157,-0.08808070,0.02299974,
 -0.27354120,-0.00055639,0.00063710,0.00044702,-0.00696528,0.00079970,-
 0.01165204,0.08814064,-0.03495081,0.29945059,-0.00001429,-0.00007153,0
 .00005086,-0.00029341,-0.00122182,-0.00087147,0.00000755,0.00033536,0.
 00028251,0.00000517,0.00001052,-0.00007213,-0.00008469,-0.00007149,0.0
 0000907,0.00185092,0.00109143,0.00254607,0.00063627,-0.00097824,0.0005
 5327,-0.00001545,-0.00016815,-0.00012933,0.00003836,-0.00013751,0.0001
 8085,0.00019680,-0.00680267,0.00316119,0.00000085,0.00014370,0.0001100
 8,-0.00072734,0.00239795,0.00288263,-0.16672249,0.19816192,-0.13476489
 ,0.00010042,0.00008382,-0.00006853,-0.00037812,-0.00034954,0.00035045,
 0.00012465,0.00000964,-0.00007872,0.00003557,-0.00002279,0.00000945,0.
 00321784,0.00097337,-0.00045742,-0.00103641,-0.00217843,-0.00073493,-0
 .00010115,0.00008388,0.00009938,-0.00000658,0.00001709,0.00000276,-0.0
 0001391,0.00000209,-0.00001227,-0.00003429,-0.00000730,-0.00002590,0.1
 6319067,0.00002072,-0.00000900,-0.00002109,-0.00177812,0.00028434,-0.0
 0188133,-0.00009209,0.00012115,0.00015384,0.00007336,0.00000893,0.0000
 0489,-0.00006946,0.00018703,0.00000876,0.00145228,0.00106334,-0.000159
 44,-0.00013099,-0.00008141,0.00008596,-0.00002678,0.00008370,-0.000110
 93,-0.00021657,-0.00001651,0.00018301,-0.00810374,0.00509597,-0.000678
 05,0.00029519,0.00012976,0.00007762,0.00037073,-0.00090046,-0.00063167
 ,0.19607789,-0.24501498,0.15767283,0.00001956,0.00000294,-0.00005731,-
 0.00018231,-0.00095749,0.00039800,0.00018523,-0.00004456,-0.00003879,-
 0.00006329,-0.00001073,0.00014405,0.00090721,0.00058333,-0.00108733,0.
 00251538,-0.00231769,-0.00369165,-0.00004519,0.00020919,-0.00012873,0.
 00000586,0.00002652,-0.00000737,-0.00000706,-0.00000374,-0.00001006,-0
 .00000277,0.00000819,0.00001812,-0.19127159,0.24159945,-0.00002620,0.0
 0006382,-0.00000549,-0.00086746,-0.00178853,0.00026872,-0.00021122,-0.
 00033965,-0.00018188,-0.00000248,-0.00001143,-0.00006711,-0.00011126,-
 0.00081327,0.00032481,0.00052466,-0.00245650,-0.00384735,0.00002921,0.
 00113163,-0.00028063,0.00015781,-0.00011132,0.00023138,-0.00013077,0.0
 0019073,0.00000024,-0.02518258,0.03232986,-0.03966398,0.00016504,0.000
 43138,0.00015423,0.00227321,0.00122750,0.00387741,-0.10057265,0.120225
 58,-0.12999390,-0.00045740,-0.00031780,0.00033654,0.00219600,0.0019985
 3,-0.00081711,-0.00058671,0.00005916,0.00016954,-0.00009175,-0.0001378
 1,-0.00001928,-0.00075302,-0.00091294,-0.00142072,-0.00377921,-0.00008
 087,0.00585851,0.00046312,-0.00045070,0.00009478,0.00000486,-0.0000606
 5,0.00002326,-0.00000018,0.00001975,0.00000903,-0.00001713,0.00001750,
 -0.00001040,0.12697120,-0.15027018,0.16495212,-0.00385841,-0.00107103,
 0.00090762,0.00017376,0.00010517,-0.00007879,0.00366324,0.00072046,0.0
 0534401,0.00022325,-0.00053877,0.00026680,0.00660283,0.00050971,-0.004
 69006,-0.00056262,-0.00247644,0.00031680,0.00791355,-0.00158171,-0.002
 66558,-0.09603083,0.02601351,-0.01864570,-0.00136080,0.01002508,-0.008
 36000,-0.00214489,0.00257050,-0.00118666,0.00000279,0.00021410,0.00001
 744,-0.00007746,-0.00091504,0.00008392,0.00029315,-0.00068220,0.000897
 67,-0.00002407,0.00005348,0.00005664,-0.00027878,-0.00021983,0.0001611
 5,0.00012107,-0.00000720,-0.00004436,-0.00006833,0.00001334,-0.0000431
 7,-0.00006369,0.00019432,0.00001670,0.00071914,-0.00045707,0.00005614,
 -0.00015475,0.00002732,0.00004361,-0.00000880,0.00001447,-0.00000080,0
 .00002574,-0.00002004,-0.00000572,0.00003455,-0.00001622,0.00000093,-0
 .00002416,0.00011509,-0.00005028,0.27288250,-0.00027784,0.00061151,0.0
 0016651,-0.00048412,-0.00023931,0.00026260,0.00534926,-0.02568693,0.00
 801115,0.00009010,0.00025879,0.00032126,-0.00131666,0.00442554,-0.0039
 5776,-0.00173702,0.00297209,-0.00527197,-0.00050690,-0.00233028,-0.002
 96751,0.02208434,-0.16522354,0.03959394,0.00642658,0.00588238,0.017333
 51,0.00284304,-0.00853767,0.00451658,-0.00043669,0.00108913,-0.0007700
 7,0.00032851,0.00251369,-0.00035664,-0.00085022,0.00195671,-0.00263699
 ,0.00007909,-0.00018093,-0.00013886,0.00103580,0.00073460,-0.00066662,
 -0.00040997,-0.00000933,0.00013753,0.00022797,-0.00001972,0.00013828,-
 0.00001962,-0.00064020,-0.00010272,-0.00274864,0.00228740,-0.00014153,
 0.00051565,-0.00006860,-0.00010211,0.00002712,-0.00003938,0.00001323,-
 0.00008687,0.00004937,0.00001565,-0.00009658,0.00004569,-0.00000662,0.
 00011493,-0.00015371,0.00027477,-0.00649403,0.93627990,0.00100509,-0.0
 0175868,-0.00198227,0.00030691,0.00014578,-0.00014537,0.00648197,-0.00
 361948,0.01709866,0.00041680,-0.00124031,0.00075233,-0.00499127,0.0002
 4125,-0.00450468,-0.00011556,-0.00519241,-0.00108819,-0.00218570,-0.00
 646711,0.00156683,-0.01953591,0.04959775,-0.12562126,-0.00914406,0.026
 20014,-0.01491808,-0.00150476,0.00480158,-0.00332141,-0.00013217,0.000
 82335,-0.00013587,-0.00011398,-0.00154861,0.00031377,0.00048763,-0.000
 93757,0.00150749,-0.00005397,0.00010028,0.00010222,-0.00066136,-0.0004
 6075,0.00039321,0.00024147,-0.00000400,-0.00010306,-0.00011722,0.00002
 609,-0.00008328,-0.00002914,0.00039704,0.00005818,0.00179201,-0.001463
 19,0.00015316,-0.00030104,0.00006052,0.00008916,-0.00001265,0.00002819
 ,-0.00000023,0.00004391,-0.00003372,-0.00000966,0.00005995,-0.00002737
 ,-0.00000229,-0.00007155,0.00008264,-0.00013568,0.14292179,0.14265202,
 0.61560244,0.00033354,0.00066986,-0.00048441,-0.00009036,-0.00004159,0
 .00004050,-0.00048253,0.00024144,-0.00148775,0.00000735,0.00012705,-0.
 00005169,-0.00075592,0.00025853,-0.00048877,-0.00017734,0.00056894,-0.
 00071351,-0.00068405,-0.00012872,0.00034034,0.00394410,0.00297262,-0.0
 2005058,0.00113216,0.00266205,0.00046673,0.00054348,-0.00132996,0.0006
 9132,-0.00016904,0.00023761,-0.00008585,0.00007578,0.00043934,-0.00006
 413,-0.00013508,0.00035080,-0.00042930,0.00001341,-0.00003023,-0.00002
 665,0.00015207,0.00010769,-0.00009642,-0.00006543,0.00000496,0.0000229
 6,0.00003919,-0.00000319,0.00002184,-0.00000428,-0.00011306,-0.0000148
 3,-0.00042106,0.00034632,-0.00002685,0.00008215,-0.00001503,-0.0000175
 6,0.00000471,-0.00000804,0.00000051,-0.00001392,0.00001085,0.00000337,
 -0.00001641,0.00000800,-0.00000159,0.00002115,-0.00002995,0.00004408,-
 0.09410876,-0.00148427,-0.07478953,0.11124496,0.00125686,-0.00197319,0
 .00270775,0.00011493,0.00005379,-0.00005584,0.00112580,-0.00492827,0.0
 0183009,0.00001477,-0.00010217,-0.00001347,0.00089237,-0.00038165,0.00
 219878,0.00054528,-0.00035259,0.00155331,-0.00012445,0.00131990,-0.000
 06732,0.01400157,0.00486768,0.03445401,0.00045937,-0.00613628,-0.00046
 479,-0.00056017,0.00177354,-0.00078412,0.00014878,-0.00052088,0.000255
 15,-0.00007897,-0.00055602,0.00009170,0.00019316,-0.00048940,0.0005960
 5,-0.00002693,0.00003859,0.00002911,-0.00020567,-0.00014164,0.00013009
 ,0.00009185,0.00000185,-0.00003057,-0.00005389,0.00000455,-0.00002581,
 -0.00002435,0.00013421,0.00001979,0.00056332,-0.00043678,0.00000978,-0
 .00011495,0.00001513,0.00002318,-0.00000639,0.00000853,-0.00000276,0.0
 0001947,-0.00001143,-0.00000408,0.00002192,-0.00001031,0.00000203,-0.0
 0004028,0.00002216,-0.00006308,0.00536341,-0.12737121,0.00017964,-0.08
 411727,0.56014822,-0.00031767,0.00123717,-0.00012705,-0.00019644,-0.00
 009070,0.00009488,-0.00133899,-0.00043311,-0.00334886,-0.00008674,0.00
 029404,-0.00008703,-0.00043555,0.00071666,-0.00127062,-0.00049236,0.00
 133733,-0.00145094,0.00020483,0.00011960,0.00003954,-0.01762051,0.0060
 1655,-0.03194870,-0.00002325,0.00522821,0.00230580,0.00107597,-0.00303
 494,0.00167650,-0.00012212,0.00051303,-0.00026653,0.00012918,0.0010158
 9,-0.00015074,-0.00030629,0.00075308,-0.00094596,0.00003876,-0.0000650
 7,-0.00005428,0.00037588,0.00026423,-0.00025315,-0.00015285,0.00000286
 ,0.00006585,0.00008887,-0.00001143,0.00004967,0.00001917,-0.00024362,-
 0.00004431,-0.00103334,0.00081902,-0.00004173,0.00019507,-0.00003033,-
 0.00004783,0.00000807,-0.00001797,-0.00000071,-0.00003261,0.00002323,0
 .00000681,-0.00003559,0.00001630,0.00000018,0.00005242,-0.00005377,0.0
 0010709,-0.07327299,-0.01758102,-0.25758545,0.17147223,-0.10042867,0.4
 5670245,-0.00016885,0.00011488,0.00021181,0.00000979,0.00000342,-0.000
 00384,-0.00008266,-0.00046822,0.00014136,0.00002159,-0.00000672,-0.000
 00715,-0.00042937,-0.00016034,0.00000022,0.00003590,-0.00009460,0.0000
 7277,0.00011017,0.00004851,0.00006636,0.00368206,-0.00092311,-0.003158
 00,0.00039599,0.00048666,-0.00026068,-0.00004253,0.00011751,-0.0000579
 5,-0.00005470,0.00002898,0.00001180,-0.00001170,-0.00003849,0.00000871
 ,0.00002192,-0.00003016,0.00004850,-0.00000082,0.00000399,0.00000443,-
 0.00001013,-0.00000379,0.00000269,0.00000467,-0.00000296,0.00000034,-0
 .00000279,-0.00000021,-0.00000365,0.00000598,0.00001368,-0.00000075,0.
 00002814,-0.00003469,0.00000616,-0.00000552,0.00000314,0.00000051,-0.0
 0000088,0.00000106,-0.00000027,0.00000083,-0.00000155,-0.00000052,0.00
 000186,-0.00000116,0.00000089,0.00000010,-0.00000008,-0.00000224,-0.00
 409724,0.01718531,-0.01398918,-0.04094996,0.08533061,-0.04979881,0.044
 23942,0.00003177,0.00020917,0.00016674,-0.00001165,-0.00000642,0.00000
 695,-0.00018559,0.00018708,-0.00038565,-0.00000046,0.00001704,-0.00000
 189,-0.00007376,0.00022843,-0.00003654,-0.00005194,0.00002042,-0.00017
 444,0.00006383,0.00001277,0.00017713,-0.00056212,0.00106385,-0.0022865
 9,-0.00001133,0.00031641,-0.00006304,0.00007857,-0.00020863,0.00012204
 ,-0.00001910,0.00002527,-0.00002933,0.00000839,0.00006580,-0.00000975,
 -0.00001866,0.00004515,-0.00006087,0.00000177,-0.00000490,-0.00000327,
 0.00002604,0.00001771,-0.00001619,-0.00001107,-0.00000015,0.00000294,0
 .00000642,-0.00000060,0.00000381,0.00000013,-0.00001668,-0.00000225,-0
 .00007068,0.00005948,-0.00000343,0.00001359,-0.00000162,-0.00000189,0.
 00000109,-0.00000093,0.00000043,-0.00000230,0.00000123,0.00000047,-0.0
 0000249,0.00000103,-0.00000044,0.00000189,-0.00000508,0.00000844,0.001
 48441,0.01031323,0.00529416,0.10212286,-0.40990806,0.17477621,-0.10129
 221,0.40240669,0.00018486,0.00039591,0.00031508,0.00001542,0.00001004,
 -0.00000854,0.00020052,-0.00112943,0.00011318,-0.00000340,-0.00001999,
 0.00000664,0.00002380,-0.00027901,-0.00045019,0.00007116,-0.00024410,0
 .00017620,0.00007984,0.00012399,0.00026848,-0.00306041,-0.00321739,-0.
 00377662,-0.00037164,0.00121815,-0.00014941,-0.00008329,0.00027151,-0.
 00012337,0.00000064,0.00009138,-0.00002932,-0.00000581,-0.00008072,0.0
 0001626,0.00002806,-0.00006015,0.00009255,-0.00000410,0.00000534,0.000
 00481,-0.00003364,-0.00002413,0.00001997,0.00001386,-0.00000032,-0.000
 00628,-0.00000678,0.00000073,-0.00000436,-0.00000594,0.00002117,0.0000
 0295,0.00008756,-0.00006811,0.00000211,-0.00001727,0.00000337,0.000005
 02,-0.00000088,0.00000165,0.00000039,0.00000270,-0.00000202,-0.0000006
 4,0.00000329,-0.00000136,-0.00000008,-0.00000541,0.00000706,-0.0000045
 9,-0.01746630,0.04575323,-0.03184390,-0.04605491,0.13151347,-0.1039472
 4,0.06142986,-0.17341222,0.13147010,0.00059165,0.00022492,-0.00007013,
 -0.00005034,-0.00002721,0.00001974,0.00106104,0.00066429,-0.00230425,-
 0.00021648,0.00014355,-0.00004118,-0.00051433,-0.00042332,0.00094429,0
 .00005742,0.00082389,0.00009270,-0.00155969,0.00062336,0.00072948,0.02
 096054,0.00906191,-0.00039474,-0.00069598,0.00095987,-0.00123529,0.000
 40716,-0.00061049,0.00037688,0.00008958,0.00000304,-0.00005760,0.00004
 239,0.00024533,-0.00003118,-0.00006844,0.00017169,-0.00022222,0.000007
 54,-0.00001255,-0.00001695,0.00007120,0.00005165,-0.00003864,-0.000032
 04,0.00000525,0.00001168,0.00001733,-0.00000387,0.00001100,0.00001063,
 -0.00005922,-0.00000193,-0.00020428,0.00014737,-0.00002539,0.00003996,
 -0.00001098,-0.00001117,0.00000266,-0.00000462,-0.00000019,-0.00000601
 ,0.00000644,0.00000192,-0.00000955,0.00000424,-0.00000061,0.00001120,-
 0.00001938,0.00001989,-0.08601027,-0.03822280,-0.02696698,0.02024410,-
 0.02492658,-0.02880674,-0.00281103,-0.00156915,0.00506781,0.04826580,-
 0.00003651,0.00068003,-0.00002958,0.00030691,0.00014643,-0.00014447,0.
 00386704,-0.00078647,0.00905482,0.00030927,-0.00089618,0.00055116,-0.0
 0005867,0.00029946,-0.00007394,0.00019908,-0.00295016,0.00070535,0.000
 32969,-0.00311964,0.00019647,0.00194625,-0.05926947,-0.01306017,-0.001
 99832,-0.00216792,-0.00567841,-0.00167578,0.00459558,-0.00264169,0.000
 15126,-0.00028199,0.00025781,-0.00013638,-0.00147862,0.00030244,0.0004
 9998,-0.00109801,0.00155273,-0.00005774,0.00009961,0.00009387,-0.00059
 499,-0.00042594,0.00034265,0.00024137,0.00000606,-0.00007913,-0.000126
 59,0.00001927,-0.00007470,-0.00007164,0.00036737,0.00004145,0.00157385
 ,-0.00121242,0.00010795,-0.00029958,0.00004679,0.00007282,-0.00001653,
 0.00002239,-0.00000863,0.00004660,-0.00002815,-0.00000914,0.00006162,-
 0.00002884,0.00000319,-0.00008656,0.00008256,-0.00014541,-0.03291286,-
 0.63729534,-0.20836753,-0.02361478,-0.01525807,-0.07062010,-0.00027962
 ,-0.00484910,-0.00084757,0.05199738,0.72510075,-0.00011446,0.00061124,
 0.00045462,-0.00005442,-0.00001631,0.00002221,-0.00162708,0.00098441,-
 0.00185151,-0.00000747,0.00017606,-0.00015839,0.00097379,-0.00078587,0
 .00151439,0.00009758,0.00139765,0.00047493,0.00059962,0.00128118,0.000
 06419,-0.00195932,0.00530187,0.01799331,-0.00188774,0.00203654,-0.0045
 1314,0.00025056,-0.00054953,0.00052726,-0.00003159,-0.00008364,0.00002
 208,0.00001765,0.00030312,-0.00006081,-0.00006099,0.00013892,-0.000187
 07,0.00001195,-0.00001235,-0.00001537,0.00008926,0.00005631,-0.0000532
 2,-0.00003707,0.00000209,0.00001990,0.00001962,-0.00000663,0.00000798,
 0.00002860,-0.00005588,-0.00001045,-0.00027816,0.00018905,-0.00002050,
 0.00004592,-0.00001137,-0.00001656,0.00000146,-0.00000501,-0.00000154,
 -0.00000586,0.00000646,0.00000194,-0.00000904,0.00000368,0.00000102,0.
 00001876,-0.00000800,0.00002438,-0.02580271,-0.22199130,-0.19448337,-0
 .02853681,-0.07404840,-0.06047259,0.00537492,-0.00414506,0.00793982,0.
 05256965,0.28740093,0.23137802,0.00024439,-0.00051709,-0.00025459,-0.0
 0002097,0.00000744,0.00000423,0.00471796,0.00079564,-0.00412453,-0.000
 80836,-0.00007537,0.00038113,0.00553528,0.00813344,0.00350276,0.006172
 34,0.00175849,-0.00327914,-0.00099841,0.00009358,0.00002266,0.00390259
 ,-0.01034410,-0.00455966,-0.04612958,-0.02260598,-0.01722908,0.0001120
 1,0.00017184,0.00012388,-0.00376349,-0.00063940,0.00172443,-0.00006039
 ,0.00032851,-0.00000765,0.00002034,-0.00005801,0.00003942,-0.00002137,
 0.00000061,-0.00000786,0.00002275,0.00002876,0.00003306,-0.00000870,-0
 .00000192,0.00000094,0.00000705,-0.00001200,-0.00000610,0.00003501,0.0
 0002727,-0.00001007,0.00000560,0.00002940,0.00002793,0.00000313,-0.000
 01292,-0.00001088,0.00000008,0.00000014,0.00000166,0.00000169,-0.00000
 264,-0.00000017,-0.00000147,0.00000243,-0.00000174,0.00001478,0.000000
 88,-0.00000652,-0.00378171,-0.00113546,0.00095850,0.00023598,0.0001364
 2,0.00041239,0.00010979,0.00004177,-0.00008958,0.00029823,0.00043624,0
 .00031339,0.03415546,0.00006889,0.00017687,0.00014795,0.00006625,-0.00
 002078,-0.00005259,0.00058754,0.00123682,0.00036694,-0.00008233,-0.000
 05943,-0.00002837,-0.00261304,-0.01627730,-0.01128856,0.00198032,-0.00
 195410,0.00271475,0.00011508,0.00027470,0.00064353,-0.00028767,0.00231
 654,-0.00130181,-0.02300745,-0.29406309,-0.11364326,-0.00039306,-0.000
 02123,-0.00091861,-0.00046397,0.00103562,0.00005464,-0.00006226,-0.000
 43747,0.00011101,0.00004969,-0.00006677,0.00016172,0.00000880,0.000014
 15,-0.00000108,-0.00009239,-0.00008252,0.00007162,0.00003058,-0.000001
 26,-0.00000952,-0.00000682,0.00000920,-0.00001143,-0.00004936,0.000030
 63,0.00001948,0.00027481,-0.00014395,0.00005316,-0.00003233,0.00001608
 ,-0.00000361,-0.00000064,0.00000328,-0.00000164,0.00000276,-0.00000290
 ,-0.00000032,0.00000288,-0.00000178,0.00000075,-0.00001967,0.00000680,
 -0.00001851,-0.00003190,-0.00162388,0.00049032,-0.00021285,0.00018979,
 -0.00052267,0.00000015,0.00001140,-0.00003047,0.00075600,-0.00031997,0
 .00182987,0.02341203,0.30975454,-0.00013399,-0.00135794,-0.00031439,-0
 .00004099,0.00003641,0.00004473,-0.00419853,0.00074498,-0.00409200,0.0
 0037035,-0.00004094,-0.00003948,0.00101490,0.01595043,0.01097161,-0.00
 338091,0.00304119,-0.00008740,0.00006752,0.00071655,-0.00079177,-0.002
 30566,-0.02674523,-0.00698546,-0.01728671,-0.11288784,-0.10993672,0.00
 020098,0.00040557,0.00073455,0.00185575,-0.00047812,0.00007956,0.00009
 107,0.00035158,-0.00010740,-0.00002047,-0.00000985,-0.00008304,-0.0000
 0174,-0.00000724,0.00000128,0.00004756,0.00003984,-0.00005413,-0.00001
 808,0.00000249,0.00000548,0.00000076,-0.00000437,0.00001171,0.00004862
 ,-0.00002852,-0.00001309,-0.00020101,0.00004614,-0.00007903,0.00001925
 ,-0.00000925,0.00000639,0.00000061,-0.00000223,0.00000110,-0.00000114,
 0.00000347,0.00000004,-0.00000195,0.00000049,0.00000017,0.00001160,-0.
 00000107,0.00001609,0.00122187,-0.00249855,-0.00167340,0.00031727,0.00
 039499,0.00099496,-0.00009830,0.00007352,-0.00008902,0.00038017,0.0010
 9681,0.00139848,0.02204119,0.12116669,0.11008017\\0.00000610,0.0000028
 9,-0.00000466,-0.00000157,-0.00000742,-0.00001122,0.00000356,0.0000006
 2,-0.00000323,0.00000567,0.00000053,-0.00000741,-0.00000571,-0.0000022
 2,0.00000141,-0.00000142,-0.00000249,-0.00000177,0.00000138,-0.0000001
 1,-0.00000514,-0.00000057,0.00000042,0.00000060,-0.00000409,-0.0000021
 3,0.00000171,-0.00000327,-0.00000335,-0.00000560,-0.00000794,-0.000004
 98,0.00000185,-0.00000031,-0.00000225,-0.00000989,-0.00000556,-0.00000
 636,-0.00000525,0.00000287,0.00000513,0.00000270,-0.00000070,-0.000000
 09,-0.00000054,0.00000308,0.00000658,0.00000984,0.00000003,-0.00000050
 ,0.00000426,0.00000211,0.00000011,-0.00000554,0.00000305,0.00000049,0.
 00000378,0.00000222,0.00000351,0.00000557,0.00000421,0.00000779,0.0000
 1129,0.00000483,0.00000396,0.00000299,-0.00000082,0.00000183,0.0000063
 0,-0.00000716,-0.00000727,-0.00000451,0.00000004,0.00000165,0.00000171
 ,0.00000484,0.00000314,0.00000027,0.00000443,0.00000397,0.00000133,-0.
 00000248,-0.00000022,0.00000457,-0.00000683,-0.00000319,0.00000459\\\@


 THE UNDERLYING PHYSICAL LAWS NECESSARY FOR THE 
 MATHEMATICAL THEORY OF A LARGE PART OF PHYSICS AND THE
 WHOLE OF CHEMISTRY ARE THUS COMPLETELY KNOWN, AND THE
 DIFFICULTY IS ONLY THAT THE EXACT APPLICATION OF THESE
 LAWS LEADS TO EQUATIONS MUCH TOO COMPLICATED 
 TO BE SOLUBLE.

                                        -- P. A. M. DIRAC, 1929
 Job cpu time:       0 days 10 hours 43 minutes 42.8 seconds.
 Elapsed time:       0 days  0 hours 17 minutes 54.9 seconds.
 File lengths (MBytes):  RWF=    955 Int=      0 D2E=      0 Chk=     38 Scr=      1
 Normal termination of Gaussian 16 at Wed Aug 14 19:17:53 2019.
