 Entering Gaussian System, Link 0=g16
 Initial command:
 /nopt/nrel/apps/gaussian/g16B/g16/l1.exe "/dev/shm/Gau-430027.inp" -scrdir="/dev/shm/"
 Default is to use a total of  36 processors:
                               36 via shared-memory
                                1 via Linda
 Entering Link 1 = /nopt/nrel/apps/gaussian/g16B/g16/l1.exe PID=    430029.
  
 Copyright (c) 1988-2017, Gaussian, Inc.  All Rights Reserved.
  
 This is part of the Gaussian(R) 16 program.  It is based on
 the Gaussian(R) 09 system (copyright 2009, Gaussian, Inc.),
 the Gaussian(R) 03 system (copyright 2003, Gaussian, Inc.),
 the Gaussian(R) 98 system (copyright 1998, Gaussian, Inc.),
 the Gaussian(R) 94 system (copyright 1995, Gaussian, Inc.),
 the Gaussian 92(TM) system (copyright 1992, Gaussian, Inc.),
 the Gaussian 90(TM) system (copyright 1990, Gaussian, Inc.),
 the Gaussian 88(TM) system (copyright 1988, Gaussian, Inc.),
 the Gaussian 86(TM) system (copyright 1986, Carnegie Mellon
 University), and the Gaussian 82(TM) system (copyright 1983,
 Carnegie Mellon University). Gaussian is a federally registered
 trademark of Gaussian, Inc.
  
 This software contains proprietary and confidential information,
 including trade secrets, belonging to Gaussian, Inc.
  
 This software is provided under written license and may be
 used, copied, transmitted, or stored only in accord with that
 written license.
  
 The following legend is applicable only to US Government
 contracts under FAR:
  
                    RESTRICTED RIGHTS LEGEND
  
 Use, reproduction and disclosure by the US Government is
 subject to restrictions as set forth in subparagraphs (a)
 and (c) of the Commercial Computer Software - Restricted
 Rights clause in FAR 52.227-19.
  
 Gaussian, Inc.
 340 Quinnipiac St., Bldg. 40, Wallingford CT 06492
  
  
 ---------------------------------------------------------------
 Warning -- This program may not be used in any manner that
 competes with the business of Gaussian, Inc. or will provide
 assistance to any competitor of Gaussian, Inc.  The licensee
 of this program is prohibited from giving any competitor of
 Gaussian, Inc. access to this program.  By using this program,
 the user acknowledges that Gaussian, Inc. is engaged in the
 business of creating and licensing software in the field of
 computational chemistry and represents and warrants to the
 licensee that it is not a competitor of Gaussian, Inc. and that
 it will not use this program in any manner prohibited above.
 ---------------------------------------------------------------
  

 Cite this work as:
 Gaussian 16, Revision B.01,
 M. J. Frisch, G. W. Trucks, H. B. Schlegel, G. E. Scuseria, 
 M. A. Robb, J. R. Cheeseman, G. Scalmani, V. Barone, 
 G. A. Petersson, H. Nakatsuji, X. Li, M. Caricato, A. V. Marenich, 
 J. Bloino, B. G. Janesko, R. Gomperts, B. Mennucci, H. P. Hratchian, 
 J. V. Ortiz, A. F. Izmaylov, J. L. Sonnenberg, D. Williams-Young, 
 F. Ding, F. Lipparini, F. Egidi, J. Goings, B. Peng, A. Petrone, 
 T. Henderson, D. Ranasinghe, V. G. Zakrzewski, J. Gao, N. Rega, 
 G. Zheng, W. Liang, M. Hada, M. Ehara, K. Toyota, R. Fukuda, 
 J. Hasegawa, M. Ishida, T. Nakajima, Y. Honda, O. Kitao, H. Nakai, 
 T. Vreven, K. Throssell, J. A. Montgomery, Jr., J. E. Peralta, 
 F. Ogliaro, M. J. Bearpark, J. J. Heyd, E. N. Brothers, K. N. Kudin, 
 V. N. Staroverov, T. A. Keith, R. Kobayashi, J. Normand, 
 K. Raghavachari, A. P. Rendell, J. C. Burant, S. S. Iyengar, 
 J. Tomasi, M. Cossi, J. M. Millam, M. Klene, C. Adamo, R. Cammi, 
 J. W. Ochterski, R. L. Martin, K. Morokuma, O. Farkas, 
 J. B. Foresman, and D. J. Fox, Gaussian, Inc., Wallingford CT, 2016.
 
 ******************************************
 Gaussian 16:  ES64L-G16RevB.01 20-Dec-2017
                15-Aug-2019 
 ******************************************
 %RWF=/dev/shm/,5GB,/tmp/scratch/1152076/,-1
 %NoSave
 %Chk=/dev/shm/tpaegh1ats_ts_ircr_opt_noeg.chk
 Default route: CacheSize=180224 MaxDisk=256GB
 ----------------------------------------------------------------------
 # m062x/Def2TZVP nosymm scf=xqc opt freq=NoRaman CPHF=Grid=Fine SCRF=(
 Solvent=1,2-EthaneDiol,Read)
 ----------------------------------------------------------------------
 1/4=180224,18=20,19=15,26=3,38=1,40=2/1,3;
 2/4=180224,9=110,12=2,15=1,17=6,18=5,40=1/2;
 3/4=180224,5=44,7=101,11=2,25=1,30=1,70=2203,71=1,72=30,74=-55/1,2,3;
 4/4=180224/1;
 5/4=180224,5=2,8=3,13=1,38=5,53=30/2,8;
 6/4=180224,7=2,8=2,9=2,10=2,28=1/1;
 7/4=180224,30=1/1,2,3,16;
 1/4=180224,18=20,19=15,26=3/3(2);
 2/4=180224,9=110,15=1/2;
 99/4=180224/99;
 2/4=180224,9=110,15=1/2;
 3/4=180224,5=44,7=101,11=2,25=1,30=1,70=2205,71=1,72=30,74=-55/1,2,3;
 4/4=180224,5=5,16=3,69=1/1;
 5/4=180224,5=2,8=3,13=1,38=5,53=30/2,8;
 7/4=180224,30=1/1,2,3,16;
 1/4=180224,18=20,19=15,26=3/3(-5);
 2/4=180224,9=110,15=1/2;
 6/4=180224,7=2,8=2,9=2,10=2,19=2,28=1/1;
 99/4=180224,9=1/99;
 ------------------------------------------
 removed eg from tpaegh1ats_ts_ircr_opt.log
 ------------------------------------------
 Symbolic Z-matrix:
 Charge =  1 Multiplicity = 1
 H                    -2.134     0.431    -2.204 
 H                    -1.363    -3.558     1.85 
 C                    -1.662     0.489    -1.234 
 H                    -2.006    -1.573    -0.759 
 C                    -0.429     0.671     1.267 
 C                    -0.976    -0.532     0.82 
 C                    -1.594    -0.631    -0.426 
 C                    -1.119     1.692    -0.791 
 C                    -0.505     1.785     0.454 
 C                    -0.878    -1.714     1.66 
 H                     0.046     0.731     2.236 
 O                    -1.485    -2.775     1.286 
 O                    -0.24     -1.612     2.763 
 H                    -0.197    -2.416     3.309 
 C                    -1.174     2.927    -1.634 
 O                    -1.78      2.727    -2.803 
 H                    -1.783     3.562    -3.297 
 O                    -0.719     3.986    -1.292 
 H                    -0.092     2.732     0.772 
 

 GradGradGradGradGradGradGradGradGradGradGradGradGradGradGradGradGradGrad
 Berny optimization.
 Initialization pass.
                           ----------------------------
                           !    Initial Parameters    !
                           ! (Angstroms and Degrees)  !
 --------------------------                            --------------------------
 ! Name  Definition              Value          Derivative Info.                !
 --------------------------------------------------------------------------------
 ! R1    R(1,3)                  1.0803         estimate D2E/DX2                !
 ! R2    R(2,12)                 0.9727         estimate D2E/DX2                !
 ! R3    R(3,7)                  1.3827         estimate D2E/DX2                !
 ! R4    R(3,8)                  1.3922         estimate D2E/DX2                !
 ! R5    R(4,7)                  1.0807         estimate D2E/DX2                !
 ! R6    R(5,6)                  1.3951         estimate D2E/DX2                !
 ! R7    R(5,9)                  1.3812         estimate D2E/DX2                !
 ! R8    R(5,11)                 1.0808         estimate D2E/DX2                !
 ! R9    R(6,7)                  1.3944         estimate D2E/DX2                !
 ! R10   R(6,10)                 1.4534         estimate D2E/DX2                !
 ! R11   R(8,9)                  1.3913         estimate D2E/DX2                !
 ! R12   R(8,15)                 1.4963         estimate D2E/DX2                !
 ! R13   R(9,19)                 1.081          estimate D2E/DX2                !
 ! R14   R(10,12)                1.2783         estimate D2E/DX2                !
 ! R15   R(10,13)                1.2783         estimate D2E/DX2                !
 ! R16   R(13,14)                0.9728         estimate D2E/DX2                !
 ! R17   R(15,16)                1.3318         estimate D2E/DX2                !
 ! R18   R(15,18)                1.2023         estimate D2E/DX2                !
 ! R19   R(16,17)                0.9702         estimate D2E/DX2                !
 ! A1    A(1,3,7)              120.1784         estimate D2E/DX2                !
 ! A2    A(1,3,8)              120.1658         estimate D2E/DX2                !
 ! A3    A(7,3,8)              119.6557         estimate D2E/DX2                !
 ! A4    A(6,5,9)              119.0335         estimate D2E/DX2                !
 ! A5    A(6,5,11)             120.4941         estimate D2E/DX2                !
 ! A6    A(9,5,11)             120.4723         estimate D2E/DX2                !
 ! A7    A(5,6,7)              121.4214         estimate D2E/DX2                !
 ! A8    A(5,6,10)             119.3194         estimate D2E/DX2                !
 ! A9    A(7,6,10)             119.2492         estimate D2E/DX2                !
 ! A10   A(3,7,4)              120.4787         estimate D2E/DX2                !
 ! A11   A(3,7,6)              119.1088         estimate D2E/DX2                !
 ! A12   A(4,7,6)              120.4101         estimate D2E/DX2                !
 ! A13   A(3,8,9)              120.9722         estimate D2E/DX2                !
 ! A14   A(3,8,15)             121.3043         estimate D2E/DX2                !
 ! A15   A(9,8,15)             117.7235         estimate D2E/DX2                !
 ! A16   A(5,9,8)              119.8081         estimate D2E/DX2                !
 ! A17   A(5,9,19)             120.8237         estimate D2E/DX2                !
 ! A18   A(8,9,19)             119.3682         estimate D2E/DX2                !
 ! A19   A(6,10,12)            118.2883         estimate D2E/DX2                !
 ! A20   A(6,10,13)            117.8696         estimate D2E/DX2                !
 ! A21   A(12,10,13)           123.7576         estimate D2E/DX2                !
 ! A22   A(2,12,10)            116.0371         estimate D2E/DX2                !
 ! A23   A(10,13,14)           116.1294         estimate D2E/DX2                !
 ! A24   A(8,15,16)            112.7858         estimate D2E/DX2                !
 ! A25   A(8,15,18)            123.5619         estimate D2E/DX2                !
 ! A26   A(16,15,18)           123.6522         estimate D2E/DX2                !
 ! A27   A(15,16,17)           108.6077         estimate D2E/DX2                !
 ! D1    D(1,3,7,4)              0.3605         estimate D2E/DX2                !
 ! D2    D(1,3,7,6)            179.7985         estimate D2E/DX2                !
 ! D3    D(8,3,7,4)           -179.6401         estimate D2E/DX2                !
 ! D4    D(8,3,7,6)             -0.2021         estimate D2E/DX2                !
 ! D5    D(1,3,8,9)           -179.8727         estimate D2E/DX2                !
 ! D6    D(1,3,8,15)             0.1            estimate D2E/DX2                !
 ! D7    D(7,3,8,9)              0.128          estimate D2E/DX2                !
 ! D8    D(7,3,8,15)          -179.8994         estimate D2E/DX2                !
 ! D9    D(9,5,6,7)              0.0479         estimate D2E/DX2                !
 ! D10   D(9,5,6,10)           178.8867         estimate D2E/DX2                !
 ! D11   D(11,5,6,7)           179.9527         estimate D2E/DX2                !
 ! D12   D(11,5,6,10)           -1.2085         estimate D2E/DX2                !
 ! D13   D(6,5,9,8)             -0.1244         estimate D2E/DX2                !
 ! D14   D(6,5,9,19)           179.9182         estimate D2E/DX2                !
 ! D15   D(11,5,9,8)           179.9708         estimate D2E/DX2                !
 ! D16   D(11,5,9,19)            0.0134         estimate D2E/DX2                !
 ! D17   D(5,6,7,3)              0.1166         estimate D2E/DX2                !
 ! D18   D(5,6,7,4)            179.5551         estimate D2E/DX2                !
 ! D19   D(10,6,7,3)          -178.7229         estimate D2E/DX2                !
 ! D20   D(10,6,7,4)             0.7155         estimate D2E/DX2                !
 ! D21   D(5,6,10,12)          174.0244         estimate D2E/DX2                !
 ! D22   D(5,6,10,13)           -2.7606         estimate D2E/DX2                !
 ! D23   D(7,6,10,12)           -7.1113         estimate D2E/DX2                !
 ! D24   D(7,6,10,13)          176.1037         estimate D2E/DX2                !
 ! D25   D(3,8,9,5)              0.0383         estimate D2E/DX2                !
 ! D26   D(3,8,9,19)           179.9963         estimate D2E/DX2                !
 ! D27   D(15,8,9,5)          -179.9353         estimate D2E/DX2                !
 ! D28   D(15,8,9,19)            0.0227         estimate D2E/DX2                !
 ! D29   D(3,8,15,16)           -0.0486         estimate D2E/DX2                !
 ! D30   D(3,8,15,18)          179.9818         estimate D2E/DX2                !
 ! D31   D(9,8,15,16)          179.9249         estimate D2E/DX2                !
 ! D32   D(9,8,15,18)           -0.0447         estimate D2E/DX2                !
 ! D33   D(6,10,12,2)          177.1976         estimate D2E/DX2                !
 ! D34   D(13,10,12,2)          -6.221          estimate D2E/DX2                !
 ! D35   D(6,10,13,14)         179.4613         estimate D2E/DX2                !
 ! D36   D(12,10,13,14)          2.8666         estimate D2E/DX2                !
 ! D37   D(8,15,16,17)         179.9129         estimate D2E/DX2                !
 ! D38   D(18,15,16,17)         -0.1175         estimate D2E/DX2                !
 --------------------------------------------------------------------------------
 Trust Radius=3.00D-01 FncErr=1.00D-07 GrdErr=1.00D-06 EigMax=2.50D+02 EigMin=1.00D-04
 Number of steps in this run=     94 maximum allowed number of steps=    114.
 GradGradGradGradGradGradGradGradGradGradGradGradGradGradGradGradGradGrad

                          Input orientation:                          
 ---------------------------------------------------------------------
 Center     Atomic      Atomic             Coordinates (Angstroms)
 Number     Number       Type             X           Y           Z
 ---------------------------------------------------------------------
      1          1           0       -2.134000    0.431000   -2.204000
      2          1           0       -1.363000   -3.558000    1.850000
      3          6           0       -1.662000    0.489000   -1.234000
      4          1           0       -2.006000   -1.573000   -0.759000
      5          6           0       -0.429000    0.671000    1.267000
      6          6           0       -0.976000   -0.532000    0.820000
      7          6           0       -1.594000   -0.631000   -0.426000
      8          6           0       -1.119000    1.692000   -0.791000
      9          6           0       -0.505000    1.785000    0.454000
     10          6           0       -0.878000   -1.714000    1.660000
     11          1           0        0.046000    0.731000    2.236000
     12          8           0       -1.485000   -2.775000    1.286000
     13          8           0       -0.240000   -1.612000    2.763000
     14          1           0       -0.197000   -2.416000    3.309000
     15          6           0       -1.174000    2.927000   -1.634000
     16          8           0       -1.780000    2.727000   -2.803000
     17          1           0       -1.783000    3.562000   -3.297000
     18          8           0       -0.719000    3.986000   -1.292000
     19          1           0       -0.092000    2.732000    0.772000
 ---------------------------------------------------------------------
                    Distance matrix (angstroms):
                    1          2          3          4          5
     1  H    0.000000
     2  H    5.739467   0.000000
     3  C    1.080300   5.096927   0.000000
     4  H    2.473949   3.340742   2.143783   0.000000
     5  C    3.874592   4.369976   2.794354   3.409859   0.000000
     6  C    3.378300   3.219836   2.394150   2.153560   1.395072
     7  C    2.140264   3.714952   1.382710   1.080739   2.432833
     8  C    2.148701   5.881914   1.392231   3.383492   2.398730
     9  C    3.398812   5.588616   2.422315   3.873052   1.381210
    10  C    4.594459   1.916158   3.720632   2.672794   2.458511
    11  H    4.955401   4.530982   3.875142   4.299901   1.080827
    12  O    4.783277   0.972661   4.127399   2.428635   3.604222
    13  O    5.694925   2.425204   4.734162   3.940147   2.736024
    14  H    6.500042   2.189155   5.587853   4.531198   3.708525
    15  C    2.734322   7.364048   2.518330   4.659168   3.749715
    16  O    2.399111   7.831061   2.735750   4.766446   4.755758
    17  H    3.334818   8.795590   3.703234   5.732312   5.569676
    18  O    3.933446   8.197490   3.622378   5.730876   4.197833
    19  H    4.280297   6.507044   3.394110   4.953825   2.146233
                    6          7          8          9         10
     6  C    0.000000
     7  C    1.394360   0.000000
     8  C    2.749899   2.398995   0.000000
     9  C    2.392548   2.792378   1.391284   0.000000
    10  C    1.453385   2.457019   4.203132   3.719753   0.000000
    11  H    2.155159   3.410409   3.382821   2.142438   2.676486
    12  O    2.346761   2.745826   4.939835   4.737745   1.278298
    13  O    2.341654   3.600750   4.931528   4.115983   1.278302
    14  H    3.217362   4.368988   5.876712   5.088643   1.917229
    15  C    4.245704   3.780877   1.496295   2.472139   5.698854
    16  O    4.938990   4.118360   2.357178   3.622297   6.360382
    17  H    5.861892   5.085235   3.196534   4.342927   7.295687
    18  O    4.993888   4.778312   2.381898   2.817572   6.421027
    19  H    3.381931   3.873109   2.139929   1.080973   4.601441
                   11         12         13         14         15
    11  H    0.000000
    12  O    3.941890   0.000000
    13  O    2.418507   2.254800   0.000000
    14  H    3.333765   2.424944   0.972821   0.000000
    15  C    4.613861   6.413729   6.388152   7.344074   0.000000
    16  O    5.719249   6.861410   7.223495   8.143272   1.331840
    17  H    6.478726   7.826255   8.116325   9.049371   1.881402
    18  O    4.860765   7.276260   6.928930   7.901094   1.202277
    19  H    2.483212   5.703656   4.780828   5.740148   2.645295
                   16         17         18         19
    16  O    0.000000
    17  H    0.970191   0.000000
    18  O    2.234709   2.309090   0.000000
    19  H    3.953479   4.483876   2.495143   0.000000
 Symmetry turned off by external request.
 Stoichiometry    C8H7O4(1+)
 Framework group  C1[X(C8H7O4)]
 Deg. of freedom    51
 Full point group                 C1      NOp   1
 Rotational constants (GHZ):           2.9146039           0.4643400           0.4006876
 Standard basis: def2TZVP (5D, 7F)
   414 basis functions,   668 primitive gaussians,   474 cartesian basis functions
    43 alpha electrons       43 beta electrons
       nuclear repulsion energy       662.3158714543 Hartrees.
 NAtoms=   19 NActive=   19 NUniq=   19 SFac= 1.00D+00 NAtFMM=   60 NAOKFM=F Big=F
 Integral buffers will be    131072 words long.
 Raffenetti 2 integral format.
 Two-electron integral symmetry is turned off.
 Using the following non-standard input for PCM:
 PDENS=7.0
 --- end of non-standard input.
 ------------------------------------------------------------------------------
 Polarizable Continuum Model (PCM)
 =================================
 Model                : PCM.
 Atomic radii         : UFF (Universal Force Field).
 Polarization charges : Total charges.
 Charge compensation  : None.
 Solution method      : On-the-fly selection.
 Cavity type          : Scaled VdW (van der Waals Surface) (Alpha=1.100).
 Cavity algorithm     : GePol (No added spheres)
                        Default sphere list used, NSphG=   19.
                        Lebedev-Laikov grids with approx.  7.0 points / Ang**2.
                        Smoothing algorithm: York/Karplus (Gamma=1.0000).
                        Polarization charges: spherical gaussians, with
                                              point-specific exponents (IZeta= 3).
                        Self-potential: point-specific (ISelfS= 7).
                        Self-field    : sphere-specific E.n sum rule (ISelfD= 2).
 1st derivatives      : Analytical E(r).r(x)/FMM algorithm (CHGder, D1EAlg=3).
                        Cavity 1st derivative terms included.
 Solvent              : 1,2-EthaneDiol, Eps=  40.245000 Eps(inf)=   2.050051
 ------------------------------------------------------------------------------
 Spheres list:
 ISph  on   Nord     Re0    Alpha      Xe            Ye            Ze
    1   H      1    1.4430  1.100     -2.134000      0.431000     -2.204000
    2   H      2    1.4430  1.100     -1.363000     -3.558000      1.850000
    3   C      3    1.9255  1.100     -1.662000      0.489000     -1.234000
    4   H      4    1.4430  1.100     -2.006000     -1.573000     -0.759000
    5   C      5    1.9255  1.100     -0.429000      0.671000      1.267000
    6   C      6    1.9255  1.100     -0.976000     -0.532000      0.820000
    7   C      7    1.9255  1.100     -1.594000     -0.631000     -0.426000
    8   C      8    1.9255  1.100     -1.119000      1.692000     -0.791000
    9   C      9    1.9255  1.100     -0.505000      1.785000      0.454000
   10   C     10    1.9255  1.100     -0.878000     -1.714000      1.660000
   11   H     11    1.4430  1.100      0.046000      0.731000      2.236000
   12   O     12    1.7500  1.100     -1.485000     -2.775000      1.286000
   13   O     13    1.7500  1.100     -0.240000     -1.612000      2.763000
   14   H     14    1.4430  1.100     -0.197000     -2.416000      3.309000
   15   C     15    1.9255  1.100     -1.174000      2.927000     -1.634000
   16   O     16    1.7500  1.100     -1.780000      2.727000     -2.803000
   17   H     17    1.4430  1.100     -1.783000      3.562000     -3.297000
   18   O     18    1.7500  1.100     -0.719000      3.986000     -1.292000
   19   H     19    1.4430  1.100     -0.092000      2.732000      0.772000
 ------------------------------------------------------------------------------
 One-electron integrals computed using PRISM.
   1 Symmetry operations used in ECPInt.
 ECPInt:  NShTT=   12880 NPrTT=   40188 LenC2=   11813 LenP2D=   27953.
 LDataN:  DoStor=T MaxTD1= 6 Len=  172
 NBasis=   414 RedAO= T EigKep=  7.44D-06  NBF=   414
 NBsUse=   414 1.00D-06 EigRej= -1.00D+00 NBFU=   414
 ExpMin= 9.52D-02 ExpMax= 2.70D+04 ExpMxC= 9.22D+02 IAcc=3 IRadAn=         5 AccDes= 0.00D+00
 Harris functional with IExCor= 1009 and IRadAn=       5 diagonalized for initial guess.
 HarFok:  IExCor= 1009 AccDes= 0.00D+00 IRadAn=         5 IDoV= 1 UseB2=F ITyADJ=14
 ICtDFT=  3500011 ScaDFX=  1.000000  1.000000  1.000000  1.000000
 FoFCou: FMM=F IPFlag=           0 FMFlag=      100000 FMFlg1=           0
         NFxFlg=           0 DoJE=T BraDBF=F KetDBF=T FulRan=T
         wScrn=  0.000000 ICntrl=       500 IOpCl=  0 I1Cent=   200000004 NGrid=           0
         NMat0=    1 NMatS0=      1 NMatT0=    0 NMatD0=    1 NMtDS0=    0 NMtDT0=    0
 Symmetry not used in FoFCou.
 Requested convergence on RMS density matrix=1.00D-08 within  32 cycles.
 Requested convergence on MAX density matrix=1.00D-06.
 Requested convergence on             energy=1.00D-06.
 No special actions if energy rises.
 Inv3:  Mode=1 IEnd=    17179347.
 Iteration    1 A*A^-1 deviation from unit magnitude is 3.00D-15 for    128.
 Iteration    1 A*A^-1 deviation from orthogonality  is 1.89D-15 for   2299   1830.
 Iteration    1 A^-1*A deviation from unit magnitude is 2.78D-15 for   1689.
 Iteration    1 A^-1*A deviation from orthogonality  is 2.27D-15 for    959    374.
 Error on total polarization charges =  0.00853
 SCF Done:  E(RM062X) =  -609.816901911     A.U. after   12 cycles
            NFock= 12  Conv=0.97D-08     -V/T= 2.0045
 QCSCF skips out because SCF is already converged.

 **********************************************************************

            Population analysis using the SCF Density.

 **********************************************************************

 Alpha  occ. eigenvalues --  -19.76662 -19.76646 -19.69299 -19.64199 -10.79033
 Alpha  occ. eigenvalues --  -10.70348 -10.61045 -10.59975 -10.59370 -10.59330
 Alpha  occ. eigenvalues --  -10.58331 -10.58205  -1.35871  -1.27257  -1.26343
 Alpha  occ. eigenvalues --   -1.16752  -1.02277  -0.94385  -0.89337  -0.85835
 Alpha  occ. eigenvalues --   -0.79417  -0.77721  -0.73258  -0.70940  -0.67909
 Alpha  occ. eigenvalues --   -0.64179  -0.63418  -0.60974  -0.59398  -0.56597
 Alpha  occ. eigenvalues --   -0.56364  -0.55118  -0.54741  -0.52576  -0.51433
 Alpha  occ. eigenvalues --   -0.50785  -0.48487  -0.47409  -0.44614  -0.42414
 Alpha  occ. eigenvalues --   -0.38720  -0.36526  -0.35214
 Alpha virt. eigenvalues --   -0.10049  -0.01517  -0.00081   0.02399   0.06974
 Alpha virt. eigenvalues --    0.08224   0.08504   0.09170   0.10737   0.11591
 Alpha virt. eigenvalues --    0.12721   0.14711   0.15604   0.17162   0.18253
 Alpha virt. eigenvalues --    0.19362   0.20772   0.23449   0.23511   0.23791
 Alpha virt. eigenvalues --    0.24079   0.24268   0.25897   0.26058   0.26938
 Alpha virt. eigenvalues --    0.27382   0.27588   0.28325   0.29073   0.31316
 Alpha virt. eigenvalues --    0.33174   0.34371   0.35450   0.35755   0.36000
 Alpha virt. eigenvalues --    0.36835   0.37200   0.37772   0.40249   0.40560
 Alpha virt. eigenvalues --    0.41271   0.42324   0.42890   0.43530   0.45118
 Alpha virt. eigenvalues --    0.46282   0.46908   0.47235   0.48279   0.48696
 Alpha virt. eigenvalues --    0.49596   0.51070   0.51220   0.52202   0.52333
 Alpha virt. eigenvalues --    0.53231   0.54577   0.56520   0.58790   0.59444
 Alpha virt. eigenvalues --    0.60641   0.63681   0.63792   0.64299   0.64531
 Alpha virt. eigenvalues --    0.68466   0.69784   0.70276   0.70563   0.70652
 Alpha virt. eigenvalues --    0.72432   0.73755   0.74493   0.75581   0.75965
 Alpha virt. eigenvalues --    0.77287   0.78358   0.79417   0.80568   0.81611
 Alpha virt. eigenvalues --    0.83222   0.85931   0.88471   0.89064   0.89307
 Alpha virt. eigenvalues --    0.90825   0.91265   0.92671   0.93813   0.95922
 Alpha virt. eigenvalues --    0.96905   0.97753   0.98606   0.99810   1.03958
 Alpha virt. eigenvalues --    1.05826   1.07429   1.10589   1.12644   1.13902
 Alpha virt. eigenvalues --    1.15132   1.15783   1.21384   1.21904   1.22684
 Alpha virt. eigenvalues --    1.23392   1.24860   1.27379   1.28649   1.30766
 Alpha virt. eigenvalues --    1.32209   1.32753   1.35091   1.36876   1.38242
 Alpha virt. eigenvalues --    1.38725   1.39407   1.41733   1.42723   1.46808
 Alpha virt. eigenvalues --    1.47817   1.51269   1.51417   1.51825   1.52475
 Alpha virt. eigenvalues --    1.56698   1.58823   1.59310   1.59499   1.60009
 Alpha virt. eigenvalues --    1.61221   1.61882   1.64941   1.68449   1.70289
 Alpha virt. eigenvalues --    1.70633   1.71384   1.72540   1.75365   1.76520
 Alpha virt. eigenvalues --    1.79380   1.82311   1.82745   1.84993   1.85705
 Alpha virt. eigenvalues --    1.86972   1.87693   1.89520   1.89746   1.90950
 Alpha virt. eigenvalues --    1.91437   1.94225   1.96439   1.99682   2.00898
 Alpha virt. eigenvalues --    2.01856   2.03034   2.04648   2.06894   2.07462
 Alpha virt. eigenvalues --    2.09312   2.12847   2.12975   2.13548   2.15393
 Alpha virt. eigenvalues --    2.17650   2.19265   2.20932   2.21784   2.23539
 Alpha virt. eigenvalues --    2.24827   2.29947   2.30982   2.32591   2.33022
 Alpha virt. eigenvalues --    2.33902   2.35230   2.38015   2.41211   2.42250
 Alpha virt. eigenvalues --    2.46847   2.50576   2.52667   2.56131   2.58613
 Alpha virt. eigenvalues --    2.60253   2.60734   2.61787   2.63473   2.66120
 Alpha virt. eigenvalues --    2.66487   2.67094   2.67832   2.68729   2.69992
 Alpha virt. eigenvalues --    2.70544   2.71442   2.72049   2.75427   2.76691
 Alpha virt. eigenvalues --    2.79724   2.80053   2.80971   2.81360   2.83019
 Alpha virt. eigenvalues --    2.84756   2.86646   2.88152   2.88709   2.88954
 Alpha virt. eigenvalues --    2.89942   2.90224   2.90636   2.91910   2.94646
 Alpha virt. eigenvalues --    2.94955   2.98253   2.98717   3.00264   3.01898
 Alpha virt. eigenvalues --    3.03938   3.06006   3.09489   3.10421   3.11023
 Alpha virt. eigenvalues --    3.11329   3.12305   3.12754   3.15716   3.16248
 Alpha virt. eigenvalues --    3.18019   3.19214   3.20520   3.21446   3.23885
 Alpha virt. eigenvalues --    3.24219   3.24772   3.25115   3.27308   3.27658
 Alpha virt. eigenvalues --    3.28637   3.32109   3.33548   3.35042   3.35627
 Alpha virt. eigenvalues --    3.36205   3.36932   3.37946   3.38164   3.40633
 Alpha virt. eigenvalues --    3.43418   3.44278   3.46464   3.49766   3.49888
 Alpha virt. eigenvalues --    3.51455   3.53408   3.53814   3.54504   3.58911
 Alpha virt. eigenvalues --    3.61030   3.62594   3.64719   3.65880   3.74785
 Alpha virt. eigenvalues --    3.77869   3.79625   3.81228   3.83358   3.83852
 Alpha virt. eigenvalues --    3.87186   3.91633   3.96764   3.98229   3.99417
 Alpha virt. eigenvalues --    4.01625   4.02902   4.05454   4.12111   4.12992
 Alpha virt. eigenvalues --    4.13854   4.14951   4.16744   4.17473   4.18556
 Alpha virt. eigenvalues --    4.23459   4.25462   4.30013   4.33702   4.37170
 Alpha virt. eigenvalues --    4.41067   4.48279   4.50784   4.54324   4.56960
 Alpha virt. eigenvalues --    4.58140   4.58357   4.61557   4.64409   4.77560
 Alpha virt. eigenvalues --    4.86604   4.86975   4.88844   4.92346   4.95893
 Alpha virt. eigenvalues --    5.05963   5.08488   5.13786   5.14249   5.20937
 Alpha virt. eigenvalues --    5.21160   5.21902   5.22637   5.32429   5.35325
 Alpha virt. eigenvalues --    5.36596   5.38012   5.38768   5.40210   5.42928
 Alpha virt. eigenvalues --    5.45181   5.49519   5.55730   5.65545   5.67994
 Alpha virt. eigenvalues --    5.82284   5.86514   5.89754   5.91216   5.93044
 Alpha virt. eigenvalues --    5.95538   5.98201   6.14001   6.22792   6.25535
 Alpha virt. eigenvalues --    6.29266   6.29620   6.31508   6.37208   6.38094
 Alpha virt. eigenvalues --    6.42669   6.49921   6.52240   6.61259   6.68185
 Alpha virt. eigenvalues --    6.68461   6.70146   6.71343   6.75784   6.79512
 Alpha virt. eigenvalues --    6.80951   6.91686   6.92330   6.95466   7.08437
 Alpha virt. eigenvalues --    7.15631   7.26267   7.31665   7.38924  22.30601
 Alpha virt. eigenvalues --   22.78077  22.80432  22.84458  22.97115  23.33622
 Alpha virt. eigenvalues --   23.45895  23.61525  43.91249  43.93658  43.97673
 Alpha virt. eigenvalues --   44.06264
          Condensed to atoms (all electrons):
               1          2          3          4          5          6
     1  H    0.442052  -0.000000   0.410406  -0.002593  -0.000928   0.003943
     2  H   -0.000000   0.293140  -0.000024   0.000073  -0.000556   0.017078
     3  C    0.410406  -0.000024   4.974981  -0.023874  -0.044689  -0.039610
     4  H   -0.002593   0.000073  -0.023874   0.444082   0.005823  -0.021106
     5  C   -0.000928  -0.000556  -0.044689   0.005823   4.943611   0.466520
     6  C    0.003943   0.017078  -0.039610  -0.021106   0.466520   5.019580
     7  C   -0.027966  -0.000855   0.483230   0.410694  -0.024739   0.467957
     8  C   -0.022526   0.000007   0.457662   0.004379  -0.038722  -0.034067
     9  C    0.004828   0.000019  -0.043491  -0.001153   0.487185  -0.041629
    10  C   -0.000322  -0.019608   0.005064  -0.018226  -0.071390   0.341437
    11  H    0.000042  -0.000008  -0.000766  -0.000068   0.413739  -0.020852
    12  O   -0.000041   0.299972  -0.001644   0.002969   0.001628  -0.118512
    13  O    0.000001  -0.003527  -0.000161   0.000055   0.008361  -0.118101
    14  H   -0.000000   0.002840   0.000023  -0.000009  -0.000883   0.016987
    15  C   -0.010275   0.000000  -0.033728   0.000038   0.008365  -0.004450
    16  O    0.008101  -0.000000   0.019403  -0.000065   0.000090  -0.000037
    17  H   -0.000196   0.000000  -0.002410  -0.000001  -0.000016   0.000029
    18  O    0.000136  -0.000000   0.002309   0.000006   0.004810  -0.000553
    19  H   -0.000116  -0.000000   0.005007   0.000050  -0.020719   0.003849
               7          8          9         10         11         12
     1  H   -0.027966  -0.022526   0.004828  -0.000322   0.000042  -0.000041
     2  H   -0.000855   0.000007   0.000019  -0.019608  -0.000008   0.299972
     3  C    0.483230   0.457662  -0.043491   0.005064  -0.000766  -0.001644
     4  H    0.410694   0.004379  -0.001153  -0.018226  -0.000068   0.002969
     5  C   -0.024739  -0.038722   0.487185  -0.071390   0.413739   0.001628
     6  C    0.467957  -0.034067  -0.041629   0.341437  -0.020852  -0.118512
     7  C    4.957251  -0.042426  -0.035190  -0.068797   0.005287   0.008312
     8  C   -0.042426   5.256016   0.431856  -0.004799   0.004350  -0.000004
     9  C   -0.035190   0.431856   5.011180   0.007154  -0.027067  -0.000135
    10  C   -0.068797  -0.004799   0.007154   4.403250  -0.017967   0.493417
    11  H    0.005287   0.004350  -0.027067  -0.017967   0.444121   0.000041
    12  O    0.008312  -0.000004  -0.000135   0.493417   0.000041   7.660623
    13  O    0.001722  -0.000006  -0.001631   0.492668   0.002915  -0.054039
    14  H   -0.000563   0.000002  -0.000011  -0.019599   0.000073  -0.003368
    15  C    0.004774   0.251581  -0.069624  -0.000974  -0.000172  -0.000008
    16  O   -0.000203  -0.167789   0.006835  -0.000016   0.000001   0.000000
    17  H   -0.000081   0.025028  -0.000759   0.000001  -0.000000  -0.000000
    18  O    0.000446  -0.153867   0.026741  -0.000023  -0.000057   0.000000
    19  H   -0.000588  -0.030744   0.407285  -0.000393  -0.002344   0.000002
              13         14         15         16         17         18
     1  H    0.000001  -0.000000  -0.010275   0.008101  -0.000196   0.000136
     2  H   -0.003527   0.002840   0.000000  -0.000000   0.000000  -0.000000
     3  C   -0.000161   0.000023  -0.033728   0.019403  -0.002410   0.002309
     4  H    0.000055  -0.000009   0.000038  -0.000065  -0.000001   0.000006
     5  C    0.008361  -0.000883   0.008365   0.000090  -0.000016   0.004810
     6  C   -0.118101   0.016987  -0.004450  -0.000037   0.000029  -0.000553
     7  C    0.001722  -0.000563   0.004774  -0.000203  -0.000081   0.000446
     8  C   -0.000006   0.000002   0.251581  -0.167789   0.025028  -0.153867
     9  C   -0.001631  -0.000011  -0.069624   0.006835  -0.000759   0.026741
    10  C    0.492668  -0.019599  -0.000974  -0.000016   0.000001  -0.000023
    11  H    0.002915   0.000073  -0.000172   0.000001  -0.000000  -0.000057
    12  O   -0.054039  -0.003368  -0.000008   0.000000  -0.000000   0.000000
    13  O    7.660989   0.300107  -0.000011   0.000000  -0.000000   0.000000
    14  H    0.300107   0.293304   0.000000  -0.000000  -0.000000  -0.000000
    15  C   -0.000011   0.000000   4.405886   0.430764  -0.027732   0.692787
    16  O    0.000000  -0.000000   0.430764   7.898938   0.298644  -0.085155
    17  H   -0.000000  -0.000000  -0.027732   0.298644   0.330458   0.003808
    18  O    0.000000  -0.000000   0.692787  -0.085155   0.003808   7.850721
    19  H   -0.000036   0.000000  -0.013182   0.000698  -0.000064   0.014884
              19
     1  H   -0.000116
     2  H   -0.000000
     3  C    0.005007
     4  H    0.000050
     5  C   -0.020719
     6  C    0.003849
     7  C   -0.000588
     8  C   -0.030744
     9  C    0.407285
    10  C   -0.000393
    11  H   -0.002344
    12  O    0.000002
    13  O   -0.000036
    14  H    0.000000
    15  C   -0.013182
    16  O    0.000698
    17  H   -0.000064
    18  O    0.014884
    19  H    0.444500
 Mulliken charges:
               1
     1  H    0.195452
     2  H    0.411451
     3  C   -0.167687
     4  H    0.198926
     5  C   -0.137491
     6  C    0.061537
     7  C   -0.138263
     8  C    0.064068
     9  C   -0.162393
    10  C    0.479124
    11  H    0.198732
    12  O   -0.289213
    13  O   -0.289306
    14  H    0.411098
    15  C    0.365961
    16  O   -0.410208
    17  H    0.373292
    18  O   -0.356993
    19  H    0.191912
 Sum of Mulliken charges =   1.00000
 Mulliken charges with hydrogens summed into heavy atoms:
               1
     3  C    0.027765
     5  C    0.061241
     6  C    0.061537
     7  C    0.060663
     8  C    0.064068
     9  C    0.029519
    10  C    0.479124
    12  O    0.122239
    13  O    0.121792
    15  C    0.365961
    16  O   -0.036916
    18  O   -0.356993
 Electronic spatial extent (au):  <R**2>=           2930.5305
 Charge=              1.0000 electrons
 Dipole moment (field-independent basis, Debye):
    X=             -4.9593    Y=            -10.5793    Z=              7.5192  Tot=             13.8944
 Quadrupole moment (field-independent basis, Debye-Ang):
   XX=            -59.9097   YY=            -36.2146   ZZ=            -29.7406
   XY=              6.1097   XZ=              0.7373   YZ=            -31.1268
 Traceless Quadrupole moment (field-independent basis, Debye-Ang):
   XX=            -17.9547   YY=              5.7404   ZZ=             12.2144
   XY=              6.1097   XZ=              0.7373   YZ=            -31.1268
 Octapole moment (field-independent basis, Debye-Ang**2):
  XXX=            200.5974  YYY=           -260.9890  ZZZ=             43.8282  XYY=             24.2595
  XXY=            -42.9635  XXZ=             -6.2441  XZZ=             37.0042  YZZ=            -73.6302
  YYZ=             60.1988  XYZ=             36.8152
 Hexadecapole moment (field-independent basis, Debye-Ang**3):
 XXXX=           -607.3039 YYYY=          -1663.2824 ZZZZ=           -704.5411 XXXY=            123.3620
 XXXZ=            -97.5492 YYYX=            180.3119 YYYZ=            139.1272 ZZZX=            -75.8860
 ZZZY=            125.3691 XXYY=           -331.4347 XXZZ=           -232.3389 YYZZ=           -111.7095
 XXYZ=            106.8914 YYXZ=            -20.6198 ZZXY=             17.0415
 N-N= 6.623158714543D+02 E-N=-2.737211528044D+03  KE= 6.070768169649D+02
   1 Symmetry operations used in ECPInt.
 ECPInt:  NShTT=   12880 NPrTT=   40188 LenC2=   11813 LenP2D=   27953.
 LDataN:  DoStor=T MaxTD1= 7 Len=  274
 D1PCM: PCM CHGder 1st derivatives, ID1Alg=3 FixD1E=F DoIter=F DoCFld=F I1PDM=0.
 Calling FoFJK, ICntrl=      2127 FMM=F ISym2X=0 I1Cent= 0 IOpClX= 0 NMat=1 NMatS=1 NMatT=0.
 -------------------------------------------------------------------
 Center     Atomic                   Forces (Hartrees/Bohr)
 Number     Number              X              Y              Z
 -------------------------------------------------------------------
      1        1           0.000131905    0.000017427    0.000234259
      2        1          -0.000701994   -0.000951335    0.000493772
      3        6          -0.000688874   -0.000555518    0.000048690
      4        1          -0.000051817    0.000184647   -0.000041318
      5        6           0.001156122    0.002223128    0.000110096
      6        6           0.002162606   -0.003599478    0.000116078
      7        6          -0.000427666    0.000551835   -0.001734756
      8        6          -0.000215775   -0.001255977    0.000322088
      9        6          -0.000002283   -0.000345960    0.001052244
     10        6          -0.007492845    0.005936115    0.002740604
     11        1          -0.000018585   -0.000084219   -0.000249783
     12        8           0.004160361   -0.000383014   -0.001781101
     13        8           0.002416356   -0.001972502   -0.002025499
     14        1          -0.000376091   -0.000033990    0.001055741
     15        6           0.000319651    0.001155682   -0.000434380
     16        8           0.000020385    0.000291757    0.000052410
     17        1          -0.000000428   -0.000313936    0.000091626
     18        8          -0.000286480   -0.000651578   -0.000086063
     19        1          -0.000104547   -0.000213086    0.000035292
 -------------------------------------------------------------------
 Cartesian Forces:  Max     0.007492845 RMS     0.001726972

 GradGradGradGradGradGradGradGradGradGradGradGradGradGradGradGradGradGrad
 Berny optimization.
 FormGI is forming the generalized inverse of G from B-inverse, IUseBI=4.
 Internal  Forces:  Max     0.002096397 RMS     0.000677825
 Search for a local minimum.
 Step number   1 out of a maximum of   94
 All quantities printed in internal units (Hartrees-Bohrs-Radians)
 Mixed Optimization -- En-DIIS/RFO-DIIS
 Second derivative matrix not updated -- first step.
 ITU=  0
     Eigenvalues ---    0.00815   0.01383   0.01409   0.01779   0.01943
     Eigenvalues ---    0.02172   0.02217   0.02225   0.02250   0.02256
     Eigenvalues ---    0.02273   0.02284   0.02409   0.02593   0.03302
     Eigenvalues ---    0.03302   0.15999   0.16000   0.16000   0.16000
     Eigenvalues ---    0.16000   0.16000   0.16000   0.22000   0.22988
     Eigenvalues ---    0.23999   0.24978   0.24989   0.24995   0.25000
     Eigenvalues ---    0.25000   0.25000   0.32769   0.35877   0.35895
     Eigenvalues ---    0.35905   0.35958   0.37805   0.42596   0.43364
     Eigenvalues ---    0.46681   0.46824   0.47614   0.48755   0.52805
     Eigenvalues ---    0.52837   0.53338   0.59073   0.73598   0.73599
     Eigenvalues ---    1.03687
 RFO step:  Lambda=-8.68275223D-04 EMin= 8.14956366D-03
 Linear search not attempted -- first point.
 Iteration  1 RMS(Cart)=  0.02062310 RMS(Int)=  0.00073268
 Iteration  2 RMS(Cart)=  0.00108062 RMS(Int)=  0.00036014
 Iteration  3 RMS(Cart)=  0.00000086 RMS(Int)=  0.00036014
 Variable       Old X    -DE/DX   Delta X   Delta X   Delta X     New X
                                 (Linear)    (Quad)   (Total)
    R1        2.04147  -0.00027   0.00000  -0.00075  -0.00075   2.04072
    R2        1.83806   0.00096   0.00000   0.00182   0.00182   1.83988
    R3        2.61294  -0.00106   0.00000  -0.00219  -0.00219   2.61076
    R4        2.63094  -0.00009   0.00000  -0.00031  -0.00031   2.63062
    R5        2.04230  -0.00013   0.00000  -0.00036  -0.00036   2.04194
    R6        2.63630   0.00142   0.00000   0.00318   0.00318   2.63949
    R7        2.61011  -0.00118   0.00000  -0.00240  -0.00240   2.60771
    R8        2.04247  -0.00024   0.00000  -0.00066  -0.00066   2.04181
    R9        2.63496   0.00139   0.00000   0.00309   0.00309   2.63805
   R10        2.74650  -0.00197   0.00000  -0.00519  -0.00519   2.74131
   R11        2.62914   0.00055   0.00000   0.00106   0.00106   2.63020
   R12        2.82759   0.00061   0.00000   0.00185   0.00185   2.82944
   R13        2.04274  -0.00022   0.00000  -0.00060  -0.00060   2.04214
   R14        2.41563  -0.00015   0.00000  -0.00020  -0.00020   2.41543
   R15        2.41564   0.00002   0.00000   0.00002   0.00002   2.41566
   R16        1.83837   0.00061   0.00000   0.00114   0.00114   1.83951
   R17        2.51681  -0.00014   0.00000  -0.00024  -0.00024   2.51658
   R18        2.27197  -0.00070   0.00000  -0.00068  -0.00068   2.27130
   R19        1.83339  -0.00032   0.00000  -0.00059  -0.00059   1.83280
    A1        2.09751   0.00013   0.00000   0.00074   0.00073   2.09824
    A2        2.09729   0.00011   0.00000   0.00062   0.00061   2.09790
    A3        2.08839  -0.00025   0.00000  -0.00135  -0.00135   2.08704
    A4        2.07753  -0.00038   0.00000  -0.00139  -0.00139   2.07614
    A5        2.10302   0.00014   0.00000   0.00039   0.00038   2.10340
    A6        2.10264   0.00024   0.00000   0.00100   0.00099   2.10363
    A7        2.11920  -0.00003   0.00000   0.00039   0.00037   2.11958
    A8        2.08252   0.00008   0.00000   0.00018   0.00013   2.08265
    A9        2.08129  -0.00004   0.00000  -0.00029  -0.00034   2.08095
   A10        2.10275  -0.00012   0.00000  -0.00083  -0.00086   2.10189
   A11        2.07884  -0.00003   0.00000   0.00012   0.00011   2.07895
   A12        2.10155   0.00015   0.00000   0.00082   0.00079   2.10234
   A13        2.11136   0.00067   0.00000   0.00232   0.00231   2.11368
   A14        2.11716  -0.00031   0.00000  -0.00105  -0.00105   2.11611
   A15        2.05466  -0.00036   0.00000  -0.00126  -0.00126   2.05340
   A16        2.09105   0.00001   0.00000  -0.00007  -0.00007   2.09097
   A17        2.10877  -0.00010   0.00000  -0.00055  -0.00054   2.10823
   A18        2.08337   0.00009   0.00000   0.00061   0.00062   2.08398
   A19        2.06452  -0.00039   0.00000   0.00011  -0.00179   2.06273
   A20        2.05721   0.00134   0.00000   0.00700   0.00510   2.06231
   A21        2.15998  -0.00080   0.00000  -0.00131  -0.00320   2.15678
   A22        2.02523   0.00115   0.00000   0.00713   0.00713   2.03236
   A23        2.02684   0.00092   0.00000   0.00573   0.00573   2.03257
   A24        1.96848  -0.00008   0.00000  -0.00032  -0.00032   1.96816
   A25        2.15656  -0.00008   0.00000  -0.00033  -0.00034   2.15623
   A26        2.15814   0.00016   0.00000   0.00065   0.00065   2.15879
   A27        1.89556   0.00012   0.00000   0.00077   0.00077   1.89633
    D1        0.00629  -0.00017   0.00000  -0.00739  -0.00739  -0.00110
    D2        3.13808   0.00013   0.00000   0.00550   0.00549  -3.13962
    D3       -3.13531  -0.00014   0.00000  -0.00627  -0.00626  -3.14157
    D4       -0.00353   0.00016   0.00000   0.00662   0.00662   0.00309
    D5       -3.13937  -0.00004   0.00000  -0.00204  -0.00204  -3.14141
    D6        0.00174  -0.00004   0.00000  -0.00168  -0.00168   0.00007
    D7        0.00223  -0.00007   0.00000  -0.00317  -0.00317  -0.00094
    D8       -3.13984  -0.00007   0.00000  -0.00281  -0.00281   3.14054
    D9        0.00084   0.00013   0.00000   0.00464   0.00464   0.00548
   D10        3.12216   0.00046   0.00000   0.02139   0.02139  -3.13963
   D11        3.14077   0.00002   0.00000   0.00044   0.00044   3.14120
   D12       -0.02109   0.00036   0.00000   0.01719   0.01719  -0.00390
   D13       -0.00217  -0.00003   0.00000  -0.00102  -0.00102  -0.00319
   D14        3.14016  -0.00005   0.00000  -0.00178  -0.00178   3.13838
   D15        3.14108   0.00007   0.00000   0.00318   0.00319  -3.13892
   D16        0.00023   0.00006   0.00000   0.00242   0.00242   0.00266
   D17        0.00204  -0.00019   0.00000  -0.00747  -0.00747  -0.00543
   D18        3.13383   0.00011   0.00000   0.00541   0.00541   3.13923
   D19       -3.11930  -0.00053   0.00000  -0.02421  -0.02421   3.13967
   D20        0.01249  -0.00023   0.00000  -0.01134  -0.01133   0.00115
   D21        3.03730   0.00175   0.00000   0.08427   0.08434   3.12164
   D22       -0.04818  -0.00098   0.00000  -0.02583  -0.02590  -0.07408
   D23       -0.12412   0.00208   0.00000   0.10066   0.10072  -0.02339
   D24        3.07359  -0.00065   0.00000  -0.00944  -0.00951   3.06408
   D25        0.00067   0.00000   0.00000   0.00032   0.00032   0.00099
   D26        3.14153   0.00002   0.00000   0.00107   0.00107  -3.14058
   D27       -3.14046   0.00000   0.00000  -0.00003  -0.00003  -3.14049
   D28        0.00040   0.00002   0.00000   0.00072   0.00072   0.00112
   D29       -0.00085   0.00006   0.00000   0.00484   0.00484   0.00399
   D30        3.14127  -0.00001   0.00000   0.00043   0.00043  -3.14148
   D31        3.14028   0.00006   0.00000   0.00519   0.00519  -3.13771
   D32       -0.00078  -0.00001   0.00000   0.00079   0.00079   0.00000
   D33        3.09268  -0.00100   0.00000  -0.04421  -0.04399   3.04869
   D34       -0.10858   0.00198   0.00000   0.07316   0.07295  -0.03563
   D35        3.13219   0.00081   0.00000   0.03940   0.03940  -3.11160
   D36        0.05003  -0.00210   0.00000  -0.07730  -0.07730  -0.02726
   D37        3.14007  -0.00001   0.00000  -0.00152  -0.00152   3.13856
   D38       -0.00205   0.00005   0.00000   0.00290   0.00290   0.00085
         Item               Value     Threshold  Converged?
 Maximum Force            0.002096     0.000450     NO 
 RMS     Force            0.000678     0.000300     NO 
 Maximum Displacement     0.085951     0.001800     NO 
 RMS     Displacement     0.020601     0.001200     NO 
 Predicted change in Energy=-4.507548D-04
 GradGradGradGradGradGradGradGradGradGradGradGradGradGradGradGradGradGrad

                          Input orientation:                          
 ---------------------------------------------------------------------
 Center     Atomic      Atomic             Coordinates (Angstroms)
 Number     Number       Type             X           Y           Z
 ---------------------------------------------------------------------
      1          1           0       -2.145287    0.432550   -2.197374
      2          1           0       -1.317517   -3.572216    1.815838
      3          6           0       -1.668660    0.489588   -1.230023
      4          1           0       -2.024951   -1.566944   -0.748183
      5          6           0       -0.425151    0.674237    1.268395
      6          6           0       -0.981987   -0.527926    0.826055
      7          6           0       -1.601303   -0.628291   -0.421014
      8          6           0       -1.116990    1.689861   -0.790876
      9          6           0       -0.498150    1.784540    0.452224
     10          6           0       -0.911994   -1.699553    1.678551
     11          1           0        0.050384    0.735134    2.236689
     12          8           0       -1.448101   -2.782408    1.261679
     13          8           0       -0.265637   -1.608221    2.777626
     14          1           0       -0.212626   -2.416138    3.318014
     15          6           0       -1.167748    2.923690   -1.637591
     16          8           0       -1.783940    2.725114   -2.801352
     17          1           0       -1.785228    3.558311   -3.297785
     18          8           0       -0.705217    3.980398   -1.299893
     19          1           0       -0.079899    2.730274    0.766019
 ---------------------------------------------------------------------
                    Distance matrix (angstroms):
                    1          2          3          4          5
     1  H    0.000000
     2  H    5.729679   0.000000
     3  C    1.079905   5.089088   0.000000
     4  H    2.472370   3.331033   2.142064   0.000000
     5  C    3.876704   4.373600   2.796874   3.413040   0.000000
     6  C    3.378891   3.218688   2.394642   2.155356   1.396756
     7  C    2.139335   3.708198   1.381552   1.080550   2.435984
     8  C    2.148595   5.875766   1.392065   3.381272   2.398068
     9  C    3.400192   5.587990   2.424242   3.873570   1.379940
    10  C    4.592349   1.920980   3.718156   2.673069   2.457666
    11  H    4.957160   4.538891   3.877305   4.303027   1.080479
    12  O    4.773580   0.973622   4.118639   2.418606   3.604840
    13  O    5.696354   2.426678   4.736088   3.940586   2.740956
    14  H    6.501516   2.194046   5.589984   4.532065   3.714368
    15  C    2.733993   7.358355   2.518308   4.657428   3.749166
    16  O    2.398168   7.822554   2.734948   4.763964   4.755549
    17  H    3.333306   8.787053   3.702200   5.729413   5.569352
    18  O    3.932747   8.192965   3.621996   5.728795   4.195860
    19  H    4.281011   6.508088   3.395441   4.954001   2.144497
                    6          7          8          9         10
     6  C    0.000000
     7  C    1.395997   0.000000
     8  C    2.747958   2.396912   0.000000
     9  C    2.391933   2.793071   1.391842   0.000000
    10  C    1.450640   2.455793   4.198597   3.716725   0.000000
    11  H    2.156617   3.413265   3.382368   2.141601   2.676824
    12  O    2.343015   2.737727   4.931917   4.734410   1.278190
    13  O    2.342824   3.602161   4.933189   4.119755   1.278313
    14  H    3.219802   4.370945   5.878783   5.093130   1.921055
    15  C    4.244728   3.779497   1.497276   2.472520   5.695312
    16  O    4.937963   4.116393   2.357665   3.622665   6.356689
    17  H    5.860766   5.083038   3.197224   4.343432   7.291885
    18  O    4.992118   4.776548   2.382271   2.816840   6.416832
    19  H    3.381307   3.873458   2.140546   1.080655   4.598746
                   11         12         13         14         15
    11  H    0.000000
    12  O    3.945783   0.000000
    13  O    2.425653   2.252783   0.000000
    14  H    3.341999   2.426740   0.973427   0.000000
    15  C    4.613422   6.406553   6.391100   7.347384   0.000000
    16  O    5.718970   6.852285   7.225513   8.145437   1.331715
    17  H    6.478441   7.817102   8.118671   9.051846   1.881560
    18  O    4.859021   7.269737   6.931959   7.904644   1.201918
    19  H    2.482022   5.701520   4.785771   5.745943   2.645404
                   16         17         18         19
    16  O    0.000000
    17  H    0.969878   0.000000
    18  O    2.234672   2.310011   0.000000
    19  H    3.953469   4.484227   2.494359   0.000000
 Symmetry turned off by external request.
 Stoichiometry    C8H7O4(1+)
 Framework group  C1[X(C8H7O4)]
 Deg. of freedom    51
 Full point group                 C1      NOp   1
 Rotational constants (GHZ):           2.9126290           0.4648091           0.4008986
 Standard basis: def2TZVP (5D, 7F)
   414 basis functions,   668 primitive gaussians,   474 cartesian basis functions
    43 alpha electrons       43 beta electrons
       nuclear repulsion energy       662.4097390072 Hartrees.
 NAtoms=   19 NActive=   19 NUniq=   19 SFac= 1.00D+00 NAtFMM=   60 NAOKFM=F Big=F
 Integral buffers will be    131072 words long.
 Raffenetti 2 integral format.
 Two-electron integral symmetry is turned off.
 ------------------------------------------------------------------------------
 Polarizable Continuum Model (PCM)
 =================================
 Model                : PCM.
 Atomic radii         : UFF (Universal Force Field).
 Polarization charges : Total charges.
 Charge compensation  : None.
 Solution method      : On-the-fly selection.
 Cavity type          : Scaled VdW (van der Waals Surface) (Alpha=1.100).
 Cavity algorithm     : GePol (No added spheres)
                        Default sphere list used, NSphG=   19.
                        Lebedev-Laikov grids with approx.  7.0 points / Ang**2.
                        Smoothing algorithm: York/Karplus (Gamma=1.0000).
                        Polarization charges: spherical gaussians, with
                                              point-specific exponents (IZeta= 3).
                        Self-potential: point-specific (ISelfS= 7).
                        Self-field    : sphere-specific E.n sum rule (ISelfD= 2).
 1st derivatives      : Analytical E(r).r(x)/FMM algorithm (CHGder, D1EAlg=3).
                        Cavity 1st derivative terms included.
 Solvent              : 1,2-EthaneDiol, Eps=  40.245000 Eps(inf)=   2.050051
 ------------------------------------------------------------------------------
 Spheres list:
 ISph  on   Nord     Re0    Alpha      Xe            Ye            Ze
    1   H      1    1.4430  1.100     -2.145287      0.432550     -2.197374
    2   H      2    1.4430  1.100     -1.317517     -3.572216      1.815838
    3   C      3    1.9255  1.100     -1.668660      0.489588     -1.230023
    4   H      4    1.4430  1.100     -2.024951     -1.566944     -0.748183
    5   C      5    1.9255  1.100     -0.425151      0.674237      1.268395
    6   C      6    1.9255  1.100     -0.981987     -0.527926      0.826055
    7   C      7    1.9255  1.100     -1.601303     -0.628291     -0.421014
    8   C      8    1.9255  1.100     -1.116990      1.689861     -0.790876
    9   C      9    1.9255  1.100     -0.498150      1.784540      0.452224
   10   C     10    1.9255  1.100     -0.911994     -1.699553      1.678551
   11   H     11    1.4430  1.100      0.050384      0.735134      2.236689
   12   O     12    1.7500  1.100     -1.448101     -2.782408      1.261679
   13   O     13    1.7500  1.100     -0.265637     -1.608221      2.777626
   14   H     14    1.4430  1.100     -0.212626     -2.416138      3.318014
   15   C     15    1.9255  1.100     -1.167748      2.923690     -1.637591
   16   O     16    1.7500  1.100     -1.783940      2.725114     -2.801352
   17   H     17    1.4430  1.100     -1.785228      3.558311     -3.297785
   18   O     18    1.7500  1.100     -0.705217      3.980398     -1.299893
   19   H     19    1.4430  1.100     -0.079899      2.730274      0.766019
 ------------------------------------------------------------------------------
 One-electron integrals computed using PRISM.
   1 Symmetry operations used in ECPInt.
 ECPInt:  NShTT=   12880 NPrTT=   40188 LenC2=   11814 LenP2D=   27956.
 LDataN:  DoStor=T MaxTD1= 6 Len=  172
 NBasis=   414 RedAO= T EigKep=  7.46D-06  NBF=   414
 NBsUse=   414 1.00D-06 EigRej= -1.00D+00 NBFU=   414
 Initial guess from the checkpoint file:  "/dev/shm/tpaegh1ats_ts_ircr_opt_noeg.chk"
 B after Tr=     0.000269    0.001796    0.007006
         Rot=    0.999999    0.000293    0.001413   -0.000361 Ang=   0.17 deg.
 ExpMin= 9.52D-02 ExpMax= 2.70D+04 ExpMxC= 9.22D+02 IAcc=3 IRadAn=         5 AccDes= 0.00D+00
 Harris functional with IExCor= 1009 and IRadAn=       5 diagonalized for initial guess.
 HarFok:  IExCor= 1009 AccDes= 0.00D+00 IRadAn=         5 IDoV= 1 UseB2=F ITyADJ=14
 ICtDFT=  3500011 ScaDFX=  1.000000  1.000000  1.000000  1.000000
 FoFCou: FMM=F IPFlag=           0 FMFlag=      100000 FMFlg1=           0
         NFxFlg=           0 DoJE=T BraDBF=F KetDBF=T FulRan=T
         wScrn=  0.000000 ICntrl=       500 IOpCl=  0 I1Cent=   200000004 NGrid=           0
         NMat0=    1 NMatS0=      1 NMatT0=    0 NMatD0=    1 NMtDS0=    0 NMtDT0=    0
 Symmetry not used in FoFCou.
 Requested convergence on RMS density matrix=1.00D-08 within  32 cycles.
 Requested convergence on MAX density matrix=1.00D-06.
 Requested convergence on             energy=1.00D-06.
 No special actions if energy rises.
 Inv3:  Mode=1 IEnd=    17179347.
 Iteration    1 A*A^-1 deviation from unit magnitude is 3.33D-15 for    973.
 Iteration    1 A*A^-1 deviation from orthogonality  is 2.56D-15 for   1896   1712.
 Iteration    1 A^-1*A deviation from unit magnitude is 3.11D-15 for    479.
 Iteration    1 A^-1*A deviation from orthogonality  is 2.02D-15 for   1992   1620.
 Error on total polarization charges =  0.00856
 SCF Done:  E(RM062X) =  -609.816989300     A.U. after   10 cycles
            NFock= 10  Conv=0.99D-08     -V/T= 2.0045
 QCSCF skips out because SCF is already converged.
   1 Symmetry operations used in ECPInt.
 ECPInt:  NShTT=   12880 NPrTT=   40188 LenC2=   11814 LenP2D=   27956.
 LDataN:  DoStor=T MaxTD1= 7 Len=  274
 D1PCM: PCM CHGder 1st derivatives, ID1Alg=3 FixD1E=F DoIter=F DoCFld=F I1PDM=0.
 Calling FoFJK, ICntrl=      2127 FMM=F ISym2X=0 I1Cent= 0 IOpClX= 0 NMat=1 NMatS=1 NMatT=0.
 -------------------------------------------------------------------
 Center     Atomic                   Forces (Hartrees/Bohr)
 Number     Number              X              Y              Z
 -------------------------------------------------------------------
      1        1           0.000077885    0.000021575   -0.000022986
      2        1          -0.001050635    0.000602796    0.000392457
      3        6           0.000374705   -0.000063715   -0.000155773
      4        1           0.000061392    0.000024504    0.000058251
      5        6          -0.000456756    0.000503705    0.000080755
      6        6          -0.002274047   -0.000071057    0.001560265
      7        6          -0.000863752    0.000361347    0.000278878
      8        6           0.000059426   -0.000291650    0.000073428
      9        6           0.000317983   -0.000064888   -0.000112263
     10        6           0.007196420   -0.001757212   -0.003952548
     11        1          -0.000003367   -0.000137774    0.000035688
     12        8          -0.001147235   -0.000114500    0.000611307
     13        8          -0.001633961    0.000490806    0.000988164
     14        1          -0.000482085    0.000197477    0.000240669
     15        6          -0.000480028    0.000597082    0.000146029
     16        8           0.000161831   -0.000035359    0.000013301
     17        1           0.000017610   -0.000038361   -0.000026279
     18        8           0.000103394   -0.000240660   -0.000127680
     19        1           0.000021220    0.000015883   -0.000081662
 -------------------------------------------------------------------
 Cartesian Forces:  Max     0.007196420 RMS     0.001244074

 GradGradGradGradGradGradGradGradGradGradGradGradGradGradGradGradGradGrad
 Berny optimization.
 Using GEDIIS/GDIIS optimizer.
 FormGI is forming the generalized inverse of G from B-inverse, IUseBI=4.
 Internal  Forces:  Max     0.002679743 RMS     0.000549245
 Search for a local minimum.
 Step number   2 out of a maximum of   94
 All quantities printed in internal units (Hartrees-Bohrs-Radians)
 Mixed Optimization -- En-DIIS/RFO-DIIS
 Swapping is turned off.
 Update second derivatives using D2CorX and points    1    2
 DE= -8.74D-05 DEPred=-4.51D-04 R= 1.94D-01
 Trust test= 1.94D-01 RLast= 1.87D-01 DXMaxT set to 3.00D-01
 ITU=  0  0
     Eigenvalues ---    0.00815   0.01288   0.01412   0.01779   0.01915
     Eigenvalues ---    0.02169   0.02218   0.02224   0.02250   0.02255
     Eigenvalues ---    0.02273   0.02283   0.02593   0.02971   0.03297
     Eigenvalues ---    0.05683   0.15878   0.16000   0.16000   0.16000
     Eigenvalues ---    0.16000   0.16000   0.16012   0.21996   0.22981
     Eigenvalues ---    0.23991   0.24858   0.24984   0.25000   0.25000
     Eigenvalues ---    0.25000   0.25004   0.32731   0.35873   0.35891
     Eigenvalues ---    0.35904   0.35953   0.37493   0.42441   0.43373
     Eigenvalues ---    0.46608   0.46755   0.47609   0.48639   0.52789
     Eigenvalues ---    0.52851   0.53333   0.59072   0.73598   0.73604
     Eigenvalues ---    1.03644
 En-DIIS/RFO-DIIS/Sim-DIIS IScMMF=       -3 using points:     2    1
 RFO step:  Lambda=-4.36809509D-04.
 DidBck=T Rises=F RFO-DIIS coefs:    0.68288    0.31712
 Iteration  1 RMS(Cart)=  0.01347484 RMS(Int)=  0.00020352
 Iteration  2 RMS(Cart)=  0.00031901 RMS(Int)=  0.00002646
 Iteration  3 RMS(Cart)=  0.00000003 RMS(Int)=  0.00002646
 Variable       Old X    -DE/DX   Delta X   Delta X   Delta X     New X
                                 (Linear)    (Quad)   (Total)
    R1        2.04072  -0.00001   0.00024  -0.00036  -0.00013   2.04060
    R2        1.83988  -0.00041  -0.00058   0.00041  -0.00017   1.83971
    R3        2.61076   0.00004   0.00069  -0.00096  -0.00027   2.61048
    R4        2.63062  -0.00007   0.00010  -0.00024  -0.00013   2.63049
    R5        2.04194  -0.00006   0.00011  -0.00026  -0.00015   2.04180
    R6        2.63949   0.00023  -0.00101   0.00173   0.00072   2.64021
    R7        2.60771   0.00002   0.00076  -0.00107  -0.00031   2.60740
    R8        2.04181   0.00002   0.00021  -0.00027  -0.00006   2.04175
    R9        2.63805   0.00005  -0.00098   0.00148   0.00049   2.63854
   R10        2.74131  -0.00040   0.00164  -0.00296  -0.00131   2.74000
   R11        2.63020  -0.00006  -0.00033   0.00041   0.00007   2.63027
   R12        2.82944   0.00024  -0.00059   0.00124   0.00066   2.83010
   R13        2.04214  -0.00000   0.00019  -0.00028  -0.00009   2.04205
   R14        2.41543   0.00018   0.00006   0.00004   0.00010   2.41553
   R15        2.41566   0.00004  -0.00001   0.00004   0.00003   2.41569
   R16        1.83951  -0.00006  -0.00036   0.00046   0.00010   1.83961
   R17        2.51658  -0.00006   0.00007  -0.00016  -0.00009   2.51649
   R18        2.27130  -0.00021   0.00022  -0.00042  -0.00021   2.27109
   R19        1.83280  -0.00002   0.00019  -0.00029  -0.00010   1.83270
    A1        2.09824   0.00002  -0.00023   0.00044   0.00021   2.09845
    A2        2.09790  -0.00006  -0.00019   0.00011  -0.00008   2.09782
    A3        2.08704   0.00004   0.00043  -0.00055  -0.00013   2.08691
    A4        2.07614   0.00010   0.00044  -0.00035   0.00008   2.07622
    A5        2.10340  -0.00019  -0.00012  -0.00045  -0.00057   2.10283
    A6        2.10363   0.00009  -0.00031   0.00081   0.00050   2.10413
    A7        2.11958  -0.00019  -0.00012  -0.00022  -0.00033   2.11924
    A8        2.08265   0.00002  -0.00004   0.00007   0.00004   2.08270
    A9        2.08095   0.00017   0.00011   0.00017   0.00029   2.08125
   A10        2.10189   0.00003   0.00027  -0.00028   0.00000   2.10189
   A11        2.07895   0.00006  -0.00003   0.00020   0.00017   2.07912
   A12        2.10234  -0.00009  -0.00025   0.00007  -0.00017   2.10218
   A13        2.11368   0.00002  -0.00073   0.00107   0.00034   2.11401
   A14        2.11611  -0.00001   0.00033  -0.00048  -0.00015   2.11596
   A15        2.05340  -0.00001   0.00040  -0.00059  -0.00019   2.05321
   A16        2.09097  -0.00004   0.00002  -0.00014  -0.00011   2.09086
   A17        2.10823   0.00009   0.00017   0.00005   0.00023   2.10845
   A18        2.08398  -0.00006  -0.00020   0.00008  -0.00011   2.08387
   A19        2.06273   0.00007   0.00057  -0.00043   0.00025   2.06298
   A20        2.06231   0.00006  -0.00162   0.00270   0.00121   2.06352
   A21        2.15678   0.00003   0.00101  -0.00122  -0.00009   2.15669
   A22        2.03236  -0.00004  -0.00226   0.00313   0.00087   2.03323
   A23        2.03257   0.00001  -0.00182   0.00266   0.00084   2.03341
   A24        1.96816  -0.00009   0.00010  -0.00034  -0.00025   1.96791
   A25        2.15623   0.00003   0.00011  -0.00008   0.00001   2.15624
   A26        2.15879   0.00007  -0.00021   0.00045   0.00023   2.15902
   A27        1.89633   0.00006  -0.00024   0.00054   0.00030   1.89663
    D1       -0.00110   0.00008   0.00234  -0.00155   0.00079  -0.00030
    D2       -3.13962  -0.00015  -0.00174  -0.00112  -0.00286   3.14070
    D3       -3.14157   0.00003   0.00199  -0.00218  -0.00020   3.14141
    D4        0.00309  -0.00020  -0.00210  -0.00176  -0.00386  -0.00076
    D5       -3.14141   0.00003   0.00065  -0.00032   0.00033  -3.14108
    D6        0.00007   0.00004   0.00053   0.00034   0.00087   0.00093
    D7       -0.00094   0.00008   0.00101   0.00032   0.00132   0.00038
    D8        3.14054   0.00009   0.00089   0.00097   0.00186  -3.14078
    D9        0.00548  -0.00023  -0.00147  -0.00360  -0.00507   0.00041
   D10       -3.13963  -0.00017  -0.00678   0.00579  -0.00100  -3.14063
   D11        3.14120  -0.00008  -0.00014  -0.00192  -0.00206   3.13915
   D12       -0.00390  -0.00002  -0.00545   0.00747   0.00201  -0.00189
   D13       -0.00319   0.00010   0.00032   0.00208   0.00240  -0.00079
   D14        3.13838   0.00009   0.00056   0.00126   0.00183   3.14021
   D15       -3.13892  -0.00005  -0.00101   0.00040  -0.00061  -3.13953
   D16        0.00266  -0.00006  -0.00077  -0.00041  -0.00118   0.00147
   D17       -0.00543   0.00028   0.00237   0.00344   0.00581   0.00038
   D18        3.13923   0.00005  -0.00171   0.00387   0.00215   3.14139
   D19        3.13967   0.00022   0.00768  -0.00594   0.00174   3.14141
   D20        0.00115  -0.00001   0.00359  -0.00551  -0.00192  -0.00076
   D21        3.12164  -0.00156  -0.02675   0.00537  -0.02141   3.10023
   D22       -0.07408   0.00164   0.00821   0.02607   0.03432  -0.03976
   D23       -0.02339  -0.00150  -0.03194   0.01455  -0.01743  -0.04082
   D24        3.06408   0.00170   0.00302   0.03525   0.03830   3.10238
   D25        0.00099  -0.00003  -0.00010  -0.00048  -0.00058   0.00041
   D26       -3.14058  -0.00001  -0.00034   0.00032  -0.00002  -3.14060
   D27       -3.14049  -0.00004   0.00001  -0.00111  -0.00110   3.14159
   D28        0.00112  -0.00002  -0.00023  -0.00031  -0.00054   0.00058
   D29        0.00399  -0.00016  -0.00153  -0.00419  -0.00573  -0.00173
   D30       -3.14148   0.00012  -0.00014   0.00440   0.00426  -3.13722
   D31       -3.13771  -0.00015  -0.00165  -0.00356  -0.00520   3.14027
   D32        0.00000   0.00013  -0.00025   0.00503   0.00478   0.00479
   D33        3.04869   0.00268   0.01395   0.03391   0.04779   3.09648
   D34       -0.03563  -0.00071  -0.02313   0.01187  -0.01119  -0.04681
   D35       -3.11160  -0.00217  -0.01249  -0.02750  -0.04000   3.13159
   D36       -0.02726   0.00122   0.02451  -0.00556   0.01896  -0.00831
   D37        3.13856   0.00017   0.00048   0.00528   0.00576  -3.13887
   D38        0.00085  -0.00011  -0.00092  -0.00332  -0.00424  -0.00340
         Item               Value     Threshold  Converged?
 Maximum Force            0.002680     0.000450     NO 
 RMS     Force            0.000549     0.000300     NO 
 Maximum Displacement     0.057673     0.001800     NO 
 RMS     Displacement     0.013471     0.001200     NO 
 Predicted change in Energy=-2.203409D-04
 GradGradGradGradGradGradGradGradGradGradGradGradGradGradGradGradGradGrad

                          Input orientation:                          
 ---------------------------------------------------------------------
 Center     Atomic      Atomic             Coordinates (Angstroms)
 Number     Number       Type             X           Y           Z
 ---------------------------------------------------------------------
      1          1           0       -2.146158    0.433468   -2.197416
      2          1           0       -1.340510   -3.566765    1.828511
      3          6           0       -1.666473    0.489117   -1.231572
      4          1           0       -2.014805   -1.569618   -0.754185
      5          6           0       -0.414779    0.671120    1.263157
      6          6           0       -0.966894   -0.532720    0.818259
      7          6           0       -1.593302   -0.630527   -0.425760
      8          6           0       -1.117634    1.689931   -0.790585
      9          6           0       -0.494431    1.783320    0.450474
     10          6           0       -0.888797   -1.706213    1.666289
     11          1           0        0.064539    0.730211    2.229661
     12          8           0       -1.441217   -2.784254    1.258158
     13          8           0       -0.272947   -1.606078    2.782008
     14          1           0       -0.243145   -2.406567    3.335175
     15          6           0       -1.176810    2.926647   -1.633145
     16          8           0       -1.791010    2.727478   -2.797805
     17          1           0       -1.793644    3.560823   -3.293877
     18          8           0       -0.713326    3.982897   -1.295707
     19          1           0       -0.078655    2.729731    0.765360
 ---------------------------------------------------------------------
                    Distance matrix (angstroms):
                    1          2          3          4          5
     1  H    0.000000
     2  H    5.732278   0.000000
     3  C    1.079837   5.091221   0.000000
     4  H    2.472351   3.333705   2.141873   0.000000
     5  C    3.876818   4.374502   2.797058   3.413306   0.000000
     6  C    3.379124   3.219569   2.394863   2.155425   1.397139
     7  C    2.139276   3.710408   1.381409   1.080472   2.436317
     8  C    2.148426   5.877260   1.391994   3.380961   2.397881
     9  C    3.400240   5.589119   2.424444   3.873621   1.379778
    10  C    4.592103   1.921461   3.717776   2.673060   2.457422
    11  H    4.957242   4.538622   3.877456   4.303048   1.080448
    12  O    4.774061   0.973534   4.118792   2.419477   3.604609
    13  O    5.697661   2.427579   4.737150   3.942089   2.740923
    14  H    6.503601   2.195520   5.591604   4.534549   3.714146
    15  C    2.733858   7.360316   2.518449   4.657381   3.749221
    16  O    2.397724   7.824528   2.734750   4.763559   4.755421
    17  H    3.332693   8.789010   3.701979   5.728906   5.569399
    18  O    3.932497   8.194601   3.622030   5.728657   4.195805
    19  H    4.280822   6.509104   3.395476   4.953998   2.144449
                    6          7          8          9         10
     6  C    0.000000
     7  C    1.396257   0.000000
     8  C    2.747959   2.396639   0.000000
     9  C    2.392181   2.793200   1.391881   0.000000
    10  C    1.449945   2.455625   4.197903   3.716258   0.000000
    11  H    2.156596   3.413401   3.382378   2.141727   2.676266
    12  O    2.342626   2.738110   4.931569   4.734078   1.278245
    13  O    2.343069   3.603445   4.933619   4.119846   1.278330
    14  H    3.220246   4.372856   5.879449   5.093113   1.921599
    15  C    4.245075   3.779515   1.497624   2.472712   5.694964
    16  O    4.938014   4.116052   2.357726   3.622688   6.356079
    17  H    5.860910   5.082681   3.197452   4.343689   7.291342
    18  O    4.992388   4.776489   2.382500   2.816949   6.416400
    19  H    3.381620   3.873533   2.140474   1.080609   4.598435
                   11         12         13         14         15
    11  H    0.000000
    12  O    3.944944   0.000000
    13  O    2.424300   2.252792   0.000000
    14  H    3.340091   2.427349   0.973480   0.000000
    15  C    4.613735   6.406554   6.391881   7.348408   0.000000
    16  O    5.719052   6.852180   7.226240   8.146641   1.331669
    17  H    6.478787   7.816983   8.119469   9.053073   1.881673
    18  O    4.859347   7.269551   6.932412   7.905149   1.201809
    19  H    2.482492   5.701180   4.785799   5.745657   2.645287
                   16         17         18         19
    16  O    0.000000
    17  H    0.969824   0.000000
    18  O    2.234676   2.310393   0.000000
    19  H    3.953266   4.484340   2.494239   0.000000
 Symmetry turned off by external request.
 Stoichiometry    C8H7O4(1+)
 Framework group  C1[X(C8H7O4)]
 Deg. of freedom    51
 Full point group                 C1      NOp   1
 Rotational constants (GHZ):           2.9126175           0.4648036           0.4008693
 Standard basis: def2TZVP (5D, 7F)
   414 basis functions,   668 primitive gaussians,   474 cartesian basis functions
    43 alpha electrons       43 beta electrons
       nuclear repulsion energy       662.4025495130 Hartrees.
 NAtoms=   19 NActive=   19 NUniq=   19 SFac= 1.00D+00 NAtFMM=   60 NAOKFM=F Big=F
 Integral buffers will be    131072 words long.
 Raffenetti 2 integral format.
 Two-electron integral symmetry is turned off.
 ------------------------------------------------------------------------------
 Polarizable Continuum Model (PCM)
 =================================
 Model                : PCM.
 Atomic radii         : UFF (Universal Force Field).
 Polarization charges : Total charges.
 Charge compensation  : None.
 Solution method      : On-the-fly selection.
 Cavity type          : Scaled VdW (van der Waals Surface) (Alpha=1.100).
 Cavity algorithm     : GePol (No added spheres)
                        Default sphere list used, NSphG=   19.
                        Lebedev-Laikov grids with approx.  7.0 points / Ang**2.
                        Smoothing algorithm: York/Karplus (Gamma=1.0000).
                        Polarization charges: spherical gaussians, with
                                              point-specific exponents (IZeta= 3).
                        Self-potential: point-specific (ISelfS= 7).
                        Self-field    : sphere-specific E.n sum rule (ISelfD= 2).
 1st derivatives      : Analytical E(r).r(x)/FMM algorithm (CHGder, D1EAlg=3).
                        Cavity 1st derivative terms included.
 Solvent              : 1,2-EthaneDiol, Eps=  40.245000 Eps(inf)=   2.050051
 ------------------------------------------------------------------------------
 Spheres list:
 ISph  on   Nord     Re0    Alpha      Xe            Ye            Ze
    1   H      1    1.4430  1.100     -2.146158      0.433468     -2.197416
    2   H      2    1.4430  1.100     -1.340510     -3.566765      1.828511
    3   C      3    1.9255  1.100     -1.666473      0.489117     -1.231572
    4   H      4    1.4430  1.100     -2.014805     -1.569618     -0.754185
    5   C      5    1.9255  1.100     -0.414779      0.671120      1.263157
    6   C      6    1.9255  1.100     -0.966894     -0.532720      0.818259
    7   C      7    1.9255  1.100     -1.593302     -0.630527     -0.425760
    8   C      8    1.9255  1.100     -1.117634      1.689931     -0.790585
    9   C      9    1.9255  1.100     -0.494431      1.783320      0.450474
   10   C     10    1.9255  1.100     -0.888797     -1.706213      1.666289
   11   H     11    1.4430  1.100      0.064539      0.730211      2.229661
   12   O     12    1.7500  1.100     -1.441217     -2.784254      1.258158
   13   O     13    1.7500  1.100     -0.272947     -1.606078      2.782008
   14   H     14    1.4430  1.100     -0.243145     -2.406567      3.335175
   15   C     15    1.9255  1.100     -1.176810      2.926647     -1.633145
   16   O     16    1.7500  1.100     -1.791010      2.727478     -2.797805
   17   H     17    1.4430  1.100     -1.793644      3.560823     -3.293877
   18   O     18    1.7500  1.100     -0.713326      3.982897     -1.295707
   19   H     19    1.4430  1.100     -0.078655      2.729731      0.765360
 ------------------------------------------------------------------------------
 One-electron integrals computed using PRISM.
   1 Symmetry operations used in ECPInt.
 ECPInt:  NShTT=   12880 NPrTT=   40188 LenC2=   11814 LenP2D=   27956.
 LDataN:  DoStor=T MaxTD1= 6 Len=  172
 NBasis=   414 RedAO= T EigKep=  7.45D-06  NBF=   414
 NBsUse=   414 1.00D-06 EigRej= -1.00D+00 NBFU=   414
 Initial guess from the checkpoint file:  "/dev/shm/tpaegh1ats_ts_ircr_opt_noeg.chk"
 B after Tr=     0.005439    0.003226   -0.002917
         Rot=    0.999999   -0.000529   -0.000012   -0.001024 Ang=  -0.13 deg.
 ExpMin= 9.52D-02 ExpMax= 2.70D+04 ExpMxC= 9.22D+02 IAcc=3 IRadAn=         5 AccDes= 0.00D+00
 Harris functional with IExCor= 1009 and IRadAn=       5 diagonalized for initial guess.
 HarFok:  IExCor= 1009 AccDes= 0.00D+00 IRadAn=         5 IDoV= 1 UseB2=F ITyADJ=14
 ICtDFT=  3500011 ScaDFX=  1.000000  1.000000  1.000000  1.000000
 FoFCou: FMM=F IPFlag=           0 FMFlag=      100000 FMFlg1=           0
         NFxFlg=           0 DoJE=T BraDBF=F KetDBF=T FulRan=T
         wScrn=  0.000000 ICntrl=       500 IOpCl=  0 I1Cent=   200000004 NGrid=           0
         NMat0=    1 NMatS0=      1 NMatT0=    0 NMatD0=    1 NMtDS0=    0 NMtDT0=    0
 Symmetry not used in FoFCou.
 Requested convergence on RMS density matrix=1.00D-08 within  32 cycles.
 Requested convergence on MAX density matrix=1.00D-06.
 Requested convergence on             energy=1.00D-06.
 No special actions if energy rises.
 Inv3:  Mode=1 IEnd=    17193708.
 Iteration    1 A*A^-1 deviation from unit magnitude is 3.22D-15 for    964.
 Iteration    1 A*A^-1 deviation from orthogonality  is 2.63D-15 for   1050    633.
 Iteration    1 A^-1*A deviation from unit magnitude is 3.44D-15 for    964.
 Iteration    1 A^-1*A deviation from orthogonality  is 2.89D-15 for   2287    516.
 Error on total polarization charges =  0.00853
 SCF Done:  E(RM062X) =  -609.817218321     A.U. after    9 cycles
            NFock=  9  Conv=0.98D-08     -V/T= 2.0045
 QCSCF skips out because SCF is already converged.
   1 Symmetry operations used in ECPInt.
 ECPInt:  NShTT=   12880 NPrTT=   40188 LenC2=   11814 LenP2D=   27956.
 LDataN:  DoStor=T MaxTD1= 7 Len=  274
 D1PCM: PCM CHGder 1st derivatives, ID1Alg=3 FixD1E=F DoIter=F DoCFld=F I1PDM=0.
 Calling FoFJK, ICntrl=      2127 FMM=F ISym2X=0 I1Cent= 0 IOpClX= 0 NMat=1 NMatS=1 NMatT=0.
 -------------------------------------------------------------------
 Center     Atomic                   Forces (Hartrees/Bohr)
 Number     Number              X              Y              Z
 -------------------------------------------------------------------
      1        1          -0.000013018    0.000023945   -0.000026905
      2        1          -0.000596305    0.000478933    0.000197272
      3        6           0.000044806    0.000092467    0.000014289
[...]
 10022,0.00000955,0.00007060,-0.01008337,-0.01510651,-0.00845444,0.1129
 2082,0.29322479,0.00184848,-0.00108496,-0.00013246,0.00033732,0.000352
 74,0.00027318,0.00713907,0.01773586,0.01061425,0.04926848,0.07841612,0
 .08267612,-0.00056237,-0.00000467,0.00054433,0.00100510,-0.00046114,-0
 .00013291,-0.00776410,-0.01382628,0.00587686,0.00376991,-0.00055612,-0
 .00408569,0.28801927,-0.00007379,-0.00110015,0.00000076,-0.00056086,-0
 .00129195,0.00039698,-0.01225055,-0.07694064,0.01539044,-0.00021551,0.
 00188533,0.00184784,0.10656241,0.64144296,0.00057601,0.00015624,0.0003
 0555,-0.00005322,0.00059954,0.00067113,0.00492547,0.01210603,-0.003579
 30,-0.00426869,0.00118914,-0.00362530,0.23127049,-0.06685747,0.6618665
 6,0.00629568,-0.00154866,-0.00220257,0.00361052,-0.00308031,-0.0033317
 3,0.01230783,0.03849015,-0.01561409,-0.00132111,0.00010847,-0.01021033
 ,-0.11362212,-0.06831609,-0.06012475,0.28845129,-0.00146850,-0.0032064
 6,0.00333258,-0.00224113,0.00336111,-0.00304681,0.01512483,0.03206037,
 0.01802788,-0.01176279,0.00317266,-0.02416714,-0.09252589,-0.25123576,
 -0.08282512,0.12915401,0.64754305,-0.00224170,0.00321696,0.00128914,-0
 .00382981,-0.00445584,0.00124158,-0.00230644,0.06585533,-0.03366570,-0
 .00337414,0.00047939,-0.00344246,-0.04597209,-0.03236884,-0.14054852,0
 .21287906,-0.02721143,0.60392628,0.00438013,0.01177845,-0.00754720,-0.
 00046040,0.00049181,-0.00012688,-0.08467022,-0.01985732,-0.02232624,-0
 .09071975,-0.10430321,-0.04249995,-0.00671028,-0.03174128,-0.01434176,
 -0.12228252,-0.01375846,-0.10890317,0.28327680,-0.00082664,0.00505887,
 -0.00194755,0.00026619,0.00050540,-0.00015678,0.01350425,-0.27292017,0
 .14635867,-0.10400530,-0.27924064,-0.07613551,-0.00932506,0.03123181,-
 0.03205999,-0.03820375,-0.12220305,-0.04559337,0.14362495,0.72591325,-
 0.00023664,0.02415841,-0.00977738,0.00000125,0.00032497,-0.00070841,-0
 .04160648,0.07774661,-0.19919955,-0.04258951,-0.07701013,-0.08413312,-
 0.02723809,-0.07840984,-0.00177333,-0.09483549,0.00490349,-0.26501675,
 0.19968452,-0.04007554,0.58210362,-0.00120660,-0.01194043,-0.00370174,
 0.00001027,0.00001170,-0.00009935,-0.11575204,-0.06431117,-0.06159357,
 0.00605410,-0.00086696,-0.00303955,0.01186081,0.04216494,-0.01616482,-
 0.02326474,-0.01507112,-0.01989164,0.01870177,-0.02380030,0.03488916,0
 .29118600,0.00000814,0.00351959,0.00025692,0.00008142,0.00058305,-0.00
 020833,-0.09676066,-0.26883279,-0.08333369,-0.00080283,-0.00186397,0.0
 0398177,0.01894894,0.04524706,0.01742773,-0.01528584,-0.02512038,-0.02
 217342,-0.00023804,-0.05572745,0.03665452,0.12504340,0.64104093,-0.010
 64539,-0.02445564,-0.00386230,-0.00012001,-0.00028108,-0.00003562,-0.0
 4281646,-0.01631048,-0.14671308,-0.00309551,0.00382050,-0.00081580,-0.
 00258558,0.06549432,-0.03549995,-0.01999021,-0.02194509,-0.03763476,0.
 02135427,-0.01194619,0.05936287,0.20708560,-0.02184393,0.59664162,0.00
 449581,-0.00323105,-0.00222490,-0.00059528,-0.00022685,0.00036410,-0.0
 0643516,-0.03214708,-0.01332752,-0.00068278,0.00063723,0.00029868,-0.0
 8419114,-0.02005199,-0.02228213,0.01768326,0.00186926,0.01677288,-0.01
 164182,0.01139550,-0.01665784,-0.12482335,-0.00673097,-0.11138463,0.28
 027066,-0.00331446,-0.00450629,-0.00049353,0.00005587,0.00003883,-0.00
 031193,-0.00899411,0.03684750,-0.03471055,0.00042865,-0.00008664,0.000
 36231,0.01277525,-0.27885884,0.14772757,-0.02105258,-0.05486576,-0.006
 42285,0.01279314,-0.01682376,0.03221779,-0.03897517,-0.13165242,-0.044
 54951,0.14187950,0.73039160,-0.00217939,-0.00033295,0.00215234,0.00014
 205,-0.00092288,0.00022875,-0.02673004,-0.08240198,0.00158661,0.000438
 02,0.00077612,-0.00061633,-0.04140871,0.07972418,-0.19867749,0.0303173
 8,0.04106006,0.04750452,-0.01742822,0.02928179,-0.05984449,-0.09273891
 ,0.02203041,-0.27378578,0.20108286,-0.04500174,0.58437497,0.00036846,0
 .00052114,-0.00039108,-0.00072226,-0.00352358,0.00263508,0.00513255,-0
 .00075567,-0.00683655,-0.00350366,0.00063636,0.00069318,0.00206432,-0.
 00487442,0.01128336,-0.08744256,-0.00024733,-0.01131462,-0.00071093,0.
 01406347,-0.00554267,-0.00215888,-0.00189820,-0.00153367,0.00596756,-0
 .00600443,-0.00195430,0.37897344,-0.00022819,0.00073146,-0.00060931,-0
 .02113766,-0.04860102,-0.01572268,-0.00015681,0.01225398,-0.00227758,-
 0.00044371,-0.00058809,-0.00275612,-0.00491446,-0.04372474,0.01483825,
 -0.00018065,-0.17722632,0.05612316,0.01423091,0.00066445,0.02722179,-0
 .00214192,0.00439665,-0.00751235,-0.00667762,-0.00192294,-0.00767223,0
 .14484338,0.74709378,0.00003977,0.00089015,-0.00002838,0.01353546,0.02
 003975,0.01294233,-0.00717274,-0.00358432,-0.00410932,0.00131452,-0.00
 062079,-0.00087107,0.01132053,0.01431010,0.01252573,-0.01140854,0.0565
 4319,-0.13937450,-0.00567910,0.02771591,-0.02930739,-0.00143358,-0.007
 08675,0.00024698,-0.00152904,-0.00640530,0.00919378,0.23329097,-0.0241
 8868,0.70374674,-0.00077971,0.00025301,0.00035010,0.00013262,-0.000092
 88,-0.00006212,-0.00062143,0.00030438,0.00058529,0.00052430,-0.0000706
 1,-0.00072936,-0.10421307,-0.01178932,-0.12426973,-0.00135578,0.000111
 27,-0.01015797,0.00418272,-0.00329698,-0.00167517,0.00625392,-0.001598
 78,-0.00242227,0.00546373,-0.00104636,-0.00082906,-0.00348919,0.001043
 52,0.00027921,0.09659602,0.00025490,0.00006973,-0.00010377,-0.00005869
 ,-0.00011037,0.00006198,0.00010484,-0.00084371,0.00013581,-0.00071474,
 0.00025442,-0.00111532,-0.01140819,-0.05924718,-0.01319638,-0.01169826
 ,0.00333101,-0.02408590,-0.00296483,-0.00460717,-0.00000793,-0.0015406
 1,-0.00361445,0.00343700,0.01161182,0.00625254,0.02393014,-0.00005743,
 0.00031726,-0.00250533,0.01435825,0.05874321,0.00035009,-0.00010713,-0
 .00023470,-0.00008053,-0.00001231,0.00003799,0.00069521,0.00057785,0.0
 0010890,-0.00035248,0.00022750,0.00003939,-0.12453780,-0.01396606,-0.2
 9033889,-0.00333082,0.00048651,-0.00364341,-0.00184559,-0.00068938,0.0
 0250971,-0.00247503,0.00328899,0.00087190,-0.00811190,-0.00230589,-0.0
 0930865,0.00091734,-0.00040438,-0.00175434,0.13652110,0.01129965,0.302
 31916,0.00006221,-0.00005655,0.00003526,-0.02133603,0.01394788,-0.0276
 3035,-0.00090800,-0.00096004,0.00052927,0.00081549,0.00073499,-0.00030
 579,0.00304335,0.00310847,-0.00059753,0.00834285,-0.01503946,0.0047998
 7,-0.00146279,0.00072900,-0.00470238,-0.00000627,-0.00072624,0.0003232
 1,0.00018668,-0.00033360,0.00191725,-0.13842811,-0.11314110,-0.0685742
 6,0.00008300,0.00036557,0.00002806,0.15176106,0.00006277,-0.00011574,0
 .00023094,0.03330469,-0.29676460,0.24218512,-0.00071287,-0.00191782,-0
 .00101313,0.00012744,-0.00176046,0.00162125,0.00530186,0.00820871,0.00
 750675,-0.02055916,-0.06555550,0.00400277,-0.00492789,-0.00241294,-0.0
 0785790,-0.00087334,-0.00396115,0.00049559,0.00130001,-0.00405821,0.00
 454632,-0.13367708,-0.36401270,-0.09237498,0.00007529,0.00067213,-0.00
 016691,0.15013352,0.74032073,-0.00003151,-0.00001448,-0.00000643,-0.03
 947861,0.20278867,-0.21485712,0.00043963,-0.00138207,0.00079509,0.0000
 6851,0.00296044,-0.00091324,-0.00198235,0.00285117,-0.00338773,0.00819
 150,0.01499183,0.01809263,-0.00131823,0.00309419,-0.00402006,0.0004460
 0,0.00093087,0.00044149,0.00097425,0.00142794,0.00054917,-0.05598395,-
 0.05003325,-0.15425631,0.00016453,0.00031927,0.00013730,0.13126930,-0.
 12189258,0.38155588,-0.00016021,0.00015646,-0.00001927,-0.00282401,0.0
 0566460,0.00030485,0.00002107,0.00242159,-0.00001153,0.00012329,-0.000
 12249,0.00037431,-0.00169574,-0.00488776,-0.00108989,0.00395902,0.0109
 9085,-0.01954862,0.00389817,-0.00058568,0.00335444,-0.00028745,0.00058
 937,-0.00106214,-0.00112665,0.00059807,-0.00078541,-0.15100824,-0.0332
 1918,-0.14503141,0.00087177,-0.00023955,0.00025068,0.00014192,-0.03076
 987,-0.04666944,0.16761393,0.00002925,-0.00052858,0.00024402,0.0026354
 9,0.00662005,-0.00182364,0.00081110,-0.00144123,0.00217021,0.00013529,
 0.00014017,0.00016542,0.00060311,-0.00285238,0.00303531,0.01653896,0.0
 0654862,0.03558170,-0.00285965,-0.00569105,-0.00113846,0.00089664,-0.0
 0026334,0.00204983,0.00039456,0.00135363,-0.00044549,-0.01219118,-0.13
 354832,0.01483043,0.00045462,-0.00238836,0.00273461,-0.03748989,-0.006
 70358,-0.05181057,0.03941128,0.49720772,0.00004691,0.00051255,-0.00037
 199,0.00206727,0.00437950,-0.00285686,0.00092732,0.00527958,-0.0019178
 0,0.00018903,-0.00033299,0.00064549,-0.00433099,-0.00796785,-0.0038711
 8,-0.02290070,0.02431439,-0.04973794,0.00458060,0.00357987,0.00969602,
 -0.00118807,0.00141218,-0.00321885,-0.00060580,-0.00005624,-0.00229860
 ,-0.15749345,-0.02693742,-0.36773438,-0.00013045,0.00140701,-0.0002167
 4,-0.04260511,-0.03821173,-0.02998808,0.22805095,-0.19087123,0.6100643
 6,-0.00006989,0.00005132,0.00002911,-0.00316584,-0.00299672,-0.0021861
 1,-0.00063545,-0.00003141,0.00013542,0.00013192,-0.00004538,-0.0001036
 6,-0.00037663,-0.00004844,0.00033606,0.00362379,-0.00317413,-0.0032505
 8,0.00089763,0.00025938,-0.00073732,0.00005637,-0.00017360,0.00008464,
 0.00018578,0.00001201,0.00014878,-0.00427868,0.02126492,-0.01892176,-0
 .00002013,0.00029467,0.00019997,-0.00222779,0.00133739,0.00390947,-0.0
 1980455,-0.00930752,-0.00675245,0.02566697,0.00000781,0.00002204,-0.00
 005057,-0.00232111,-0.00379472,-0.00180047,0.00030521,0.00060808,-0.00
 015296,-0.00001496,0.00000298,0.00009442,-0.00027714,-0.00066532,-0.00
 048897,-0.00243868,0.00319548,-0.00306105,0.00013393,0.00020943,0.0008
 3171,-0.00015302,0.00013060,-0.00035430,-0.00004983,0.00003426,-0.0000
 7316,0.00329939,0.00790641,0.00109543,0.00015544,0.00016336,0.00012061
 ,-0.00166017,-0.00277812,-0.00451394,0.01047176,-0.35889309,0.22458459
 ,-0.00748242,0.35399014,0.00005515,0.00003043,-0.00000932,-0.00263217,
 -0.00345324,-0.00172298,-0.00001448,-0.00075715,-0.00031263,-0.0001242
 3,0.00002374,-0.00007018,0.00048259,-0.00001965,0.00037755,-0.00369594
 ,-0.00450691,0.00138663,-0.00068084,0.00101909,-0.00073913,0.00005310,
 -0.00038741,0.00040173,0.00018385,0.00005265,0.00047035,-0.00831316,0.
 03660369,-0.03941002,0.00028185,0.00039737,0.00014486,0.00579786,0.001
 65840,0.00605127,-0.01851132,0.18555061,-0.15936908,0.02712845,-0.2163
 6727,0.19289764,-0.00367542,0.00017032,0.00101977,0.00001462,0.0000950
 7,-0.00003139,0.00573415,-0.00811346,0.00880210,-0.00026428,-0.0003939
 6,0.00063909,0.00496241,-0.00031867,-0.00664199,-0.00127425,-0.0019984
 2,-0.00043743,0.00563279,-0.00505288,-0.00356055,-0.09121387,0.0072536
 6,-0.00948978,0.00478219,0.01205350,-0.00641086,-0.00155697,0.00136045
 ,-0.00044056,-0.00031731,0.00068890,-0.00014695,-0.00000675,-0.0007219
 3,0.00000562,0.00035607,-0.00011260,0.00038766,-0.00000352,0.00004871,
 -0.00005807,0.36232125,0.00099969,0.00032905,-0.00053717,-0.00012645,-
 0.00092729,0.00034678,-0.00176650,-0.01987538,0.01000297,0.00023219,0.
 00016334,0.00012954,-0.00344216,0.00062239,-0.00272338,-0.00173762,0.0
 0827170,-0.00868083,-0.00229038,-0.00346655,0.00222039,0.00279936,-0.1
 5870121,0.04643397,0.00695936,0.00712222,0.01288719,0.00101403,-0.0132
 6194,0.00888317,-0.00000156,0.00108123,-0.00087848,0.00163466,0.006256
 20,-0.00028260,-0.00229953,0.00231412,-0.00586269,0.00022946,-0.000606
 71,0.00078976,0.21217646,0.89521305,0.00054339,-0.00227934,-0.00180350
 ,0.00010484,0.00072767,-0.00026012,0.00515024,-0.00299406,0.01608883,0
 .00027387,-0.00117649,0.00079238,-0.00481401,0.00381351,-0.00387757,-0
 .00064870,-0.00920583,0.00352274,-0.00514684,-0.00334136,0.00015871,-0
 .00695028,0.05556887,-0.13483810,-0.00342087,0.02331623,-0.01598884,-0
 .00023435,0.00941181,-0.00774125,0.00025260,0.00054986,-0.00024103,-0.
 00136106,-0.00493782,0.00037099,0.00166201,-0.00146400,0.00439548,-0.0
 0016476,0.00046085,-0.00056374,0.18698320,0.05183190,0.57382960,0.0007
 2533,-0.00004245,0.00027312,-0.00000963,-0.00012810,0.00004188,-0.0006
 6052,-0.00066252,-0.00106756,0.00005115,0.00008344,-0.00009496,-0.0004
 7849,-0.00014763,0.00010488,-0.00005731,0.00121408,-0.00090147,-0.0003
 2464,0.00023930,0.00073823,0.00610936,0.00096755,-0.01249571,0.0012605
 1,0.00106122,-0.00008968,0.00020830,-0.00170643,0.00121448,-0.00004045
 ,0.00014605,-0.00005008,0.00022089,0.00089446,-0.00005057,-0.00030319,
 0.00029131,-0.00075069,0.00002769,-0.00007737,0.00010830,-0.11212962,-
 0.02015600,-0.08674672,0.13160812,0.00067997,-0.00175712,0.00282420,0.
 00002994,0.00021217,-0.00007060,-0.00032169,-0.00535188,0.00243615,-0.
 00002561,-0.00006668,0.00002576,0.00118605,0.00027557,0.00199289,0.000
 59826,-0.00153393,0.00214807,0.00023202,0.00154264,-0.00083610,0.01414
 577,0.00462788,0.03359852,-0.00151094,-0.00603827,0.00094586,-0.000102
 30,0.00287494,-0.00183554,0.00001203,-0.00051855,0.00029387,-0.0003743
 7,-0.00141878,0.00007526,0.00051845,-0.00058849,0.00137513,-0.00005454
 ,0.00013096,-0.00018305,-0.01235594,-0.12416113,0.00807192,0.05815007,
 0.53222032,-0.00014137,0.00135117,-0.00050673,-0.00005963,-0.00038166,
 0.00013725,-0.00126399,0.00169906,-0.00355706,-0.00003169,0.00025317,-
 0.00013811,-0.00067149,-0.00075346,-0.00141783,-0.00053682,0.00342790,
 -0.00306426,0.00074916,-0.00083369,0.00125342,-0.02005577,0.00615646,-
 0.03351569,0.00139032,0.00627280,0.00028941,0.00027313,-0.00513405,0.0
 0368384,0.00002683,0.00056911,-0.00032904,0.00070687,0.00266152,-0.000
 16434,-0.00089924,0.00093692,-0.00236723,0.00010146,-0.00023958,0.0003
 2556,-0.09122526,-0.00822938,-0.25015514,0.16313552,-0.16219853,0.4697
 0446,-0.00003660,0.00027582,0.00024452,-0.00000018,0.00001164,-0.00000
 164,-0.00023248,-0.00044941,0.00009748,0.00003123,-0.00001241,-0.00001
 187,-0.00043648,0.00005236,-0.00001829,-0.00003111,-0.00014653,0.00010
 306,0.00012256,0.00005367,0.00010744,0.00246252,-0.00213407,-0.0041450
 3,0.00038824,0.00050658,-0.00028369,0.00000051,0.00013022,-0.00008043,
 -0.00001524,0.00004982,-0.00001396,-0.00001396,-0.00006512,0.00000316,
 0.00002204,-0.00002604,0.00006765,0.00000935,0.00000416,-0.00001088,0.
 00060362,0.02200506,-0.01752351,-0.02086806,-0.01939144,-0.00289173,0.
 02060441,0.00016465,0.00018359,0.00009702,-0.00000248,-0.00002563,0.00
 000992,-0.00007851,0.00029682,-0.00042228,-0.00000772,0.00001702,-0.00
 000213,0.00008809,0.00007908,-0.00011127,-0.00006323,0.00019031,-0.000
 26428,0.00010212,-0.00004188,0.00026918,-0.00180673,0.00118399,-0.0015
 5254,-0.00007577,0.00036804,-0.00014123,0.00002495,-0.00036214,0.00026
 404,-0.00000241,0.00002651,-0.00003441,0.00004721,0.00017732,-0.000007
 26,-0.00006271,0.00005789,-0.00016191,0.00000409,-0.00001642,0.0000244
 7,0.00385850,0.00994028,0.00419777,0.00016896,-0.38929075,0.21518365,-
 0.00051850,0.38196642,0.00031194,0.00033780,0.00021769,0.00000776,0.00
 003805,-0.00001200,-0.00012410,-0.00121566,0.00029390,-0.00001438,-0.0
 0001179,0.00001696,-0.00005056,-0.00020159,-0.00042189,0.00005885,-0.0
 0044251,0.00034015,0.00007501,0.00017726,0.00011287,-0.00432956,-0.002
 22359,-0.00271131,0.00005514,0.00107819,-0.00013431,-0.00001877,0.0004
 9114,-0.00032448,0.00001629,0.00007598,-0.00003219,-0.00006494,-0.0002
 3985,0.00001410,0.00009222,-0.00009101,0.00023487,-0.00001152,0.000026
 41,-0.00002405,-0.00713961,0.04198402,-0.03603089,-0.01409131,0.174438
 81,-0.14302223,0.01944768,-0.21345989,0.17371892,0.00066670,0.00029402
 ,-0.00011761,0.00002273,0.00006482,-0.00002435,0.00148501,-0.00033558,
 0.00038255,-0.00002534,-0.00008380,0.00009345,-0.00030916,0.00022471,0
 .00106966,0.00013959,-0.00030984,0.00053471,-0.00141314,0.00039825,0.0
 0054717,0.01679625,-0.01402491,-0.00310152,-0.00153319,0.00042398,-0.0
 0282507,0.00016861,0.00089600,-0.00065017,0.00013904,-0.00013755,0.000
 00232,-0.00011886,-0.00035899,0.00003484,0.00014550,-0.00017982,0.0004
 3109,-0.00002093,0.00004489,-0.00004928,-0.17028647,-0.21566494,-0.069
 20037,-0.00563042,-0.04159673,-0.04891574,-0.00270679,-0.00184982,0.00
 589469,0.16182507,0.00004321,0.00069867,0.00002767,0.00008228,0.000544
 94,-0.00017985,0.00325804,-0.00282949,0.00913099,0.00011851,-0.0007775
 4,0.00066882,0.00060124,0.00225910,-0.00055022,-0.00006288,-0.00551228
 ,0.00306460,-0.00091759,-0.00223442,-0.00153786,-0.02269705,-0.0539810
 9,-0.00369192,-0.00221270,-0.00289100,-0.00308866,-0.00054503,0.007088
 85,-0.00515874,0.00000115,-0.00029096,0.00026419,-0.00090646,-0.003595
 70,0.00028253,0.00129092,-0.00126804,0.00332781,-0.00012698,0.00033519
 ,-0.00043906,-0.20939027,-0.60863828,-0.13269309,-0.04006778,-0.011310
 40,-0.06023468,-0.00030704,-0.00476817,-0.00075618,0.27148118,0.687644
 44,0.00003706,0.00058181,0.00037643,-0.00002841,-0.00016833,0.00006440
 ,-0.00165038,0.00171002,-0.00300004,-0.00002253,0.00024157,-0.00023497
 ,0.00083945,-0.00136367,0.00163469,0.00039818,0.00250312,-0.00067103,0
 .00127087,0.00104573,0.00022245,0.00187724,0.01441184,0.01777802,-0.00
 134414,0.00241110,-0.00433456,0.00018744,-0.00206265,0.00182941,-0.000
 07663,-0.00001730,0.00003073,0.00033484,0.00128577,-0.00011791,-0.0004
 0449,0.00034389,-0.00102962,0.00004679,-0.00010406,0.00014118,-0.07273
 839,-0.14570211,-0.14601143,-0.04981356,-0.06344933,-0.03817280,0.0049
 9808,-0.00398106,0.00785105,0.11518692,0.19051221,0.16267188,0.0000154
 1,-0.00061363,-0.00013458,-0.00006882,0.00004381,0.00003453,0.00394553
 ,-0.00066056,-0.00445974,-0.00071606,0.00016823,0.00038911,0.00563442,
 0.00316343,0.00028687,0.00623769,-0.00072070,-0.00295993,-0.00069607,0
 .00056263,0.00005994,-0.00077815,-0.01251834,-0.00395982,-0.08965504,-
 0.10286706,-0.04038301,0.00041573,0.00017833,-0.00007336,-0.00339482,0
 .00094502,0.00198038,-0.00014888,0.00012881,0.00000785,0.00005725,-0.0
 0003490,0.00000921,0.00000393,0.00000340,-0.00000076,-0.00367864,-0.00
 056510,0.00124132,0.00029098,0.00018099,0.00030946,0.00009643,0.000009
 33,-0.00011485,0.00065578,0.00035725,0.00090166,0.08178335,0.00006380,
 0.00021636,0.00015209,0.00000178,0.00000477,-0.00005551,-0.00079024,0.
 00132659,0.00121496,0.00016716,-0.00010373,-0.00014066,-0.00932585,-0.
 01533505,-0.00776666,-0.00066214,-0.00121487,0.00384584,0.00047131,0.0
 0024324,0.00032491,-0.00088399,0.00298850,-0.00088669,-0.10313244,-0.2
 8070449,-0.07510175,-0.00052607,-0.00007960,-0.00081174,0.00112995,0.0
 0070934,-0.00072883,-0.00001343,-0.00057979,0.00021459,0.00007340,-0.0
 0007573,0.00022948,-0.00001210,0.00002546,-0.00003647,0.00075255,-0.00
 167511,0.00014161,-0.00022815,0.00015148,-0.00050672,-0.00003876,0.000
 01771,-0.00000559,0.00071413,-0.00047383,0.00180144,0.11223907,0.29455
 875,-0.00052548,-0.00123942,-0.00011485,0.00006037,0.00002153,0.000009
 57,-0.00435876,0.00153416,-0.00359803,0.00038944,-0.00014651,-0.000064
 73,0.00747601,0.01807914,0.00963777,-0.00301428,0.00375990,-0.00050434
 ,0.00012961,0.00050684,-0.00090005,-0.01068924,-0.02486344,-0.00311337
 ,-0.04023333,-0.07460903,-0.08136086,0.00033606,0.00062086,0.00074265,
 0.00187497,-0.00115126,-0.00010094,0.00009964,0.00050045,-0.00029671,-
 0.00005672,0.00000146,-0.00005786,0.00000801,-0.00000769,0.00002437,0.
 00048340,-0.00261304,-0.00164712,0.00053592,0.00034670,0.00101651,-0.0
 0008806,0.00009220,-0.00008716,0.00070672,0.00105145,0.00097212,0.0468
 6571,0.07811569,0.07944303\\0.00000711,-0.00000295,-0.00000785,-0.0000
 3767,0.00002461,0.00001475,0.00000969,0.00001433,-0.00000471,0.0000106
 9,-0.00000359,-0.00000863,-0.00000402,-0.00003830,0.00000382,-0.000019
 14,0.00005822,-0.00004074,0.00003579,-0.00001632,0.00001730,-0.0000054
 0,0.00002659,-0.00001741,-0.00001615,0.00000837,-0.00000402,-0.0000316
 8,-0.00008503,0.00005579,-0.00001883,0.00001123,0.00000583,0.00008257,
 0.00001974,-0.00001719,0.00001788,-0.00001538,-0.00001466,0.00000235,0
 .00000434,-0.00001859,-0.00000719,-0.00002088,0.00000248,0.00000230,-0
 .00000736,0.00001286,-0.00000004,0.00000557,0.00000106,-0.00001098,0.0
 0001024,0.00001098,-0.00001730,0.00000658,0.00000894\\\@


 CHEMISTRY BEGAN BY SAYING IT WOULD CHANGE THE BASER
 METALS INTO GOLD.  BY NOT DOING THAT IT HAS DONE MUCH
 GREATER THINGS.  --  RALPH WALDO EMERSON
 Job cpu time:       0 days  3 hours 53 minutes  0.3 seconds.
 Elapsed time:       0 days  0 hours  6 minutes 29.6 seconds.
 File lengths (MBytes):  RWF=    370 Int=      0 D2E=      0 Chk=     23 Scr=      1
 Normal termination of Gaussian 16 at Thu Aug 15 17:28:12 2019.
