 Entering Gaussian System, Link 0=g16
 Initial command:
 /nopt/nrel/apps/gaussian/g16B/g16/l1.exe "/dev/shm/Gau-182707.inp" -scrdir="/dev/shm/"
 Default is to use a total of  36 processors:
                               36 via shared-memory
                                1 via Linda
 Entering Link 1 = /nopt/nrel/apps/gaussian/g16B/g16/l1.exe PID=    182708.
  
 Copyright (c) 1988-2017, Gaussian, Inc.  All Rights Reserved.
  
 This is part of the Gaussian(R) 16 program.  It is based on
 the Gaussian(R) 09 system (copyright 2009, Gaussian, Inc.),
 the Gaussian(R) 03 system (copyright 2003, Gaussian, Inc.),
 the Gaussian(R) 98 system (copyright 1998, Gaussian, Inc.),
 the Gaussian(R) 94 system (copyright 1995, Gaussian, Inc.),
 the Gaussian 92(TM) system (copyright 1992, Gaussian, Inc.),
 the Gaussian 90(TM) system (copyright 1990, Gaussian, Inc.),
 the Gaussian 88(TM) system (copyright 1988, Gaussian, Inc.),
 the Gaussian 86(TM) system (copyright 1986, Carnegie Mellon
 University), and the Gaussian 82(TM) system (copyright 1983,
 Carnegie Mellon University). Gaussian is a federally registered
 trademark of Gaussian, Inc.
  
 This software contains proprietary and confidential information,
 including trade secrets, belonging to Gaussian, Inc.
  
 This software is provided under written license and may be
 used, copied, transmitted, or stored only in accord with that
 written license.
  
 The following legend is applicable only to US Government
 contracts under FAR:
  
                    RESTRICTED RIGHTS LEGEND
  
 Use, reproduction and disclosure by the US Government is
 subject to restrictions as set forth in subparagraphs (a)
 and (c) of the Commercial Computer Software - Restricted
 Rights clause in FAR 52.227-19.
  
 Gaussian, Inc.
 340 Quinnipiac St., Bldg. 40, Wallingford CT 06492
  
  
 ---------------------------------------------------------------
 Warning -- This program may not be used in any manner that
 competes with the business of Gaussian, Inc. or will provide
 assistance to any competitor of Gaussian, Inc.  The licensee
 of this program is prohibited from giving any competitor of
 Gaussian, Inc. access to this program.  By using this program,
 the user acknowledges that Gaussian, Inc. is engaged in the
 business of creating and licensing software in the field of
 computational chemistry and represents and warrants to the
 licensee that it is not a competitor of Gaussian, Inc. and that
 it will not use this program in any manner prohibited above.
 ---------------------------------------------------------------
  

 Cite this work as:
 Gaussian 16, Revision B.01,
 M. J. Frisch, G. W. Trucks, H. B. Schlegel, G. E. Scuseria, 
 M. A. Robb, J. R. Cheeseman, G. Scalmani, V. Barone, 
 G. A. Petersson, H. Nakatsuji, X. Li, M. Caricato, A. V. Marenich, 
 J. Bloino, B. G. Janesko, R. Gomperts, B. Mennucci, H. P. Hratchian, 
 J. V. Ortiz, A. F. Izmaylov, J. L. Sonnenberg, D. Williams-Young, 
 F. Ding, F. Lipparini, F. Egidi, J. Goings, B. Peng, A. Petrone, 
 T. Henderson, D. Ranasinghe, V. G. Zakrzewski, J. Gao, N. Rega, 
 G. Zheng, W. Liang, M. Hada, M. Ehara, K. Toyota, R. Fukuda, 
 J. Hasegawa, M. Ishida, T. Nakajima, Y. Honda, O. Kitao, H. Nakai, 
 T. Vreven, K. Throssell, J. A. Montgomery, Jr., J. E. Peralta, 
 F. Ogliaro, M. J. Bearpark, J. J. Heyd, E. N. Brothers, K. N. Kudin, 
 V. N. Staroverov, T. A. Keith, R. Kobayashi, J. Normand, 
 K. Raghavachari, A. P. Rendell, J. C. Burant, S. S. Iyengar, 
 J. Tomasi, M. Cossi, J. M. Millam, M. Klene, C. Adamo, R. Cammi, 
 J. W. Ochterski, R. L. Martin, K. Morokuma, O. Farkas, 
 J. B. Foresman, and D. J. Fox, Gaussian, Inc., Wallingford CT, 2016.
 
 ******************************************
 Gaussian 16:  ES64L-G16RevB.01 20-Dec-2017
                19-Aug-2019 
 ******************************************
 %RWF=/dev/shm/,5GB,/tmp/scratch/1184565/,-1
 %NoSave
 %OldChk=tpainter_tsc.chk
 %Chk=/dev/shm/tpainter_tsc_ts.chk
 Copying data from "tpainter_tsc.chk" to current chk file "/dev/shm/tpainter_tsc_ts.chk"
 IOpt=  2 FromEx=T IUOpen= 4 IOptOp= 5 NList=   0 IFRang= 0 IUIn= 4 IUOut= 2.
 Default route: CacheSize=180224 MaxDisk=256GB
 ----------------------------------------------------------------------
 # m062x/Def2TZVP nosymm scf=(xqc,maxconventionalcycles=400) opt=(TS,Re
 adFC,NoFreeze) freq=NoRaman guess=read geom=allcheck CPHF=Grid=Fine SC
 RF=(Solvent=1,2-EthaneDiol,Read)
 ----------------------------------------------------------------------
 1/4=180224,5=1,10=3,18=20,26=3,29=2007,38=1,40=2/1,3;
 2/4=180224,9=110,12=2,15=1,40=1/2;
 3/4=180224,5=44,7=101,11=2,14=-4,25=1,30=1,70=2203,71=1,72=30,74=-55,116=-2/1,2,3;
 4/4=180224,5=1/1;
 5/4=180224,5=2,8=3,13=1,38=6,53=30,85=400/2,8;
 6/4=180224,7=2,8=2,9=2,10=2,28=1/1;
 7/4=180224,30=1/1,2,3,16;
 1/4=180224,5=1,18=20,26=3/3(2);
 2/4=180224,9=110,15=1/2;
 99/4=180224/99;
 2/4=180224,9=110,15=1/2;
 3/4=180224,5=44,7=101,11=2,14=-2,25=1,30=1,70=2205,71=1,72=30,74=-55/1,2,3;
 4/4=180224,5=5,16=3,69=1/1;
 5/4=180224,5=2,8=3,13=1,38=5,53=30,85=400/2,8;
 7/4=180224,30=1/1,2,3,16;
 1/4=180224,5=1,18=20,26=3/3(-5);
 2/4=180224,9=110,15=1/2;
 6/4=180224,7=2,8=2,9=2,10=2,19=2,28=1/1;
 99/4=180224,9=1/99;
 Structure from the checkpoint file:  "/dev/shm/tpainter_tsc_ts.chk"
 -------------------------
 based on tpainter_tsa.log
 -------------------------
 Charge =  1 Multiplicity = 1
 Redundant internal coordinates found in file.  (old form).
 H,0,3.6999235884,16.6905907611,13.8974920986
 C,0,3.3821499344,20.3549123866,12.1666577621
 C,0,4.7313630641,19.8710303715,14.5588226662
 C,0,4.7725140585,18.9464458896,13.5214689623
 C,0,4.101338122,19.1820401127,12.3261462712
 C,0,3.3371604605,21.2823171462,13.2020032732
 C,0,4.0095464649,21.0402658147,14.3945520843
 C,0,5.5327497289,17.6634366571,13.6979539214
 C,0,2.5768349141,22.5632560708,13.0759038945
 H,0,5.2600997253,19.6774092211,15.4808328908
 O,0,4.6569181696,16.4991843805,13.9097358838
 O,0,6.4434685348,17.7502871793,14.6706622587
 O,0,1.9789535147,22.6899386379,11.8949945808
 O,0,2.5129084274,23.3906109148,13.9485503208
 H,0,6.8991018222,18.7159204353,11.6175259715
 C,0,7.1205894219,17.6635773799,11.8012637331
 O,0,8.3411212724,17.4604330076,9.7502942286
 H,0,8.0100684502,17.5729806055,12.4245903629
 H,0,5.0821981506,16.1607017451,12.9499447834
 O,0,6.0018297442,17.0794182082,12.4948579081
 C,0,7.2788246394,16.9088158003,10.493756837
 H,0,9.1774849441,17.1722709645,10.1308332931
 H,0,6.3739208792,17.021064475,9.8970812644
 H,0,7.4292883432,15.8454645837,10.6953626575
 H,0,6.9046360149,16.9075902639,14.8051049347
 H,0,4.1429155791,18.4614183758,11.519368936
 C,0,1.2341897852,23.8954966904,11.6869620018
 C,0,0.6546654041,23.81582508,10.2887377195
 H,0,1.896391106,24.7558586936,11.7865757869
 H,0,0.4483447423,23.9686173294,12.4409952449
 O,0,-0.0557176656,24.9977513595,9.9810147067
 H,0,0.0215839133,22.9292543674,10.1976553329
 H,0,1.4626257227,23.7331555315,9.5621039834
 H,0,-0.8752944944,25.011080304,10.4861026044
 H,0,2.8619998935,20.5499172804,11.2402757617
 H,0,3.9627196866,21.7748394781,15.1864060977
 Recover connectivity data from disk.
 Any frozen variables have been unfrozen.

 GradGradGradGradGradGradGradGradGradGradGradGradGradGradGradGradGradGrad
 Berny optimization.
 Initialization pass.
 Force constant matrix read from checkpoint file:
 "/dev/shm/tpainter_tsc_ts.chk"
                           ----------------------------
                           !    Initial Parameters    !
                           ! (Angstroms and Degrees)  !
 --------------------------                            --------------------------
 ! Name  Definition              Value          Derivative Info.                !
 --------------------------------------------------------------------------------
 ! R1    R(1,11)                 0.976          D2E/DX2 =    0.4935             !
 ! R2    R(2,5)                  1.385          D2E/DX2 =    0.4121             !
 ! R3    R(2,6)                  1.3907         D2E/DX2 =    0.4012             !
 ! R4    R(2,35)                 1.0802         D2E/DX2 =    0.3718             !
 ! R5    R(3,4)                  1.3902         D2E/DX2 =    0.402              !
 ! R6    R(3,7)                  1.3839         D2E/DX2 =    0.4145             !
 ! R7    R(3,10)                 1.0803         D2E/DX2 =    0.3713             !
 ! R8    R(4,5)                  1.391          D2E/DX2 =    0.4042             !
 ! R9    R(4,8)                  1.5017         D2E/DX2 =    0.3255             !
 ! R10   R(5,26)                 1.0825         D2E/DX2 =    0.3663             !
 ! R11   R(6,7)                  1.3903         D2E/DX2 =    0.4018             !
 ! R12   R(6,9)                  1.4949         D2E/DX2 =    0.3197             !
 ! R13   R(7,36)                 1.0811         D2E/DX2 =    0.3694             !
 ! R14   R(8,11)                 1.4722         D2E/DX2 =    0.187              !
 ! R15   R(8,12)                 1.3353         D2E/DX2 =    0.4629             !
 ! R16   R(8,20)                 1.4172         D2E/DX2 =    0.3394             !
 ! R17   R(9,13)                 1.3297         D2E/DX2 =    0.4459             !
 ! R18   R(9,14)                 1.2042         D2E/DX2 =    0.8555             !
 ! R19   R(11,19)                1.103          D2E/DX2 =    0.1773             !
 ! R20   R(12,25)                0.97           D2E/DX2 =    0.5111             !
 ! R21   R(13,27)                1.4322         D2E/DX2 =    0.3317             !
 ! R22   R(15,16)                1.091          D2E/DX2 =    0.3436             !
 ! R23   R(16,18)                1.0899         D2E/DX2 =    0.3449             !
 ! R24   R(16,20)                1.4401         D2E/DX2 =    0.3143             !
 ! R25   R(16,21)                1.518          D2E/DX2 =    0.2953             !
 ! R26   R(17,21)                1.4091         D2E/DX2 =    0.3817             !
 ! R27   R(17,22)                0.963          D2E/DX2 =    0.5351             !
 ! R28   R(19,20)                1.3773         D2E/DX2 =    0.0356             !
 ! R29   R(21,23)                1.0897         D2E/DX2 =    0.3454             !
 ! R30   R(21,24)                1.0927         D2E/DX2 =    0.3369             !
 ! R31   R(27,28)                1.5157         D2E/DX2 =    0.2988             !
 ! R32   R(27,29)                1.0903         D2E/DX2 =    0.3436             !
 ! R33   R(27,30)                1.0915         D2E/DX2 =    0.3413             !
 ! R34   R(28,31)                1.4129         D2E/DX2 =    0.3736             !
 ! R35   R(28,32)                1.0932         D2E/DX2 =    0.3353             !
 ! R36   R(28,33)                1.0898         D2E/DX2 =    0.3449             !
 ! R37   R(31,34)                0.9628         D2E/DX2 =    0.536              !
 ! A1    A(5,2,6)              119.7215         D2E/DX2 =    0.0823             !
 ! A2    A(5,2,35)             120.1114         D2E/DX2 =    0.0813             !
 ! A3    A(6,2,35)             120.1666         D2E/DX2 =    0.0809             !
 ! A4    A(4,3,7)              119.2607         D2E/DX2 =    0.0824             !
 ! A5    A(4,3,10)             120.2083         D2E/DX2 =    0.082              !
 ! A6    A(7,3,10)             120.5308         D2E/DX2 =    0.082              !
 ! A7    A(3,4,5)              120.9512         D2E/DX2 =    0.0896             !
 ! A8    A(3,4,8)              119.7026         D2E/DX2 =    0.1565             !
 ! A9    A(5,4,8)              119.3385         D2E/DX2 =    0.1601             !
 ! A10   A(2,5,4)              119.5342         D2E/DX2 =    0.0828             !
 ! A11   A(2,5,26)             119.8566         D2E/DX2 =    0.0857             !
 ! A12   A(4,5,26)             120.6076         D2E/DX2 =    0.0867             !
 ! A13   A(2,6,7)              120.4542         D2E/DX2 =    0.0881             !
 ! A14   A(2,6,9)              121.6724         D2E/DX2 =    0.1427             !
 ! A15   A(7,6,9)              117.8732         D2E/DX2 =    0.142              !
 ! A16   A(3,7,6)              120.0781         D2E/DX2 =    0.0825             !
 ! A17   A(3,7,36)             120.6452         D2E/DX2 =    0.0802             !
 ! A18   A(6,7,36)             119.2766         D2E/DX2 =    0.0805             !
 ! A19   A(4,8,11)             113.0401         D2E/DX2 =    0.0741             !
 ! A20   A(4,8,12)             112.0429         D2E/DX2 =    0.0744             !
 ! A21   A(4,8,20)             114.8254         D2E/DX2 =    0.063              !
 ! A22   A(11,8,12)            110.6332         D2E/DX2 =    0.0688             !
 ! A23   A(11,8,20)             89.6069         D2E/DX2 =    0.0745             !
 ! A24   A(12,8,20)            114.7993         D2E/DX2 =    0.0582             !
 ! A25   A(6,9,13)             112.6586         D2E/DX2 =    0.2021             !
 ! A26   A(6,9,14)             123.6818         D2E/DX2 =    0.1803             !
 ! A27   A(13,9,14)            123.6596         D2E/DX2 =    0.2224             !
 ! A28   A(1,11,8)             115.2404         D2E/DX2 =    0.1386             !
 ! A29   A(1,11,19)            115.2969         D2E/DX2 =    0.0323             !
 ! A30   A(8,11,19)             83.5769         D2E/DX2 =    0.1557             !
 ! A31   A(8,12,25)            111.6362         D2E/DX2 =    0.1763             !
 ! A32   A(9,13,27)            116.2957         D2E/DX2 =    0.2961             !
 ! A33   A(15,16,18)           110.0096         D2E/DX2 =    0.0297             !
 ! A34   A(15,16,20)           108.3406         D2E/DX2 =    0.0596             !
 ! A35   A(15,16,21)           110.8365         D2E/DX2 =    0.066              !
 ! A36   A(18,16,20)           108.9552         D2E/DX2 =    0.0642             !
 ! A37   A(18,16,21)           111.4818         D2E/DX2 =    0.069              !
 ! A38   A(20,16,21)           107.1058         D2E/DX2 =    0.1566             !
 ! A39   A(21,17,22)           109.2155         D2E/DX2 =    0.1847             !
 ! A40   A(8,20,16)            119.9221         D2E/DX2 =    0.2209             !
 ! A41   A(16,21,17)           109.7798         D2E/DX2 =    0.153              !
 ! A42   A(16,21,23)           109.5028         D2E/DX2 =    0.0748             !
 ! A43   A(16,21,24)           109.8337         D2E/DX2 =    0.0724             !
 ! A44   A(17,21,23)           107.2663         D2E/DX2 =    0.0594             !
 ! A45   A(17,21,24)           111.9932         D2E/DX2 =    0.0637             !
 ! A46   A(23,21,24)           108.3977         D2E/DX2 =    0.0281             !
 ! A47   A(13,27,28)           106.7726         D2E/DX2 =    0.1532             !
 ! A48   A(13,27,29)           109.5805         D2E/DX2 =    0.0587             !
 ! A49   A(13,27,30)           109.294          D2E/DX2 =    0.06               !
 ! A50   A(28,27,29)           110.9778         D2E/DX2 =    0.0657             !
 ! A51   A(28,27,30)           111.4395         D2E/DX2 =    0.0677             !
 ! A52   A(29,27,30)           108.7415         D2E/DX2 =    0.029              !
 ! A53   A(27,28,31)           110.4378         D2E/DX2 =    0.1522             !
 ! A54   A(27,28,32)           109.9327         D2E/DX2 =    0.0721             !
 ! A55   A(27,28,33)           109.61           D2E/DX2 =    0.0717             !
 ! A56   A(31,28,32)           111.6599         D2E/DX2 =    0.0639             !
 ! A57   A(31,28,33)           106.9178         D2E/DX2 =    0.0596             !
 ! A58   A(32,28,33)           108.1963         D2E/DX2 =    0.0282             !
 ! A59   A(28,31,34)           108.9846         D2E/DX2 =    0.1789             !
 ! D1    D(6,2,5,4)             -0.085          D2E/DX2 =    0.0089             !
 ! D2    D(6,2,5,26)          -179.6199         D2E/DX2 =    0.0087             !
 ! D3    D(35,2,5,4)           179.6573         D2E/DX2 =    0.0087             !
 ! D4    D(35,2,5,26)            0.1225         D2E/DX2 =    0.0097             !
 ! D5    D(5,2,6,7)              0.0429         D2E/DX2 =    0.0078             !
 ! D6    D(5,2,6,9)            179.8736         D2E/DX2 =    0.0078             !
 ! D7    D(35,2,6,7)          -179.6993         D2E/DX2 =    0.0074             !
 ! D8    D(35,2,6,9)             0.1313         D2E/DX2 =    0.008              !
 ! D9    D(7,3,4,5)              0.0631         D2E/DX2 =    0.0077             !
 ! D10   D(7,3,4,8)           -178.9246         D2E/DX2 =    0.0078             !
 ! D11   D(10,3,4,5)          -179.7775         D2E/DX2 =    0.0071             !
 ! D12   D(10,3,4,8)             1.2348         D2E/DX2 =    0.0076             !
 ! D13   D(4,3,7,6)             -0.1054         D2E/DX2 =    0.0088             !
 ! D14   D(4,3,7,36)          -179.9735         D2E/DX2 =    0.0088             !
 ! D15   D(10,3,7,6)           179.7347         D2E/DX2 =    0.0086             !
 ! D16   D(10,3,7,36)           -0.1334         D2E/DX2 =    0.0097             !
 ! D17   D(3,4,5,2)              0.0324         D2E/DX2 =    0.008              !
 ! D18   D(3,4,5,26)           179.5637         D2E/DX2 =    0.0078             !
 ! D19   D(8,4,5,2)            179.0238         D2E/DX2 =    0.0081             !
 ! D20   D(8,4,5,26)            -1.4449         D2E/DX2 =    0.0079             !
 ! D21   D(3,4,8,11)           105.0145         D2E/DX2 =    0.0208             !
 ! D22   D(3,4,8,12)           -20.812          D2E/DX2 =    0.0146             !
 ! D23   D(3,4,8,20)          -154.1185         D2E/DX2 =    0.0206             !
 ! D24   D(5,4,8,11)           -73.9897         D2E/DX2 =    0.022              !
 ! D25   D(5,4,8,12)           160.1839         D2E/DX2 =    0.015              !
 ! D26   D(5,4,8,20)            26.8774         D2E/DX2 =    0.0212             !
 ! D27   D(2,6,7,3)              0.0534         D2E/DX2 =    0.008              !
 ! D28   D(2,6,7,36)           179.9233         D2E/DX2 =    0.0074             !
 ! D29   D(9,6,7,3)           -179.7835         D2E/DX2 =    0.0079             !
 ! D30   D(9,6,7,36)             0.0863         D2E/DX2 =    0.0082             !
 ! D31   D(2,6,9,13)            -0.0592         D2E/DX2 =    0.0144             !
 ! D32   D(2,6,9,14)           179.9577         D2E/DX2 =    0.0135             !
 ! D33   D(7,6,9,13)           179.7756         D2E/DX2 =    0.0147             !
 ! D34   D(7,6,9,14)            -0.2074         D2E/DX2 =    0.0146             !
 ! D35   D(4,8,11,1)             0.8801         D2E/DX2 =    0.0197             !
 ! D36   D(4,8,11,19)          115.8616         D2E/DX2 =    0.0263             !
 ! D37   D(12,8,11,1)          127.4589         D2E/DX2 =    0.021              !
 ! D38   D(12,8,11,19)        -117.5596         D2E/DX2 =    0.0273             !
 ! D39   D(20,8,11,1)         -116.0782         D2E/DX2 =    0.0257             !
 ! D40   D(20,8,11,19)          -1.0968         D2E/DX2 =    0.0401             !
 ! D41   D(4,8,12,25)          177.5691         D2E/DX2 =    0.0183             !
 ! D42   D(11,8,12,25)          50.4381         D2E/DX2 =    0.0276             !
 ! D43   D(20,8,12,25)         -49.1116         D2E/DX2 =    0.0268             !
 ! D44   D(4,8,20,16)           73.8109         D2E/DX2 =    0.0237             !
 ! D45   D(11,8,20,16)        -170.8446         D2E/DX2 =    0.0288             !
 ! D46   D(12,8,20,16)         -58.1996         D2E/DX2 =    0.0256             !
 ! D47   D(6,9,13,27)         -179.6072         D2E/DX2 =    0.0244             !
 ! D48   D(14,9,13,27)           0.3759         D2E/DX2 =    0.0227             !
 ! D49   D(9,13,27,28)         179.8621         D2E/DX2 =    0.0175             !
 ! D50   D(9,13,27,29)          59.5925         D2E/DX2 =    0.0232             !
 ! D51   D(9,13,27,30)         -59.4748         D2E/DX2 =    0.0233             !
 ! D52   D(15,16,20,8)         -54.4191         D2E/DX2 =    0.0233             !
 ! D53   D(18,16,20,8)          65.2517         D2E/DX2 =    0.0242             !
 ! D54   D(21,16,20,8)        -174.0297         D2E/DX2 =    0.018              !
 ! D55   D(15,16,21,17)         60.4459         D2E/DX2 =    0.0185             !
 ! D56   D(15,16,21,23)        -57.0698         D2E/DX2 =    0.0183             !
 ! D57   D(15,16,21,24)       -175.9958         D2E/DX2 =    0.0164             !
 ! D58   D(18,16,21,17)        -62.4581         D2E/DX2 =    0.0188             !
 ! D59   D(18,16,21,23)       -179.9738         D2E/DX2 =    0.0167             !
 ! D60   D(18,16,21,24)         61.1001         D2E/DX2 =    0.0184             !
 ! D61   D(20,16,21,17)        178.441          D2E/DX2 =    0.0201             !
 ! D62   D(20,16,21,23)         60.9253         D2E/DX2 =    0.0187             !
 ! D63   D(20,16,21,24)        -58.0008         D2E/DX2 =    0.0185             !
 ! D64   D(22,17,21,16)         76.1684         D2E/DX2 =    0.0183             !
 ! D65   D(22,17,21,23)       -164.9301         D2E/DX2 =    0.0255             !
 ! D66   D(22,17,21,24)        -46.1152         D2E/DX2 =    0.0232             !
 ! D67   D(13,27,28,31)       -177.6605         D2E/DX2 =    0.0198             !
 ! D68   D(13,27,28,32)         58.6887         D2E/DX2 =    0.0182             !
 ! D69   D(13,27,28,33)        -60.1161         D2E/DX2 =    0.0182             !
 ! D70   D(29,27,28,31)        -58.2917         D2E/DX2 =    0.0182             !
 ! D71   D(29,27,28,32)        178.0575         D2E/DX2 =    0.016              !
 ! D72   D(29,27,28,33)         59.2527         D2E/DX2 =    0.0181             !
 ! D73   D(30,27,28,31)         63.0575         D2E/DX2 =    0.0183             !
 ! D74   D(30,27,28,32)        -60.5932         D2E/DX2 =    0.0181             !
 ! D75   D(30,27,28,33)       -179.398          D2E/DX2 =    0.0162             !
 ! D76   D(27,28,31,34)        -72.069          D2E/DX2 =    0.017              !
 ! D77   D(32,28,31,34)         50.5774         D2E/DX2 =    0.0228             !
 ! D78   D(33,28,31,34)        168.741          D2E/DX2 =    0.0239             !
 --------------------------------------------------------------------------------
 Trust Radius=3.00D-01 FncErr=1.00D-07 GrdErr=1.00D-06 EigMax=2.50D+02 EigMin=1.00D-04
 Number of steps in this run=    184 maximum allowed number of steps=    216.
 Search for a saddle point of order  1.
 GradGradGradGradGradGradGradGradGradGradGradGradGradGradGradGradGradGrad

                          Input orientation:                          
 ---------------------------------------------------------------------
 Center     Atomic      Atomic             Coordinates (Angstroms)
 Number     Number       Type             X           Y           Z
 ---------------------------------------------------------------------
      1          1           0        3.699924   16.690591   13.897492
      2          6           0        3.382150   20.354912   12.166658
      3          6           0        4.731363   19.871030   14.558823
      4          6           0        4.772514   18.946446   13.521469
      5          6           0        4.101338   19.182040   12.326146
      6          6           0        3.337160   21.282317   13.202003
      7          6           0        4.009546   21.040266   14.394552
      8          6           0        5.532750   17.663437   13.697954
      9          6           0        2.576835   22.563256   13.075904
     10          1           0        5.260100   19.677409   15.480833
     11          8           0        4.656918   16.499184   13.909736
     12          8           0        6.443469   17.750287   14.670662
     13          8           0        1.978954   22.689939   11.894995
     14          8           0        2.512908   23.390611   13.948550
     15          1           0        6.899102   18.715920   11.617526
     16          6           0        7.120589   17.663577   11.801264
     17          8           0        8.341121   17.460433    9.750294
     18          1           0        8.010068   17.572981   12.424590
     19          1           0        5.082198   16.160702   12.949945
     20          8           0        6.001830   17.079418   12.494858
     21          6           0        7.278825   16.908816   10.493757
     22          1           0        9.177485   17.172271   10.130833
     23          1           0        6.373921   17.021064    9.897081
     24          1           0        7.429288   15.845465   10.695363
     25          1           0        6.904636   16.907590   14.805105
     26          1           0        4.142916   18.461418   11.519369
     27          6           0        1.234190   23.895497   11.686962
     28          6           0        0.654665   23.815825   10.288738
     29          1           0        1.896391   24.755859   11.786576
     30          1           0        0.448345   23.968617   12.440995
     31          8           0       -0.055718   24.997751    9.981015
     32          1           0        0.021584   22.929254   10.197655
     33          1           0        1.462626   23.733156    9.562104
     34          1           0       -0.875294   25.011080   10.486103
     35          1           0        2.862000   20.549917   11.240276
     36          1           0        3.962720   21.774839   15.186406
 ---------------------------------------------------------------------
                    Distance matrix (angstroms):
                    1          2          3          4          5
     1  H    0.000000
     2  C    4.064975   0.000000
     3  C    3.408287   2.788722   0.000000
     4  C    2.526010   2.398417   1.390199   0.000000
     5  C    2.972807   1.385026   2.420017   1.390963   0.000000
     6  C    4.658246   1.390699   2.403433   2.760180   2.400470
     7  C    4.388919   2.413887   1.383877   2.393423   2.782037
     8  C    2.084585   3.770144   2.501357   1.501738   2.497389
     9  C    6.035274   2.520326   3.753548   4.254509   3.784028
    10  H    3.723198   3.869039   1.080349   2.147360   3.397082
    11  O    0.976025   4.419275   3.434560   2.480565   3.164513
    12  O    3.041018   4.735587   2.727887   2.354470   3.610020
    13  O    6.554686   2.737720   4.755837   4.946022   4.122591
    14  O    6.804549   3.625767   4.204928   5.003880   4.781984
    15  H    4.419836   3.918774   3.832049   2.863654   2.923507
    16  C    4.128175   4.620901   4.264432   3.180930   3.420104
    17  O    6.271573   6.229624   6.477907   5.400458   5.251162
    18  H    4.639547   5.405858   4.537168   3.683926   4.228113
    19  H    1.757644   4.592941   4.059324   2.860579   3.237236
    20  O    2.723480   4.207054   3.696909   2.459866   2.839252
    21  C    4.943841   5.464271   5.638177   4.427253   4.315278
    22  H    6.665089   6.918070   6.830695   5.835056   5.884372
    23  H    4.823148   5.021575   5.705448   4.405427   3.966712
    24  H    4.987588   6.235315   6.197605   4.966026   4.986727
    25  H    3.337818   5.590469   3.683171   3.217234   4.379137
    26  H    2.997923   2.140810   3.401699   2.154078   1.082550
    27  C    7.929499   4.168882   6.055917   6.354389   5.553897
    28  C    8.547846   4.789955   7.100317   7.149691   6.123933
    29  H    8.529786   4.660501   6.291579   6.710530   6.018337
    30  H    8.103321   4.662761   6.294415   6.714765   6.022364
    31  O    9.922326   6.176724   8.375902   8.512634   7.523513
    32  H    8.132644   4.668791   7.110171   7.034333   5.934348
    33  H    8.567311   4.677692   7.111108   7.038787   5.942675
    34  H   10.089636   6.529165   8.627964   8.825587   7.882280
    35  H    4.759970   1.080170   3.868871   3.380093   2.141533
    36  H    5.251661   3.387054   2.146896   3.380472   3.863018
                    6          7          8          9         10
     6  C    0.000000
     7  C    1.390275   0.000000
     8  C    4.261792   3.769399   0.000000
     9  C    1.494925   2.472043   5.756093   0.000000
    10  H    3.386221   2.145057   2.703531   4.616460   0.000000
    11  O    5.012086   4.612543   1.472215   6.464904   3.596288
    12  O    4.927610   4.101728   1.335333   6.376424   2.402194
    13  O    2.352530   3.618358   6.414503   1.329683   5.718347
    14  O    2.383616   2.821873   6.479411   1.204207   4.866499
    15  H    4.667375   4.632924   2.702373   5.967483   4.305337
    16  C    5.419565   5.273116   2.473594   6.802739   4.588700
    17  O    7.180579   7.290190   4.848936   8.386029   6.873627
    18  H    6.016612   5.648627   2.786888   7.405882   4.618611
    19  H    5.416607   5.200732   1.738024   6.876439   4.336390
    20  O    5.026418   4.823520   1.417234   6.491585   4.026881
    21  C    6.480650   6.555399   3.726273   7.794157   6.050726
    22  H    7.773928   7.736166   5.123445   9.016914   7.088309
    23  H    6.188917   6.478541   3.945484   7.432272   6.282917
    24  H    7.251767   7.236339   3.989666   8.622181   6.503069
    25  H    5.868139   5.062520   1.918113   7.328476   3.291353
    26  H    3.382007   3.864572   2.704560   4.658378   4.291845
    27  C    3.680563   4.815183   7.833280   2.346640   6.956556
    28  C    4.701229   5.984703   8.559810   3.609981   8.080493
    29  H    4.018052   5.007254   8.196275   2.633036   7.124094
    30  H    4.017536   5.007373   8.196732   2.628425   7.127978
    31  O    5.974181   7.188002   9.941769   4.736606   9.317293
    32  H    4.767762   6.089833   8.387722   3.866210   8.119637
    33  H    4.771725   6.090239   8.397181   3.867417   8.117958
    34  H    6.246965   7.409792  10.264837   4.961463   9.541407
    35  H    2.147222   3.392162   4.637333   2.739413   4.949190
    36  H    2.138167   1.081122   4.645871   2.645089   2.483766
                   11         12         13         14         15
    11  O    0.000000
    12  O    2.309985   0.000000
    13  O    7.039610   7.213625   0.000000
    14  O    7.217343   6.912597   2.234534   0.000000
    15  H    3.898145   3.234454   6.330693   6.820931   0.000000
    16  C    3.445452   2.949485   7.190933   7.657707   1.090982
    17  O    5.638999   5.281583   8.510267   9.314528   2.672494
    18  H    3.821297   2.744178   7.927047   8.147763   1.786592
    19  H    1.103011   2.709374   7.305750   7.737574   3.406702
    20  O    2.036501   2.319318   6.929741   7.356422   2.062268
    21  C    4.325633   4.341939   7.967025   8.755754   2.161637
    22  H    5.930318   5.330947   9.239901   9.882272   3.127961
    23  H    4.395663   4.829459   7.446041   8.478970   2.471494
    24  H    4.294832   4.516990   8.831313   9.575137   3.061209
    25  H    2.453715   0.969994   8.134288   7.877215   3.664799
    26  H    3.135030   3.965968   4.764893   5.731909   2.769651
    27  C    8.447558   8.590847   1.432243   2.646661   7.676201
    28  C    9.091913   9.460563   2.366732   4.126512   8.171150
    29  H    8.961082   8.835830   2.070410   2.630234   7.844523
    30  H    8.698374   8.920793   2.067825   2.620923   8.359497
    31  O   10.481862  10.805459   3.623425   4.992202   9.513626
    32  H    8.752809   9.384567   2.601832   4.526451   8.189534
    33  H    9.024176   9.311331   2.607158   4.523421   7.678065
    34  H   10.713497  11.126273   3.939468   5.108266  10.067293
    35  H    5.172638   5.694945   2.405851   3.940324   4.450175
    36  H    5.472142   4.755747   3.950459   2.498991   5.542223
                   16         17         18         19         20
    16  C    0.000000
    17  O    2.395296   0.000000
    18  H    1.089916   2.697058   0.000000
    19  H    2.780853   4.748436   3.292864   0.000000
    20  O    1.440117   3.626305   2.069194   1.377268   0.000000
    21  C    1.517985   1.409075   2.168859   3.379009   2.379964
    22  H    2.694910   0.962991   2.604755   5.073661   3.960053
    23  H    2.143886   2.021007   3.061028   3.424726   2.624938
    24  H    2.150313   2.081518   2.512339   3.269763   2.607386
    25  H    3.105030   5.283960   2.707688   2.705687   2.486328
    26  H    3.095570   4.664389   4.069843   2.867420   2.513377
    27  C    8.573190   9.781063   9.296819   8.730942   8.357153
    28  C    9.052406   9.988120   9.881140   9.235041   8.879094
    29  H    8.808684   9.945060   9.453986   9.240104   8.734073
    30  H    9.202262  10.577914   9.903742   9.093689   8.849020
    31  O   10.421267  11.285890  11.231883  10.644537  10.281697
    32  H    8.983028   9.966085   9.872426   8.888094   8.675313
    33  H    8.594543   9.311078   9.434542   9.051012   8.571910
    34  H   10.938446  11.937169  11.748733  10.949495  10.688367
    35  H    5.175060   6.464188   6.063610   5.207443   4.845294
    36  H    6.191430   8.205840   6.454787   6.146018   5.783544
                   21         22         23         24         25
    21  C    0.000000
    22  H    1.950906   0.000000
    23  H    1.089712   2.817352   0.000000
    24  H    1.092703   2.266120   1.770053   0.000000
    25  H    4.327556   5.204298   4.937938   4.277073   0.000000
    26  H    3.646420   5.379296   3.111884   4.280473   4.564816
    27  C    9.315313  10.522321   8.768029  10.206152   9.524054
    28  C    9.572267  10.807414   8.889997  10.468405  10.352942
    29  H    9.603023  10.642679   9.134851  10.545085   9.787204
    30  H   10.014389  11.301551   9.479053  10.852024   9.855497
    31  O   10.931116  12.104240  10.245723  11.844828  11.711920
    32  H    9.434029  10.815630   8.680394  10.261670  10.240383
    33  H    9.014863  10.143358   8.323773   9.954949  10.182970
    34  H   11.495060  12.752706  10.804556  12.370061  12.035267
    35  H    5.772629   7.247393   5.156604   6.579432   6.505187
    36  H    7.529654   8.598618   7.509276   8.206342   5.700033
                   26         27         28         29         30
    26  H    0.000000
    27  C    6.165872   0.000000
    28  C    6.507842   1.515661   0.000000
    29  H    6.688666   1.090255   2.160802   0.000000
    30  H    6.695408   1.091543   2.167516   1.773373   0.000000
    31  O    7.919514   2.406051   1.412900   2.670073   2.713798
    32  H    6.220439   2.149900   1.093204   3.062034   2.508979
    33  H    6.229450   2.143259   1.089785   2.486433   3.061409
    34  H    8.315536   2.671425   1.951503   3.072232   2.580766
    35  H    2.465860   3.747292   4.055108   4.349803   4.353730
    36  H    4.945543   4.918147   6.252679   4.971422   4.969987
                   31         32         33         34         35
    31  O    0.000000
    32  H    2.081247   0.000000
    33  H    2.019915   1.768271   0.000000
    34  H    0.962807   2.285080   2.820060   0.000000
    35  H    5.466447   3.849190   3.861025   5.868400   0.000000
    36  H    7.323326   6.461645   6.458966   7.481476   4.275975
                   36
    36  H    0.000000
 Symmetry turned off by external request.
 Stoichiometry    C12H17O7(1+)
 Framework group  C1[X(C12H17O7)]
 Deg. of freedom   102
 Full point group                 C1      NOp   1
 Rotational constants (GHZ):           0.6137085           0.1383362           0.1211793
 Standard basis: def2TZVP (5D, 7F)
   691 basis functions,  1105 primitive gaussians,   786 cartesian basis functions
    72 alpha electrons       72 beta electrons
       nuclear repulsion energy      1457.7607707121 Hartrees.
 NAtoms=   36 NActive=   36 NUniq=   36 SFac= 1.00D+00 NAtFMM=   60 NAOKFM=F Big=F
 Integral buffers will be    131072 words long.
 Raffenetti 2 integral format.
 Two-electron integral symmetry is turned off.
 Using the following non-standard input for PCM:
 PDENS=7.0
 --- end of non-standard input.
 ------------------------------------------------------------------------------
 Polarizable Continuum Model (PCM)
 =================================
 Model                : PCM.
 Atomic radii         : UFF (Universal Force Field).
 Polarization charges : Total charges.
 Charge compensation  : None.
 Solution method      : On-the-fly selection.
 Cavity type          : Scaled VdW (van der Waals Surface) (Alpha=1.100).
 Cavity algorithm     : GePol (No added spheres)
                        Default sphere list used, NSphG=   36.
                        Lebedev-Laikov grids with approx.  7.0 points / Ang**2.
                        Smoothing algorithm: York/Karplus (Gamma=1.0000).
                        Polarization charges: spherical gaussians, with
                                              point-specific exponents (IZeta= 3).
                        Self-potential: point-specific (ISelfS= 7).
                        Self-field    : sphere-specific E.n sum rule (ISelfD= 2).
 1st derivatives      : Analytical E(r).r(x)/FMM algorithm (CHGder, D1EAlg=3).
                        Cavity 1st derivative terms included.
 Solvent              : 1,2-EthaneDiol, Eps=  40.245000 Eps(inf)=   2.050051
 ------------------------------------------------------------------------------
 One-electron integrals computed using PRISM.
   1 Symmetry operations used in ECPInt.
 ECPInt:  NShTT=   38503 NPrTT=  116872 LenC2=   31035 LenP2D=   67085.
 LDataN:  DoStor=T MaxTD1= 6 Len=  172
 NBasis=   691 RedAO= T EigKep=  6.59D-06  NBF=   691
 NBsUse=   691 1.00D-06 EigRej= -1.00D+00 NBFU=   691
 Initial guess from the checkpoint file:  "/dev/shm/tpainter_tsc_ts.chk"
 B after Tr=     0.000000    0.000000    0.000000
         Rot=    1.000000    0.000000    0.000000    0.000000 Ang=   0.00 deg.
 Requested convergence on RMS density matrix=1.00D-08 within 400 cycles.
 Requested convergence on MAX density matrix=1.00D-06.
 Requested convergence on             energy=1.00D-06.
 No special actions if energy rises.
 Inv3:  Mode=1 IEnd=    49231803.
 Iteration    1 A*A^-1 deviation from unit magnitude is 3.22D-15 for    492.
 Iteration    1 A*A^-1 deviation from orthogonality  is 1.86D-15 for   3914   3502.
 Iteration    1 A^-1*A deviation from unit magnitude is 3.11D-15 for   1897.
 Iteration    1 A^-1*A deviation from orthogonality  is 4.23D-14 for   3412   3403.
 Error on total polarization charges =  0.01277
 SCF Done:  E(RM062X) =  -993.864599870     A.U. after    1 cycles
            NFock=  1  Conv=0.20D-08     -V/T= 2.0045
 QCSCF skips out because SCF is already converged.

 **********************************************************************

            Population analysis using the SCF Density.

 **********************************************************************

 Alpha  occ. eigenvalues --  -19.77628 -19.72185 -19.70516 -19.69051 -19.64485
 Alpha  occ. eigenvalues --  -19.63790 -19.63479 -10.78293 -10.69368 -10.62288
 Alpha  occ. eigenvalues --  -10.60451 -10.60138 -10.59730 -10.59283 -10.58502
 Alpha  occ. eigenvalues --  -10.58029 -10.57762 -10.57538 -10.57338  -1.35476
 Alpha  occ. eigenvalues --   -1.26011  -1.24136  -1.21541  -1.16779  -1.16588
 Alpha  occ. eigenvalues --   -1.15801  -1.00911  -0.92976  -0.90421  -0.88221
 Alpha  occ. eigenvalues --   -0.87424  -0.82019  -0.79549  -0.75499  -0.74033
 Alpha  occ. eigenvalues --   -0.72560  -0.70917  -0.68089  -0.67583  -0.67273
 Alpha  occ. eigenvalues --   -0.65750  -0.63320  -0.61832  -0.60931  -0.59247
 Alpha  occ. eigenvalues --   -0.58254  -0.57997  -0.56978  -0.55065  -0.54665
 Alpha  occ. eigenvalues --   -0.54074  -0.53414  -0.52497  -0.52308  -0.50937
 Alpha  occ. eigenvalues --   -0.50502  -0.49495  -0.48600  -0.47035  -0.46449
 Alpha  occ. eigenvalues --   -0.45934  -0.45251  -0.43667  -0.43437  -0.41605
 Alpha  occ. eigenvalues --   -0.41250  -0.39288  -0.38145  -0.37876  -0.36884
 Alpha  occ. eigenvalues --   -0.35007  -0.34296
 Alpha virt. eigenvalues --   -0.05221  -0.01049   0.02800   0.05217   0.05601
 Alpha virt. eigenvalues --    0.06187   0.06952   0.07297   0.08107   0.09054
 Alpha virt. eigenvalues --    0.10016   0.10141   0.11234   0.11923   0.12287
 Alpha virt. eigenvalues --    0.13152   0.13732   0.14085   0.15021   0.15567
 Alpha virt. eigenvalues --    0.15945   0.16244   0.16756   0.17490   0.18265
 Alpha virt. eigenvalues --    0.18798   0.19285   0.20185   0.20895   0.21724
 Alpha virt. eigenvalues --    0.22081   0.22457   0.22613   0.23321   0.23394
 Alpha virt. eigenvalues --    0.24283   0.24665   0.25059   0.25350   0.26848
 Alpha virt. eigenvalues --    0.27236   0.27967   0.28430   0.28647   0.28991
 Alpha virt. eigenvalues --    0.29916   0.30677   0.31053   0.31838   0.31967
 Alpha virt. eigenvalues --    0.33375   0.33700   0.34313   0.34806   0.35065
 Alpha virt. eigenvalues --    0.35866   0.36802   0.37296   0.37736   0.38579
 Alpha virt. eigenvalues --    0.39359   0.39787   0.40514   0.40617   0.40930
 Alpha virt. eigenvalues --    0.41367   0.41964   0.41979   0.42756   0.42964
 Alpha virt. eigenvalues --    0.43300   0.43943   0.44243   0.45045   0.45621
 Alpha virt. eigenvalues --    0.45902   0.46614   0.46966   0.46998   0.48047
 Alpha virt. eigenvalues --    0.49103   0.49457   0.49730   0.49927   0.50684
 Alpha virt. eigenvalues --    0.51081   0.51679   0.52041   0.53212   0.53500
 Alpha virt. eigenvalues --    0.53916   0.54040   0.54832   0.55690   0.56116
 Alpha virt. eigenvalues --    0.56536   0.57149   0.57457   0.59651   0.61096
 Alpha virt. eigenvalues --    0.61222   0.61583   0.62565   0.62872   0.63473
 Alpha virt. eigenvalues --    0.65126   0.65787   0.66107   0.66826   0.67498
 Alpha virt. eigenvalues --    0.67992   0.68436   0.68974   0.69562   0.70260
 Alpha virt. eigenvalues --    0.70790   0.72500   0.73145   0.74072   0.74734
 Alpha virt. eigenvalues --    0.75175   0.75660   0.76438   0.76896   0.78095
 Alpha virt. eigenvalues --    0.78455   0.78998   0.79863   0.82303   0.83062
 Alpha virt. eigenvalues --    0.83273   0.84042   0.84545   0.86458   0.87267
 Alpha virt. eigenvalues --    0.87641   0.87922   0.88944   0.89171   0.89552
 Alpha virt. eigenvalues --    0.90318   0.90931   0.92198   0.92480   0.93318
 Alpha virt. eigenvalues --    0.93621   0.94367   0.95555   0.96378   0.97183
 Alpha virt. eigenvalues --    0.97964   0.99759   1.00409   1.00940   1.01862
 Alpha virt. eigenvalues --    1.04081   1.06093   1.06568   1.07632   1.07876
 Alpha virt. eigenvalues --    1.09699   1.10903   1.11574   1.12320   1.13985
 Alpha virt. eigenvalues --    1.14443   1.15158   1.16951   1.19163   1.19908
 Alpha virt. eigenvalues --    1.20803   1.21714   1.22858   1.23365   1.25441
 Alpha virt. eigenvalues --    1.27309   1.28501   1.28958   1.30888   1.31116
 Alpha virt. eigenvalues --    1.32494   1.33567   1.34424   1.36611   1.36967
 Alpha virt. eigenvalues --    1.38584   1.39195   1.40138   1.40681   1.41380
 Alpha virt. eigenvalues --    1.42689   1.44259   1.44733   1.46210   1.47073
 Alpha virt. eigenvalues --    1.47773   1.48779   1.50432   1.51168   1.52340
 Alpha virt. eigenvalues --    1.53446   1.53747   1.54649   1.54929   1.55267
 Alpha virt. eigenvalues --    1.56506   1.57920   1.58627   1.58989   1.60298
 Alpha virt. eigenvalues --    1.60528   1.60994   1.61677   1.62765   1.63213
 Alpha virt. eigenvalues --    1.63748   1.64048   1.64956   1.65389   1.65858
 Alpha virt. eigenvalues --    1.67009   1.69123   1.69251   1.69822   1.70455
 Alpha virt. eigenvalues --    1.70918   1.72654   1.75132   1.75560   1.76517
 Alpha virt. eigenvalues --    1.77730   1.78382   1.79616   1.80143   1.81395
 Alpha virt. eigenvalues --    1.82873   1.83379   1.83784   1.85186   1.86006
 Alpha virt. eigenvalues --    1.86124   1.87280   1.87625   1.89151   1.90331
 Alpha virt. eigenvalues --    1.90652   1.91588   1.92162   1.93272   1.93482
 Alpha virt. eigenvalues --    1.94214   1.95581   1.97324   1.98887   2.00202
 Alpha virt. eigenvalues --    2.00507   2.01096   2.02110   2.03799   2.04577
 Alpha virt. eigenvalues --    2.05608   2.06501   2.07721   2.08436   2.09806
 Alpha virt. eigenvalues --    2.10925   2.11679   2.13035   2.13823   2.14417
 Alpha virt. eigenvalues --    2.14691   2.17118   2.17350   2.18676   2.19426
 Alpha virt. eigenvalues --    2.19681   2.20488   2.21675   2.23895   2.25212
 Alpha virt. eigenvalues --    2.25793   2.26135   2.27061   2.27930   2.28658
 Alpha virt. eigenvalues --    2.29177   2.31113   2.32137   2.32870   2.33268
 Alpha virt. eigenvalues --    2.33998   2.34917   2.35395   2.37214   2.38558
 Alpha virt. eigenvalues --    2.39057   2.40016   2.40988   2.41556   2.42622
 Alpha virt. eigenvalues --    2.43749   2.44645   2.45717   2.46229   2.47838
 Alpha virt. eigenvalues --    2.49235   2.50217   2.51189   2.51946   2.53390
 Alpha virt. eigenvalues --    2.54311   2.54725   2.55091   2.56143   2.58297
 Alpha virt. eigenvalues --    2.58630   2.59826   2.60990   2.61789   2.62000
 Alpha virt. eigenvalues --    2.62520   2.63485   2.64109   2.64775   2.65980
 Alpha virt. eigenvalues --    2.67038   2.67323   2.68487   2.69140   2.70801
 Alpha virt. eigenvalues --    2.71022   2.71118   2.72053   2.73126   2.73270
 Alpha virt. eigenvalues --    2.73823   2.74276   2.76196   2.77002   2.78226
 Alpha virt. eigenvalues --    2.79893   2.81132   2.81396   2.82431   2.82734
 Alpha virt. eigenvalues --    2.83097   2.84284   2.85049   2.85834   2.86666
 Alpha virt. eigenvalues --    2.87698   2.88516   2.89359   2.89928   2.91288
 Alpha virt. eigenvalues --    2.92072   2.93124   2.93629   2.94880   2.95333
 Alpha virt. eigenvalues --    2.96579   2.97123   2.98053   2.99020   3.01547
 Alpha virt. eigenvalues --    3.01569   3.02519   3.03134   3.03994   3.04749
 Alpha virt. eigenvalues --    3.06587   3.08537   3.09068   3.09259   3.09698
 Alpha virt. eigenvalues --    3.11304   3.11921   3.12298   3.13724   3.14281
 Alpha virt. eigenvalues --    3.14794   3.15626   3.17289   3.17696   3.18428
 Alpha virt. eigenvalues --    3.19209   3.19438   3.20485   3.21162   3.22832
 Alpha virt. eigenvalues --    3.23348   3.24339   3.24603   3.24721   3.26595
 Alpha virt. eigenvalues --    3.26970   3.27811   3.28112   3.29219   3.30556
 Alpha virt. eigenvalues --    3.31194   3.32676   3.33173   3.34182   3.34355
 Alpha virt. eigenvalues --    3.35068   3.36082   3.36313   3.36608   3.37580
 Alpha virt. eigenvalues --    3.38185   3.38659   3.39697   3.39890   3.41321
 Alpha virt. eigenvalues --    3.42331   3.42907   3.44070   3.45061   3.45484
 Alpha virt. eigenvalues --    3.47118   3.48330   3.48863   3.49058   3.49956
 Alpha virt. eigenvalues --    3.51346   3.52283   3.53684   3.54632   3.56316
 Alpha virt. eigenvalues --    3.56627   3.57417   3.59237   3.61297   3.62471
 Alpha virt. eigenvalues --    3.63153   3.64882   3.66864   3.67108   3.69645
 Alpha virt. eigenvalues --    3.71379   3.73292   3.73673   3.75049   3.76513
 Alpha virt. eigenvalues --    3.78048   3.80321   3.81494   3.83129   3.83711
 Alpha virt. eigenvalues --    3.84646   3.85703   3.86413   3.88731   3.91044
 Alpha virt. eigenvalues --    3.92047   3.92768   3.92873   3.94161   3.98191
 Alpha virt. eigenvalues --    3.98580   4.00264   4.03306   4.05190   4.06153
 Alpha virt. eigenvalues --    4.08213   4.09367   4.12721   4.13989   4.15623
 Alpha virt. eigenvalues --    4.17145   4.18374   4.18829   4.19611   4.20409
 Alpha virt. eigenvalues --    4.22579   4.24046   4.25489   4.26486   4.27243
 Alpha virt. eigenvalues --    4.28821   4.31898   4.34571   4.37119   4.38006
 Alpha virt. eigenvalues --    4.41764   4.44023   4.47527   4.47905   4.53548
 Alpha virt. eigenvalues --    4.54620   4.56997   4.58911   4.59476   4.59999
 Alpha virt. eigenvalues --    4.65169   4.65399   4.65852   4.68023   4.72339
 Alpha virt. eigenvalues --    4.73899   4.76435   4.78882   4.83583   4.88066
 Alpha virt. eigenvalues --    4.89108   4.89760   4.93943   4.97301   5.05219
 Alpha virt. eigenvalues --    5.10947   5.16477   5.16982   5.18319   5.21784
 Alpha virt. eigenvalues --    5.22911   5.25557   5.26461   5.27054   5.28046
 Alpha virt. eigenvalues --    5.31177   5.31731   5.32502   5.34016   5.35368
 Alpha virt. eigenvalues --    5.36915   5.38616   5.41121   5.45575   5.46395
 Alpha virt. eigenvalues --    5.46723   5.47794   5.48832   5.50258   5.55524
 Alpha virt. eigenvalues --    5.58594   5.61882   5.67011   5.68119   5.68458
 Alpha virt. eigenvalues --    5.70213   5.72931   5.73136   5.75400   5.75816
 Alpha virt. eigenvalues --    5.81493   5.86349   5.86469   5.87913   5.90203
 Alpha virt. eigenvalues --    5.94467   5.98470   6.06914   6.13336   6.14835
 Alpha virt. eigenvalues --    6.16740   6.19775   6.24145   6.24994   6.25206
 Alpha virt. eigenvalues --    6.25881   6.29161   6.34046   6.36155   6.41277
 Alpha virt. eigenvalues --    6.43766   6.44038   6.48032   6.54200   6.55508
 Alpha virt. eigenvalues --    6.61855   6.63807   6.63856   6.63919   6.64463
 Alpha virt. eigenvalues --    6.68581   6.71180   6.72509   6.74450   6.77854
 Alpha virt. eigenvalues --    6.78176   6.83107   6.86373   6.87605   6.92494
 Alpha virt. eigenvalues --    6.93041   6.94592   6.95143   6.97489   7.02692
 Alpha virt. eigenvalues --    7.05270   7.07142   7.09917   7.10392   7.13259
 Alpha virt. eigenvalues --    7.20615   7.29445   7.34821   7.42631   7.48369
 Alpha virt. eigenvalues --   22.29332  22.51414  22.52778  22.58537  22.62384
 Alpha virt. eigenvalues --   22.79539  22.82176  22.86446  22.94260  23.04514
 Alpha virt. eigenvalues --   23.40403  23.62303  43.90337  43.90601  44.01685
 Alpha virt. eigenvalues --   44.06865  44.16384  44.43665  44.60913
          Condensed to atoms (all electrons):
               1          2          3          4          5          6
     1  H    0.267281  -0.000229   0.003127   0.004144  -0.002159   0.000107
     2  C   -0.000229   5.003182  -0.026473  -0.037385   0.483879   0.463881
     3  C    0.003127  -0.026473   5.118789   0.329179  -0.052992  -0.018842
     4  C    0.004144  -0.037385   0.329179   5.875841   0.319593  -0.054966
     5  C   -0.002159   0.483879  -0.052992   0.319593   5.083443  -0.053969
     6  C    0.000107   0.463881  -0.018842  -0.054966  -0.053969   5.184257
     7  C   -0.000563  -0.061564   0.390580   0.005275  -0.025268   0.392232
     8  C   -0.012787  -0.007302  -0.027384  -0.100569  -0.022191  -0.005158
     9  C    0.000004  -0.066412   0.011946  -0.008139   0.006062   0.333365
    10  H    0.000106  -0.001731   0.416005  -0.030930   0.006620   0.006010
    11  O    0.300327  -0.001541   0.002681  -0.086575   0.000067   0.000032
    12  O    0.002398   0.000015   0.025036  -0.158416   0.004629   0.000352
    13  O    0.000000   0.025317  -0.000044   0.000236   0.000017  -0.130700
    14  O   -0.000000   0.006189   0.003838  -0.000073  -0.000109  -0.141070
    15  H    0.000011  -0.002784   0.005188   0.029660  -0.017269   0.000579
    16  C   -0.000214  -0.001480   0.003533   0.063118  -0.014451   0.000632
    17  O   -0.000001  -0.000013  -0.000005  -0.000316   0.000119   0.000000
    18  H   -0.000029  -0.000017  -0.000896  -0.014223   0.002917  -0.000054
    19  H   -0.006481  -0.000087  -0.000438   0.002786  -0.001750   0.000051
    20  O    0.005025   0.002640  -0.001987  -0.041294   0.034184  -0.000267
    21  C   -0.000010   0.000361  -0.000260  -0.008128  -0.000774  -0.000052
    22  H    0.000000   0.000000  -0.000004  -0.000003   0.000010  -0.000000
    23  H   -0.000005   0.000013  -0.000140  -0.001901   0.001272  -0.000013
    24  H   -0.000002  -0.000025   0.000059   0.000726  -0.000308   0.000002
    25  H   -0.000084  -0.000006  -0.001167   0.017819  -0.000913   0.000010
    26  H    0.000195  -0.008656   0.002384  -0.048974   0.405514   0.003704
    27  C    0.000000  -0.004258  -0.000059  -0.000035  -0.000494   0.007764
    28  C    0.000000  -0.000745  -0.000003   0.000000   0.000037   0.002346
    29  H    0.000000   0.000543   0.000002   0.000001   0.000022  -0.000747
    30  H   -0.000000   0.000476   0.000007  -0.000001   0.000043   0.000189
    31  O   -0.000000   0.000024   0.000000  -0.000000   0.000001   0.000030
    32  H    0.000000   0.000290   0.000001   0.000002   0.000026  -0.000529
    33  H   -0.000000   0.000233   0.000002  -0.000001   0.000039  -0.000146
    34  H   -0.000000   0.000002   0.000000  -0.000000   0.000000   0.000001
    35  H    0.000003   0.408441   0.000119   0.004982  -0.025781  -0.026357
    36  H    0.000000   0.006141  -0.027416   0.007356  -0.000883  -0.038086
               7          8          9         10         11         12
     1  H   -0.000563  -0.012787   0.000004   0.000106   0.300327   0.002398
     2  C   -0.061564  -0.007302  -0.066412  -0.001731  -0.001541   0.000015
     3  C    0.390580  -0.027384   0.011946   0.416005   0.002681   0.025036
     4  C    0.005275  -0.100569  -0.008139  -0.030930  -0.086575  -0.158416
     5  C   -0.025268  -0.022191   0.006062   0.006620   0.000067   0.004629
     6  C    0.392232  -0.005158   0.333365   0.006010   0.000032   0.000352
     7  C    5.116835   0.006385  -0.067208  -0.028519   0.000320  -0.004650
     8  C    0.006385   5.089315  -0.002185  -0.014204   0.268501   0.427936
     9  C   -0.067208  -0.002185   4.454422   0.000114  -0.000012  -0.000018
    10  H   -0.028519  -0.014204   0.000114   0.446006   0.000668   0.012215
    11  O    0.000320   0.268501  -0.000012   0.000668   7.831986  -0.051163
    12  O   -0.004650   0.427936  -0.000018   0.012215  -0.051163   7.903332
    13  O    0.007978  -0.000001   0.387123   0.000002  -0.000000   0.000000
    14  O    0.027543  -0.000003   0.651923  -0.000057  -0.000000   0.000000
    15  H   -0.000553  -0.019984   0.000064   0.000042  -0.000170   0.000570
    16  C   -0.000528  -0.100135   0.000078   0.000169   0.003606   0.006639
    17  O    0.000000   0.001397  -0.000000  -0.000000   0.000002   0.000007
    18  H    0.000139   0.012573  -0.000003  -0.000038  -0.000059   0.005356
    19  H   -0.000026  -0.006033   0.000005  -0.000057   0.231966   0.000486
    20  O   -0.000371   0.113913  -0.000027   0.000519  -0.181089  -0.057148
    21  C    0.000071   0.007298  -0.000004   0.000002   0.000401   0.001298
    22  H    0.000000   0.000010  -0.000000  -0.000000  -0.000001  -0.000002
    23  H    0.000015   0.001783  -0.000001  -0.000001  -0.000017  -0.000060
    24  H   -0.000003   0.000423   0.000000   0.000000  -0.000120  -0.000007
    25  H    0.000007  -0.016782   0.000001  -0.000268  -0.002821   0.302020
    26  H   -0.000338   0.006609  -0.000224  -0.000108  -0.000524   0.000303
    27  C   -0.000179  -0.000004  -0.043041   0.000000  -0.000000  -0.000000
    28  C   -0.000132  -0.000000   0.000172   0.000000  -0.000000  -0.000000
    29  H   -0.000117   0.000000  -0.003515  -0.000000  -0.000000   0.000000
    30  H   -0.000223   0.000000  -0.004331   0.000000   0.000000  -0.000000
    31  O   -0.000001   0.000000   0.001182   0.000000  -0.000000   0.000000
    32  H   -0.000001   0.000000   0.002214  -0.000000  -0.000000   0.000000
    33  H   -0.000015   0.000000  -0.000010   0.000000   0.000000  -0.000000
    34  H   -0.000000   0.000000   0.000021   0.000000  -0.000000   0.000000
    35  H    0.003748  -0.000265  -0.011112   0.000038  -0.000013   0.000001
    36  H    0.413793  -0.000359  -0.012160  -0.003002   0.000001  -0.000083
              13         14         15         16         17         18
     1  H    0.000000  -0.000000   0.000011  -0.000214  -0.000001  -0.000029
     2  C    0.025317   0.006189  -0.002784  -0.001480  -0.000013  -0.000017
     3  C   -0.000044   0.003838   0.005188   0.003533  -0.000005  -0.000896
     4  C    0.000236  -0.000073   0.029660   0.063118  -0.000316  -0.014223
     5  C    0.000017  -0.000109  -0.017269  -0.014451   0.000119   0.002917
     6  C   -0.130700  -0.141070   0.000579   0.000632   0.000000  -0.000054
     7  C    0.007978   0.027543  -0.000553  -0.000528   0.000000   0.000139
     8  C   -0.000001  -0.000003  -0.019984  -0.100135   0.001397   0.012573
     9  C    0.387123   0.651923   0.000064   0.000078  -0.000000  -0.000003
    10  H    0.000002  -0.000057   0.000042   0.000169  -0.000000  -0.000038
    11  O   -0.000000  -0.000000  -0.000170   0.003606   0.000002  -0.000059
    12  O    0.000000   0.000000   0.000570   0.006639   0.000007   0.005356
    13  O    7.967848  -0.080836  -0.000000   0.000000  -0.000000   0.000000
    14  O   -0.080836   7.887609  -0.000000  -0.000000   0.000000   0.000000
    15  H   -0.000000  -0.000000   0.489511   0.421260   0.010114  -0.029193
    16  C    0.000000  -0.000000   0.421260   5.164124  -0.048554   0.396166
    17  O   -0.000000   0.000000   0.010114  -0.048554   8.064161   0.002673
    18  H    0.000000   0.000000  -0.029193   0.396166   0.002673   0.493407
    19  H   -0.000000  -0.000000   0.001302  -0.005065   0.000062   0.000007
    20  O    0.000000   0.000000  -0.033079   0.132159   0.004360  -0.026749
    21  C   -0.000000   0.000000  -0.046909   0.264728   0.237516  -0.018653
    22  H   -0.000000   0.000000  -0.001524  -0.005257   0.305190   0.004150
    23  H    0.000000   0.000000  -0.009369  -0.040786  -0.031742   0.006455
    24  H   -0.000000  -0.000000   0.008675  -0.059497  -0.038342  -0.009694
    25  H   -0.000000   0.000000   0.000183  -0.000679  -0.000002  -0.000242
    26  H   -0.000052   0.000004  -0.001511  -0.002215   0.000016   0.000356
    27  C    0.164581  -0.002652   0.000000   0.000000  -0.000000  -0.000000
    28  C   -0.038605   0.004050   0.000000   0.000000  -0.000000  -0.000000
    29  H   -0.029883   0.004723  -0.000000  -0.000000  -0.000000  -0.000000
    30  H   -0.030135   0.004956  -0.000000   0.000000   0.000000   0.000000
    31  O    0.004469   0.000022  -0.000000   0.000000   0.000000   0.000000
    32  H    0.006209  -0.000094  -0.000000  -0.000000  -0.000000  -0.000000
    33  H    0.004201  -0.000083  -0.000000   0.000000   0.000000   0.000000
    34  H   -0.000019  -0.000012  -0.000000  -0.000000   0.000000   0.000000
    35  H    0.011533   0.000310   0.000022   0.000074  -0.000000  -0.000002
    36  H    0.000769   0.016697  -0.000002   0.000002   0.000000   0.000000
              19         20         21         22         23         24
     1  H   -0.006481   0.005025  -0.000010   0.000000  -0.000005  -0.000002
     2  C   -0.000087   0.002640   0.000361   0.000000   0.000013  -0.000025
     3  C   -0.000438  -0.001987  -0.000260  -0.000004  -0.000140   0.000059
     4  C    0.002786  -0.041294  -0.008128  -0.000003  -0.001901   0.000726
     5  C   -0.001750   0.034184  -0.000774   0.000010   0.001272  -0.000308
     6  C    0.000051  -0.000267  -0.000052  -0.000000  -0.000013   0.000002
     7  C   -0.000026  -0.000371   0.000071   0.000000   0.000015  -0.000003
     8  C   -0.006033   0.113913   0.007298   0.000010   0.001783   0.000423
     9  C    0.000005  -0.000027  -0.000004  -0.000000  -0.000001   0.000000
    10  H   -0.000057   0.000519   0.000002  -0.000000  -0.000001   0.000000
    11  O    0.231966  -0.181089   0.000401  -0.000001  -0.000017  -0.000120
    12  O    0.000486  -0.057148   0.001298  -0.000002  -0.000060  -0.000007
    13  O   -0.000000   0.000000  -0.000000  -0.000000   0.000000  -0.000000
    14  O   -0.000000   0.000000   0.000000   0.000000   0.000000  -0.000000
    15  H    0.001302  -0.033079  -0.046909  -0.001524  -0.009369   0.008675
    16  C   -0.005065   0.132159   0.264728  -0.005257  -0.040786  -0.059497
    17  O    0.000062   0.004360   0.237516   0.305190  -0.031742  -0.038342
    18  H    0.000007  -0.026749  -0.018653   0.004150   0.006455  -0.009694
    19  H    0.250489   0.085545  -0.001245  -0.000001  -0.000023   0.001099
    20  O    0.085545   8.273583  -0.017613  -0.000045   0.001058   0.006403
    21  C   -0.001245  -0.017613   4.830368  -0.029310   0.410332   0.434997
    22  H   -0.000001  -0.000045  -0.029310   0.376686   0.008516  -0.011032
    23  H   -0.000023   0.001058   0.410332   0.008516   0.541505  -0.039919
    24  H    0.001099   0.006403   0.434997  -0.011032  -0.039919   0.552607
    25  H    0.000305  -0.000706  -0.000219  -0.000001  -0.000005   0.000049
    26  H   -0.000502   0.007237   0.000167   0.000006   0.001329  -0.000080
    27  C    0.000000  -0.000000   0.000000  -0.000000  -0.000000   0.000000
    28  C    0.000000  -0.000000  -0.000000  -0.000000  -0.000000   0.000000
    29  H   -0.000000   0.000000   0.000000  -0.000000  -0.000000   0.000000
    30  H    0.000000   0.000000  -0.000000   0.000000   0.000000  -0.000000
    31  O   -0.000000   0.000000  -0.000000   0.000000   0.000000  -0.000000
    32  H   -0.000000   0.000000   0.000000   0.000000  -0.000000   0.000000
    33  H   -0.000000   0.000000  -0.000000   0.000000   0.000000  -0.000000
    34  H   -0.000000   0.000000  -0.000000   0.000000   0.000000  -0.000000
    35  H   -0.000005  -0.000058  -0.000006  -0.000000  -0.000006   0.000000
    36  H   -0.000000   0.000002   0.000000   0.000000   0.000000  -0.000000
              25         26         27         28         29         30
     1  H   -0.000084   0.000195   0.000000   0.000000   0.000000  -0.000000
     2  C   -0.000006  -0.008656  -0.004258  -0.000745   0.000543   0.000476
     3  C   -0.001167   0.002384  -0.000059  -0.000003   0.000002   0.000007
     4  C    0.017819  -0.048974  -0.000035   0.000000   0.000001  -0.000001
     5  C   -0.000913   0.405514  -0.000494   0.000037   0.000022   0.000043
     6  C    0.000010   0.003704   0.007764   0.002346  -0.000747   0.000189
     7  C    0.000007  -0.000338  -0.000179  -0.000132  -0.000117  -0.000223
     8  C   -0.016782   0.006609  -0.000004  -0.000000   0.000000   0.000000
     9  C    0.000001  -0.000224  -0.043041   0.000172  -0.003515  -0.004331
    10  H   -0.000268  -0.000108   0.000000   0.000000  -0.000000   0.000000
    11  O   -0.002821  -0.000524  -0.000000  -0.000000  -0.000000   0.000000
    12  O    0.302020   0.000303  -0.000000  -0.000000   0.000000  -0.000000
    13  O   -0.000000  -0.000052   0.164581  -0.038605  -0.029883  -0.030135
    14  O    0.000000   0.000004  -0.002652   0.004050   0.004723   0.004956
    15  H    0.000183  -0.001511   0.000000   0.000000  -0.000000  -0.000000
    16  C   -0.000679  -0.002215   0.000000   0.000000  -0.000000   0.000000
    17  O   -0.000002   0.000016  -0.000000  -0.000000  -0.000000   0.000000
    18  H   -0.000242   0.000356  -0.000000  -0.000000  -0.000000   0.000000
    19  H    0.000305  -0.000502   0.000000   0.000000  -0.000000   0.000000
    20  O   -0.000706   0.007237  -0.000000  -0.000000   0.000000   0.000000
    21  C   -0.000219   0.000167   0.000000  -0.000000   0.000000  -0.000000
    22  H   -0.000001   0.000006  -0.000000  -0.000000  -0.000000   0.000000
    23  H   -0.000005   0.001329  -0.000000  -0.000000  -0.000000   0.000000
    24  H    0.000049  -0.000080   0.000000   0.000000   0.000000  -0.000000
    25  H    0.316370  -0.000018  -0.000000   0.000000   0.000000   0.000000
    26  H   -0.000018   0.425465   0.000004  -0.000001  -0.000000  -0.000000
    27  C   -0.000000   0.000004   5.043398   0.307457   0.407337   0.410506
    28  C    0.000000  -0.000001   0.307457   4.821454  -0.030576  -0.033603
    29  H    0.000000  -0.000000   0.407337  -0.030576   0.536528  -0.045525
    30  H    0.000000  -0.000000   0.410506  -0.033603  -0.045525   0.537653
    31  O    0.000000  -0.000000  -0.043260   0.232967   0.007938   0.002774
    32  H    0.000000  -0.000001  -0.060178   0.435200   0.009410  -0.011222
    33  H    0.000000   0.000000  -0.042574   0.404248  -0.011257   0.008475
    34  H    0.000000   0.000000  -0.004758  -0.033044  -0.001334   0.004536
    35  H   -0.000000  -0.002705  -0.000836  -0.000370   0.000109   0.000059
    36  H    0.000001   0.000040  -0.000075  -0.000009  -0.000009  -0.000013
              31         32         33         34         35         36
     1  H   -0.000000   0.000000  -0.000000  -0.000000   0.000003   0.000000
     2  C    0.000024   0.000290   0.000233   0.000002   0.408441   0.006141
     3  C    0.000000   0.000001   0.000002   0.000000   0.000119  -0.027416
     4  C   -0.000000   0.000002  -0.000001  -0.000000   0.004982   0.007356
     5  C    0.000001   0.000026   0.000039   0.000000  -0.025781  -0.000883
     6  C    0.000030  -0.000529  -0.000146   0.000001  -0.026357  -0.038086
     7  C   -0.000001  -0.000001  -0.000015  -0.000000   0.003748   0.413793
     8  C    0.000000   0.000000   0.000000   0.000000  -0.000265  -0.000359
     9  C    0.001182   0.002214  -0.000010   0.000021  -0.011112  -0.012160
    10  H    0.000000  -0.000000   0.000000   0.000000   0.000038  -0.003002
    11  O   -0.000000  -0.000000   0.000000  -0.000000  -0.000013   0.000001
    12  O    0.000000   0.000000  -0.000000   0.000000   0.000001  -0.000083
    13  O    0.004469   0.006209   0.004201  -0.000019   0.011533   0.000769
    14  O    0.000022  -0.000094  -0.000083  -0.000012   0.000310   0.016697
    15  H   -0.000000  -0.000000  -0.000000  -0.000000   0.000022  -0.000002
    16  C    0.000000  -0.000000   0.000000  -0.000000   0.000074   0.000002
    17  O    0.000000  -0.000000   0.000000   0.000000  -0.000000   0.000000
    18  H    0.000000  -0.000000   0.000000   0.000000  -0.000002   0.000000
    19  H   -0.000000  -0.000000  -0.000000  -0.000000  -0.000005  -0.000000
    20  O    0.000000   0.000000   0.000000   0.000000  -0.000058   0.000002
    21  C   -0.000000   0.000000  -0.000000  -0.000000  -0.000006   0.000000
    22  H    0.000000   0.000000   0.000000   0.000000  -0.000000   0.000000
    23  H    0.000000  -0.000000   0.000000   0.000000  -0.000006   0.000000
    24  H   -0.000000   0.000000  -0.000000  -0.000000   0.000000  -0.000000
    25  H    0.000000   0.000000   0.000000   0.000000  -0.000000   0.000001
    26  H   -0.000000  -0.000001   0.000000   0.000000  -0.002705   0.000040
    27  C   -0.043260  -0.060178  -0.042574  -0.004758  -0.000836  -0.000075
    28  C    0.232967   0.435200   0.404248  -0.033044  -0.000370  -0.000009
    29  H    0.007938   0.009410  -0.011257  -0.001334   0.000109  -0.000009
    30  H    0.002774  -0.011222   0.008475   0.004536   0.000059  -0.000013
    31  O    8.075085  -0.040531  -0.032616   0.304710   0.000006  -0.000000
    32  H   -0.040531   0.568199  -0.042271  -0.010562   0.000312   0.000000
    33  H   -0.032616  -0.042271   0.557475   0.009162  -0.000084  -0.000000
    34  H    0.304710  -0.010562   0.009162   0.384164  -0.000001   0.000000
    35  H    0.000006   0.000312  -0.000084  -0.000001   0.447651  -0.000104
    36  H   -0.000000   0.000000  -0.000000   0.000000  -0.000104   0.451128
 Mulliken charges:
               1
     1  H    0.439837
     2  C   -0.180922
     3  C   -0.154365
     4  C   -0.068790
     5  C   -0.129181
     6  C    0.075411
     7  C   -0.174663
     8  C    0.399201
     9  C    0.369707
    10  H    0.190398
    11  O   -0.316452
    12  O   -0.421046
    13  O   -0.270007
    14  O   -0.382874
    15  H    0.195169
    16  C   -0.177424
    17  O   -0.506641
    18  H    0.175653
    19  H    0.447608
    20  O   -0.306196
    21  C   -0.064356
    22  H    0.352613
    23  H    0.151710
    24  H    0.153988
    25  H    0.387148
    26  H    0.212577
    27  C   -0.138644
    28  C   -0.070843
    29  H    0.156350
    30  H    0.155379
    31  O   -0.512800
    32  H    0.143527
    33  H    0.145222
    34  H    0.347135
    35  H    0.190297
    36  H    0.186272
 Sum of Mulliken charges =   1.00000
 Mulliken charges with hydrogens summed into heavy atoms:
               1
     2  C    0.009375
     3  C    0.036033
     4  C   -0.068790
     5  C    0.083396
     6  C    0.075411
     7  C    0.011609
     8  C    0.399201
     9  C    0.369707
    11  O    0.570993
    12  O   -0.033899
    13  O   -0.270007
    14  O   -0.382874
    16  C    0.193398
    17  O   -0.154028
    20  O   -0.306196
    21  C    0.241342
    27  C    0.173085
    28  C    0.217906
    31  O   -0.165665
 Electronic spatial extent (au):  <R**2>=         305407.6887
 Charge=              1.0000 electrons
 Dipole moment (field-independent basis, Debye):
    X=             24.2730    Y=             79.4628    Z=             63.4654  Tot=            104.5532
 Quadrupole moment (field-independent basis, Debye-Ang):
   XX=             49.0971   YY=           1188.9297   ZZ=            723.9643
   XY=            389.6697   XZ=            325.5833   YZ=           1051.1180
 Traceless Quadrupole moment (field-independent basis, Debye-Ang):
   XX=           -604.9000   YY=            534.9327   ZZ=             69.9673
   XY=            389.6697   XZ=            325.5833   YZ=           1051.1180
 Octapole moment (field-independent basis, Debye-Ang**2):
  XXX=           -267.0743  YYY=          14084.3269  ZZZ=           6856.1343  XYY=           5688.1997
  XXY=            400.9903  XXZ=            754.9253  XZZ=           3898.0771  YZZ=          11545.1027
  YYZ=          15861.4449  XYZ=           5249.7268
 Hexadecapole moment (field-independent basis, Debye-Ang**3):
 XXXX=          -6487.4062 YYYY=          42752.0563 ZZZZ=          40795.5816 XXXY=          -7723.4926
 XXXZ=          -2588.3931 YYYX=          68264.6905 YYYZ=         194400.9032 ZZZX=          41217.3113
 ZZZY=          97228.5938 XXYY=          -4930.8771 XXZZ=           8367.8015 YYZZ=         161663.3120
 XXYZ=           7589.6981 YYXZ=          77475.6046 ZZXY=          61864.7572
 N-N= 1.457760770712D+03 E-N=-5.222431942795D+03  KE= 9.894313011657D+02
   1 Symmetry operations used in ECPInt.
 ECPInt:  NShTT=   38503 NPrTT=  116872 LenC2=   31035 LenP2D=   67085.
 LDataN:  DoStor=T MaxTD1= 7 Len=  274
 D1PCM: PCM CHGder 1st derivatives, ID1Alg=3 FixD1E=F DoIter=F DoCFld=F I1PDM=0.
 Calling FoFJK, ICntrl=      2127 FMM=F ISym2X=0 I1Cent= 0 IOpClX= 0 NMat=1 NMatS=1 NMatT=0.
 -------------------------------------------------------------------
 Center     Atomic                   Forces (Hartrees/Bohr)
 Number     Number              X              Y              Z
 -------------------------------------------------------------------
      1        1          -0.000000483    0.000002033    0.000009200
      2        6          -0.000001208    0.000003360    0.000001721
      3        6           0.000002746    0.000005721    0.000000305
      4        6           0.000000473    0.000008299    0.000005254
      5        6           0.000002206   -0.000003502    0.000000720
      6        6           0.000002646    0.000002935   -0.000004135
      7        6           0.000003847    0.000001692   -0.000000633
      8        6           0.009354918    0.012433663   -0.002259864
      9        6          -0.000002791   -0.000004654    0.000000398
     10        1           0.000001820    0.000004173   -0.000001339
     11        8          -0.004684259   -0.016146074   -0.008284304
     12        8          -0.000002164   -0.000001061   -0.000003223
     13        8           0.000005099    0.000003549   -0.000002317
     14        8           0.000006369    0.000007311   -0.000003582
     15        1          -0.000003149   -0.000003604   -0.000000670
     16        6           0.000000346   -0.000000757   -0.000003464
     17        8          -0.000001134    0.000001389    0.000004633
     18        1          -0.000001299   -0.000003504   -0.000003506
     19        1          -0.019592174   -0.011194267    0.017931398
     20        8           0.014918711    0.014903338   -0.007376773
     21        6          -0.000008917   -0.000005316   -0.000001297
     22        1          -0.000005402   -0.000012443   -0.000006299
     23        1          -0.000005504   -0.000008104    0.000002378
     24        1          -0.000004348   -0.000003792    0.000004751
     25        1           0.000000558    0.000002242    0.000003098
     26        1          -0.000000658   -0.000000636    0.000003192
     27        6           0.000000942    0.000001807   -0.000001507
     28        6           0.000000552   -0.000001385   -0.000001310
     29        1           0.000002718    0.000001279   -0.000005022
     30        1           0.000003880    0.000002593   -0.000000939
     31        8           0.000001204    0.000001180   -0.000001543
     32        1          -0.000000550    0.000000377    0.000000693
     33        1          -0.000000578   -0.000002393   -0.000002298
     34        1           0.000001075    0.000000755   -0.000002024
     35        1          -0.000001007   -0.000000890    0.000000918
     36        1           0.000005519    0.000004685   -0.000002614
 -------------------------------------------------------------------
 Cartesian Forces:  Max     0.019592174 RMS     0.004225453

 GradGradGradGradGradGradGradGradGradGradGradGradGradGradGradGradGradGrad
 Berny optimization.
 FormGI is forming the generalized inverse of G from B-inverse, IUseBI=4.
 Internal  Forces:  Max     0.021986019 RMS     0.002264523
 Search for a saddle point.
 Step number   1 out of a maximum of  184
 All quantities printed in internal units (Hartrees-Bohrs-Radians)
 Swapping is turned off.
 Second derivative matrix not updated -- first step.
 ITU=  0
     Eigenvalues ---   -0.02341   0.00135   0.00225   0.00238   0.00257
     Eigenvalues ---    0.00277   0.00317   0.00364   0.00439   0.00576
     Eigenvalues ---    0.00790   0.01172   0.01694   0.01759   0.01935
     Eigenvalues ---    0.02092   0.02227   0.02337   0.02495   0.02754
     Eigenvalues ---    0.02892   0.03033   0.04419   0.04596   0.04667
     Eigenvalues ---    0.04815   0.04819   0.05559   0.05728   0.06598
     Eigenvalues ---    0.06707   0.06903   0.07148   0.09359   0.09445
     Eigenvalues ---    0.10008   0.10340   0.10461   0.11127   0.11454
     Eigenvalues ---    0.11934   0.11964   0.12371   0.12621   0.13270
     Eigenvalues ---    0.13815   0.14964   0.15267   0.16186   0.17005
     Eigenvalues ---    0.17233   0.17443   0.17575   0.17825   0.18241
     Eigenvalues ---    0.18987   0.19623   0.20093   0.20778   0.21293
     Eigenvalues ---    0.23366   0.23565   0.23963   0.24565   0.25556
     Eigenvalues ---    0.25700   0.27072   0.28861   0.30178   0.30413
     Eigenvalues ---    0.30465   0.33287   0.33378   0.33488   0.33775
     Eigenvalues ---    0.33937   0.34107   0.34253   0.34524   0.34556
     Eigenvalues ---    0.35725   0.36354   0.36856   0.36971   0.37265
     Eigenvalues ---    0.37431   0.39546   0.41196   0.41977   0.43899
     Eigenvalues ---    0.44207   0.45178   0.48538   0.48820   0.49406
     Eigenvalues ---    0.49441   0.51004   0.52347   0.53132   0.53593
     Eigenvalues ---    0.53689   0.89150
 Eigenvectors required to have negative eigenvalues:
                          R28       R19       A30       A40       R14
   1                   -0.78769   0.46707  -0.21290   0.12045  -0.11394
                          R16       D42       A29       D46       D45
   1                    0.10740  -0.10631   0.09645   0.09021   0.07326
 RFO step:  Lambda0=1.594690997D-02 Lambda=-3.33195318D-03.
 Linear search not attempted -- option 19 set.
 Maximum step size (   0.300) exceeded in Quadratic search.
    -- Step size scaled by   0.560
 Iteration  1 RMS(Cart)=  0.09627188 RMS(Int)=  0.00701142
 Iteration  2 RMS(Cart)=  0.00950402 RMS(Int)=  0.00023778
 Iteration  3 RMS(Cart)=  0.00007403 RMS(Int)=  0.00023384
 Iteration  4 RMS(Cart)=  0.00000006 RMS(Int)=  0.00023384
 Variable       Old X    -DE/DX   Delta X   Delta X   Delta X     New X
                                 (Linear)    (Quad)   (Total)
    R1        1.84442  -0.00000   0.00000  -0.00357  -0.00357   1.84085
    R2        2.61732   0.00000   0.00000   0.00016   0.00016   2.61748
    R3        2.62804  -0.00000   0.00000  -0.00020  -0.00020   2.62784
    R4        2.04122  -0.00000   0.00000  -0.00001  -0.00001   2.04122
    R5        2.62709   0.00000   0.00000   0.00049   0.00049   2.62759
    R6        2.61515  -0.00000   0.00000  -0.00036  -0.00036   2.61478
    R7        2.04156  -0.00000   0.00000   0.00002   0.00002   2.04158
    R8        2.62854  -0.00000   0.00000  -0.00038  -0.00037   2.62816
    R9        2.83787   0.00001   0.00000  -0.00536  -0.00536   2.83252
   R10        2.04572  -0.00000   0.00000  -0.00093  -0.00093   2.04479
   R11        2.62724   0.00000   0.00000   0.00026   0.00026   2.62750
   R12        2.82500  -0.00000   0.00000  -0.00001  -0.00001   2.82499
   R13        2.04302  -0.00000   0.00000  -0.00000  -0.00000   2.04302
   R14        2.78208   0.01607   0.00000  -0.00293  -0.00222   2.77986
   R15        2.52341  -0.00000   0.00000  -0.00416  -0.00416   2.51926
   R16        2.67819   0.00008   0.00000   0.04005   0.04019   2.71838
   R17        2.51274  -0.00000   0.00000   0.00003   0.00003   2.51276
   R18        2.27562   0.00000   0.00000  -0.00001  -0.00001   2.27561
   R19        2.08439  -0.01224   0.00000   0.14033   0.14004   2.22443
   R20        1.83302  -0.00000   0.00000  -0.00013  -0.00013   1.83290
   R21        2.70655   0.00000   0.00000  -0.00007  -0.00007   2.70648
   R22        2.06166  -0.00000   0.00000  -0.00051  -0.00051   2.06114
   R23        2.05964  -0.00000   0.00000  -0.00153  -0.00153   2.05811
   R24        2.72143   0.00000   0.00000   0.00564   0.00564   2.72707
   R25        2.86858  -0.00000   0.00000   0.00063   0.00063   2.86921
   R26        2.66277   0.00000   0.00000  -0.00117  -0.00117   2.66160
   R27        1.81979  -0.00000   0.00000   0.00021   0.00021   1.82000
   R28        2.60266   0.02199   0.00000  -0.23785  -0.23858   2.36408
   R29        2.05926  -0.00000   0.00000  -0.00037  -0.00037   2.05889
   R30        2.06491  -0.00000   0.00000  -0.00013  -0.00013   2.06478
   R31        2.86418   0.00000   0.00000   0.00012   0.00012   2.86431
   R32        2.06028  -0.00000   0.00000   0.00005   0.00005   2.06034
   R33        2.06272  -0.00000   0.00000   0.00000   0.00000   2.06272
   R34        2.66999   0.00000   0.00000  -0.00005  -0.00005   2.66994
   R35        2.06586  -0.00000   0.00000   0.00003   0.00003   2.06589
   R36        2.05939  -0.00000   0.00000  -0.00001  -0.00001   2.05938
   R37        1.81944   0.00000   0.00000  -0.00003  -0.00003   1.81941
    A1        2.08953  -0.00000   0.00000   0.00034   0.00034   2.08987
    A2        2.09634  -0.00000   0.00000  -0.00023  -0.00023   2.09611
    A3        2.09730   0.00000   0.00000  -0.00011  -0.00011   2.09720
    A4        2.08149  -0.00000   0.00000  -0.00015  -0.00015   2.08135
    A5        2.09803   0.00000   0.00000  -0.00026  -0.00026   2.09777
    A6        2.10366  -0.00000   0.00000   0.00041   0.00041   2.10407
    A7        2.11100  -0.00000   0.00000   0.00048   0.00048   2.11148
    A8        2.08920   0.00001   0.00000  -0.00331  -0.00331   2.08589
    A9        2.08285  -0.00001   0.00000   0.00276   0.00276   2.08561
   A10        2.08626   0.00000   0.00000  -0.00057  -0.00057   2.08569
   A11        2.09189   0.00000   0.00000   0.00087   0.00087   2.09276
   A12        2.10500  -0.00000   0.00000  -0.00028  -0.00028   2.10472
   A13        2.10232  -0.00000   0.00000   0.00005   0.00004   2.10237
   A14        2.12358   0.00000   0.00000  -0.00019  -0.00019   2.12339
   A15        2.05727   0.00000   0.00000   0.00015   0.00015   2.05743
   A16        2.09576   0.00000   0.00000  -0.00014  -0.00015   2.09561
   A17        2.10566  -0.00000   0.00000   0.00007   0.00007   2.10572
   A18        2.08177  -0.00000   0.00000   0.00008   0.00008   2.08185
   A19        1.97292  -0.00013   0.00000   0.02601   0.02543   1.99835
   A20        1.95552   0.00009   0.00000   0.00604   0.00566   1.96118
   A21        2.00408  -0.00012   0.00000  -0.01959  -0.01970   1.98439
   A22        1.93091  -0.00009   0.00000   0.01230   0.01170   1.94262
   A23        1.56394   0.00035   0.00000  -0.01794  -0.01694   1.54700
   A24        2.00363  -0.00008   0.00000  -0.00777  -0.00793   1.99569
   A25        1.96626   0.00000   0.00000  -0.00014  -0.00014   1.96613
   A26        2.15866   0.00000   0.00000   0.00015   0.00015   2.15880
[...]
 00008965,0.00700667,0.02731242,-0.08361587,0.00066994,-0.00018987,0.00
 193313,0.00122832,0.00034607,0.00300473,-0.22286319,-0.08192138,0.2548
 3485,-0.00000423,-0.00000303,0.00000008,-0.00001358,0.00001534,-0.0000
 2669,0.00000078,0.00000171,-0.00000375,-0.00001460,0.00001503,-0.00000
 227,0.00000794,0.00000314,0.00000550,-0.00003963,-0.00001360,-0.000027
 39,-0.00001073,0.00002726,0.00001368,0.00000949,-0.00002702,0.00000165
 ,0.00016218,-0.00004999,0.00003927,-0.00000202,0.00000311,-0.00000033,
 0.00000289,0.00001288,-0.00000082,-0.00000394,0.00000661,-0.00000260,0
 .00060685,-0.00001562,0.00038233,-0.00012655,0.00027835,-0.00008936,0.
 00000039,-0.00000021,-0.00000018,0.00000283,0.,-0.00000093,0.00000082,
 0.00000066,0.00000113,-0.00000036,0.,0.00000024,-0.00000186,-0.0000018
 3,-0.00000111,-0.00000288,0.00000709,0.00000437,-0.00000140,-0.0000005
 2,-0.00000149,-0.00000013,-0.00000030,-0.00000029,-0.00000007,-0.00000
 045,-0.00000007,0.00000005,0.00000074,0.00000002,0.00000007,-0.0000007
 9,0.00000038,-0.00000281,0.00000404,-0.00000059,-0.00790615,-0.0121485
 0,0.00013088,-0.14624030,-0.12714984,-0.00491690,0.00000428,0.00068347
 ,-0.00285158,0.00091010,0.00053262,-0.00010388,0.01192379,0.02705462,-
 0.00129182,0.14958986,-0.00000295,-0.00000248,0.00000062,0.00000284,0.
 00000985,-0.00000584,-0.00000536,0.00000049,-0.00000652,-0.00000727,0.
 00001285,-0.00000469,0.00000162,-0.00000188,0.00000246,-0.00003907,-0.
 00002627,-0.00006731,-0.00001000,0.00003002,0.00001125,0.00000838,-0.0
 0002124,0.00000171,0.00003769,0.00032899,0.00009459,-0.00000210,0.0000
 0311,-0.00000036,0.00000154,0.00000989,-0.00000098,-0.00000403,0.00000
 548,-0.00000262,-0.00059613,0.00134343,-0.00061356,-0.00000118,-0.0000
 9323,0.00010544,0.00000024,-0.00000018,-0.00000016,0.00000293,0.000000
 23,-0.00000080,0.00000009,0.00000043,0.00000084,-0.00000038,0.,0.00000
 013,-0.00000083,-0.00000143,-0.00000073,-0.00000302,0.00000511,0.00000
 318,-0.00000061,-0.00000045,-0.00000110,-0.00000003,-0.00000022,-0.000
 00018,0.00000002,-0.00000025,-0.00000005,0.00000006,0.00000041,0.00000
 004,0.00000016,-0.00000061,0.00000040,-0.00000176,0.00000212,0.0000002
 2,-0.00278787,-0.00218393,-0.00031029,-0.12152937,-0.21373601,-0.01228
 119,0.00052777,0.00030880,-0.00009517,0.00008336,0.00034403,-0.0000609
 4,-0.00301664,-0.03600135,0.00230194,0.12874284,0.24545601,-0.00000402
 ,-0.00000374,0.00000195,-0.00002773,0.00000433,-0.00000439,0.00000093,
 -0.00000073,-0.00000376,-0.00001804,0.00001971,0.00000046,0.00000519,0
 .00000525,-0.00000312,-0.00001747,0.00000765,-0.00001246,-0.00001602,0
 .00002570,0.00001021,0.00001654,-0.00003189,0.00000477,0.00026671,-0.0
 0024551,-0.00016195,-0.00000173,0.00000308,-0.00000090,0.00000115,0.00
 001507,-0.00000242,-0.00000809,0.00000857,-0.00000577,0.00173719,-0.00
 034664,0.00150010,-0.00019890,0.00050177,-0.00020298,0.00000038,-0.000
 00041,-0.00000023,0.00000547,0.00000084,-0.00000134,-0.00000140,0.0000
 0041,0.00000100,-0.00000073,0.00000009,0.00000011,-0.00000032,-0.00000
 209,-0.00000047,-0.00000613,0.00000803,0.00000385,0.00000045,-0.000000
 71,-0.00000137,0.00000024,-0.00000023,-0.00000007,0.,0.00000010,-0.000
 00011,-0.00000002,0.00000008,0.00000015,0.00000046,-0.00000094,0.00000
 092,-0.00000255,0.00000276,0.00000092,-0.02197518,-0.02671357,-0.00291
 862,-0.00531334,-0.00991802,-0.05548725,-0.00271109,0.00020924,-0.0049
 7159,0.00096144,0.00003686,0.00159482,0.00298165,0.00969174,0.00289603
 ,0.01099260,0.00970212,0.05517339,0.00000005,0.00000040,0.00000042,0.0
 0000984,0.00000904,-0.00000999,0.00000197,-0.00000327,0.00000452,0.000
 00477,0.00000243,0.00000170,-0.00000579,0.00000117,-0.00000096,0.00000
 172,0.00001228,0.00005978,0.00000584,-0.00000845,-0.00000823,-0.000002
 26,0.00000251,0.00000169,0.00010575,-0.00035439,-0.00025851,0.00000048
 ,-0.00000144,0.00000008,0.00000042,-0.00000140,-0.00000093,0.00000035,
 -0.00000050,-0.00000033,0.00123261,-0.00115832,0.00143949,-0.00032129,
 0.00020883,-0.00004991,0.00000007,0.00000002,0.,-0.00000076,-0.0000000
 7,0.00000043,-0.00000033,0.00000003,-0.00000050,0.00000008,0.00000004,
 -0.00000015,-0.00000052,-0.00000006,0.00000106,0.00000096,-0.00000049,
 -0.00000160,0.00000051,-0.00000017,0.00000063,0.00000011,0.,0.00000014
 ,-0.00000013,0.00000023,-0.00000004,-0.00000003,-0.00000014,0.,-0.0000
 0016,0.00000007,0.00000005,0.00000048,-0.00000014,0.00000009,0.0111923
 9,-0.00041498,-0.01234010,-0.18288657,0.00324016,0.13223664,0.00096674
 ,-0.00001921,0.00078691,-0.00085150,0.00045170,-0.00315035,-0.02042589
 ,0.00887004,0.01206941,-0.01150166,-0.00023624,0.01331381,0.20204493,-
 0.00000064,-0.00000062,0.00000092,0.00000666,0.00000058,0.00001521,0.0
 0000227,0.00000173,-0.00000361,-0.00000411,0.00000312,0.00000065,-0.00
 000031,-0.00000004,-0.00000615,-0.00000089,-0.00000154,-0.00001109,-0.
 00000644,0.00000161,0.00000064,0.00000324,-0.00000595,0.00000202,-0.00
 007448,0.00001440,0.00003157,-0.00000045,0.00000033,-0.00000024,0.0000
 0003,0.00000230,-0.00000107,-0.00000250,0.00000189,-0.00000205,-0.0003
 7283,0.00037651,0.00016094,0.00005284,-0.00003506,-0.00000117,0.000000
 17,-0.00000015,-0.00000001,0.00000150,0.00000021,-0.00000016,-0.000001
 25,0.00000011,-0.00000005,-0.00000019,0.00000011,-0.00000013,0.,-0.000
 00052,0.00000063,-0.00000144,0.00000143,-0.00000024,0.00000107,-0.0000
 0046,0.00000015,0.00000022,-0.00000002,0.00000008,-0.00000004,0.000000
 28,-0.00000011,-0.00000007,-0.00000015,0.00000002,0.00000016,-0.000000
 17,0.00000034,0.00000106,-0.00000038,0.00000077,0.00194783,0.00058918,
 -0.00417307,-0.00437100,-0.05107890,-0.00072111,0.00062137,0.00031082,
 0.00005069,0.00042728,0.00049504,-0.00053745,0.03106597,-0.00718027,-0
 .02018583,-0.01783265,0.00306779,0.01824746,-0.01412817,0.05831333,-0.
 00000302,-0.00000457,0.00000132,-0.00000993,0.00001962,-0.00002382,-0.
 00000240,-0.00000267,-0.00000435,-0.00001409,0.00002708,-0.00000353,-0
 .00000369,-0.00000075,0.00000597,0.00000018,0.00001103,-0.00005149,-0.
 00001205,0.00004183,0.00001187,0.00002104,-0.00003657,0.00000311,-0.00
 010239,-0.00030037,-0.00000700,-0.00000269,0.00000415,-0.00000077,-0.0
 0000189,0.00001643,0.00000040,-0.00001035,0.00000938,-0.00000541,0.000
 16477,-0.00046437,0.00175187,-0.00038028,0.00038692,-0.00002430,0.0000
 0001,-0.00000048,-0.00000066,0.00000848,0.00000182,-0.00000224,-0.0000
 0125,-0.00000036,0.00000157,-0.00000107,-0.00000022,0.00000035,0.00000
 247,-0.00000110,-0.00000381,-0.00001035,0.00000784,0.00000778,-0.00000
 036,0.00000020,-0.00000249,0.00000009,0.,-0.00000007,0.00000049,-0.000
 00010,0.00000019,0.00000010,-0.00000020,0.00000019,0.00000114,-0.00000
 085,0.00000026,-0.00000199,0.00000498,-0.00000022,0.02281122,-0.000757
 62,-0.02491975,0.13620334,-0.00819322,-0.18678197,0.00002272,-0.000158
 12,0.00169200,-0.00344664,-0.00024389,-0.00406424,-0.00788413,0.000416
 45,0.00951188,-0.00200701,0.00019959,0.00261207,-0.14316998,0.00722698
 ,0.19951592,0.00000796,0.00001009,-0.00000372,0.00002440,-0.00002181,0
 .00001789,0.00001407,-0.00000905,0.00001547,0.00003449,-0.00004289,0.0
 0001546,-0.00000708,0.00000549,-0.00000242,0.00004830,-0.00002385,0.00
 017170,0.00001569,-0.00007117,-0.00004422,-0.00004009,0.00007887,-0.00
 000778,-0.00043206,-0.00010494,-0.00125810,0.00000608,-0.00000886,0.00
 000124,-0.00000058,-0.00003593,0.00000280,0.00002083,-0.00002175,0.000
 01329,0.00170193,-0.00075691,0.00129226,0.00014795,0.00015756,0.000472
 49,-0.00000085,0.00000098,0.00000060,-0.00001515,-0.00000149,0.0000037
 0,0.00000323,-0.00000136,-0.00000326,0.00000187,-0.00000019,-0.0000003
 5,-0.00000109,0.00000496,0.00000392,0.00001737,-0.00001908,-0.00001228
 ,-0.00000060,0.00000181,0.00000416,-0.00000055,0.00000072,0.00000044,0
 .00000002,0.00000003,0.00000039,-0.00000003,-0.00000051,-0.00000030,-0
 .00000174,0.00000248,-0.00000196,0.00000452,-0.00000729,-0.00000065,-0
 .00164543,-0.00026822,-0.00042905,-0.02009518,0.00003766,0.01334495,0.
 00010235,-0.00001489,0.00001936,-0.00065199,0.00002372,-0.00083844,-0.
 35789516,0.01390774,0.22871661,0.00266636,-0.00113959,0.00001180,0.000
 42156,0.00267077,-0.00217186,0.37556472,0.00000017,-0.00000191,0.00000
 124,-0.00000375,0.00000512,-0.00000411,-0.00000274,0.00000083,-0.00000
 266,-0.00000591,0.00000799,-0.00000306,-0.00000058,-0.00000242,0.00000
 108,-0.00000910,0.00000502,-0.00002913,-0.00000234,0.00001275,0.000008
 03,0.00001134,-0.00001323,0.00000251,0.00005628,0.00005130,0.00027207,
 -0.00000087,0.00000178,-0.00000031,-0.00000278,0.00000564,0.00000003,-
 0.00000617,0.00000391,-0.00000368,-0.00047776,0.00012465,-0.00014358,-
 0.00000054,-0.00004695,-0.00007589,0.00000004,-0.00000031,-0.00000015,
 0.00000455,0.00000066,-0.00000100,-0.00000191,-0.00000010,0.00000053,-
 0.00000053,0.00000008,0.00000003,0.00000253,-0.00000029,-0.00000151,-0
 .00000577,0.00000261,0.00000250,0.00000107,-0.00000009,-0.00000079,0.0
 0000035,0.00000002,0.00000008,0.00000007,0.00000030,-0.00000006,-0.000
 00005,-0.00000042,0.00000013,0.00000089,-0.00000037,0.00000046,0.00000
 015,0.00000105,0.00000006,0.00027035,0.00023435,-0.00010361,0.03583567
 ,-0.00571266,-0.02172084,-0.00017978,-0.00001697,0.00003362,-0.0000906
 8,0.00024955,0.00054499,-0.02441245,-0.03296462,0.03717213,-0.00013902
 ,0.00113388,-0.00121824,0.00354158,-0.00486775,0.00178242,-0.01438588,
 0.04178868,0.00000170,0.00000252,0.,0.00000900,-0.00000732,0.00000436,
 0.00000253,-0.00000161,-0.00000095,0.00000833,-0.00001100,0.00000392,-
 0.00000209,0.00000240,-0.00000047,-0.00002100,-0.00001875,0.00001279,0
 .00000129,-0.00000832,-0.00000776,-0.00000890,0.00001827,0.00000029,-0
 .00011830,0.00013906,-0.00015418,0.00000078,-0.00000103,0.00000028,0.0
 0000013,-0.00000861,-0.00000066,0.00000432,-0.00000494,0.00000150,0.00
 024392,0.00005570,-0.00081125,0.00009448,-0.00005154,0.00002723,-0.000
 00008,0.00000016,0.00000022,-0.00000355,-0.00000044,0.00000106,0.00000
 019,-0.00000031,-0.00000128,0.00000044,0.00000007,-0.00000020,-0.00000
 063,0.00000098,0.00000225,0.00000445,-0.00000431,-0.00000454,0.0000004
 5,0.00000026,0.00000151,0.00000004,0.00000020,0.00000030,-0.00000011,0
 .00000025,0.00000002,-0.00000006,-0.00000031,-0.00000005,-0.00000059,0
 .00000059,0.00000018,0.00000119,-0.00000198,0.00000015,-0.00243018,0.0
 0130003,0.00270505,-0.01032575,0.00203458,0.00287830,0.00009516,-0.000
 03535,-0.00011240,0.00054316,-0.00001586,-0.00038098,0.25243881,0.0121
 6455,-0.17908546,-0.00025084,0.00104422,-0.00002130,-0.00094217,-0.000
 08700,0.00078941,-0.23934408,-0.01650991,0.17414848,-0.00003003,-0.000
 06107,0.00002901,-0.11577739,0.03158845,-0.12761565,-0.00065756,0.0000
 0316,0.00066675,0.00395798,0.00526476,-0.00182099,-0.00277248,0.002595
 16,-0.01356646,0.00477775,-0.00034036,0.00130484,0.00472173,0.00255953
 ,-0.00084895,0.00015681,-0.00047097,-0.00072751,-0.00291760,-0.0016281
 8,0.00085230,-0.00066450,-0.00039438,0.00025676,-0.00001455,0.00010379
 ,0.00004733,-0.00027805,0.00023361,-0.00008763,-0.00050513,0.00218210,
 0.00043391,0.00043211,-0.00001606,-0.00028804,-0.00000536,-0.00000189,
 -0.00000411,0.00009290,0.00002594,-0.00001519,-0.00001704,0.00000139,0
 .00002016,-0.00001214,-0.00000417,0.00000253,0.00000837,-0.00001737,-0
 .00003243,-0.00009745,0.00010139,0.00009556,0.00000036,-0.00000647,-0.
 00002775,0.00000206,-0.00000227,-0.00000190,0.00000358,0.00000094,-0.0
 0000092,0.00000008,0.00000017,0.00000172,-0.00004144,-0.00006838,0.000
 02172,-0.00251361,-0.00222468,0.00160284,-0.00021949,0.00003775,0.0001
 2090,0.00004036,0.00004897,-0.00004394,0.00003998,-0.00006141,0.000007
 87,-0.00000965,0.00002758,-0.00000728,0.00002363,-0.00004810,0.0000230
 5,-0.00001874,-0.00002634,0.00000291,0.00000267,-0.00000397,-0.0000055
 4,-0.00000794,0.00000200,0.00000075,0.11199537,0.00005896,0.00002620,-
 0.00001514,0.03200856,-0.06332323,0.04239887,-0.00008181,-0.00098737,-
 0.00028428,0.00497780,-0.00228465,-0.00123116,0.01326902,-0.00061708,0
 .02283724,-0.01044549,0.00859598,-0.01741769,0.00276662,-0.00160210,-0
 .00420860,0.00026031,0.00056290,0.00091723,-0.00232735,-0.00019681,0.0
 0008099,-0.00039069,-0.00012806,0.00024292,-0.00004006,-0.00017191,-0.
 00000669,0.00039698,-0.00051479,0.00030117,0.00136886,-0.00194440,-0.0
 0036746,0.00028041,0.00051939,0.00048703,-0.00000139,0.00000226,0.0000
 0454,-0.00010090,-0.00002159,0.00002339,0.00001513,-0.00000366,-0.0000
 2146,0.00001190,0.00000080,-0.00000226,-0.00000827,0.00003004,0.000038
 55,0.00006517,0.00002508,-0.00009447,0.00001034,0.00000419,0.00003412,
 -0.00000270,0.00000265,0.00000139,0.00000051,0.00000219,-0.00000379,-0
 .00000100,-0.00000229,-0.00000263,0.00007877,0.00001903,0.00001979,-0.
 00234750,0.00000046,0.00052625,0.00030062,-0.00049860,0.00036968,0.000
 12026,-0.00002425,0.00010256,-0.00003919,0.00010441,-0.00001630,-0.000
 11264,0.00014198,-0.00001042,-0.00010904,0.00007811,-0.00006976,-0.000
 00223,0.00000694,-0.00000397,-0.00001286,-0.00000904,0.00001176,0.0000
 2478,-0.00000108,0.00000345,-0.03948328,0.06179228,-0.00002670,-0.0000
 0285,0.00000218,-0.12716910,0.04132523,-0.27221881,0.00071871,-0.00036
 586,0.00013944,-0.00161350,-0.00132411,0.00247465,-0.00002976,-0.00133
 720,0.00293297,-0.01148895,0.00542453,-0.01479902,-0.00079962,-0.00447
 617,-0.00089631,0.00009047,-0.00026341,0.00025786,-0.00005590,0.001526
 16,-0.00224394,0.00024236,0.00024219,-0.00014908,0.00001256,0.00011146
 ,-0.00003888,0.00002184,0.00003670,-0.00004410,-0.00054206,0.00138957,
 0.00115471,0.00005397,0.00001582,0.00066062,0.00000378,-0.00000281,-0.
 00000105,0.00002406,0.00000481,-0.00001127,-0.00000411,0.00000110,0.00
 000368,-0.00000359,0.00000115,0.00000140,0.00000055,-0.00001092,-0.000
 00384,-0.00003080,0.00003216,0.00000533,-0.00000169,-0.00000224,-0.000
 00577,0.00000073,-0.00000054,0.,-0.00000093,0.00000040,0.00000093,0.00
 000056,0.00000035,0.00000028,0.00001743,0.00000082,-0.00000230,0.00138
 903,0.00104914,-0.00011723,0.00045328,-0.00022822,0.00047968,0.0000585
 2,-0.00006179,0.00011432,-0.00006543,0.00013429,-0.00000890,-0.0000764
 5,0.00009652,0.00000869,-0.00005217,0.00004664,-0.00005413,0.00000102,
 -0.00001702,-0.00000865,0.00001493,-0.00000772,-0.00001758,0.00001707,
 -0.00000428,0.00000632,0.13947379,-0.04369079,0.28302571,-0.00006865,-
 0.00002695,-0.00000187,0.00247762,0.00319391,-0.00437775,0.00389448,0.
 01147319,0.01223808,0.00343884,0.00547599,-0.00259061,-0.00106170,0.00
 005796,-0.00005294,0.00584427,-0.01032323,-0.01104426,-0.04807148,0.01
 464283,0.00453336,0.00038607,0.00001730,0.00076610,-0.00288831,-0.0022
 9914,0.00013328,-0.00251040,-0.00240373,0.00144215,0.00002882,0.000276
 13,-0.00014295,-0.00008831,0.00007623,-0.00011017,0.00043524,-0.000051
 19,0.00066248,-0.00019515,0.00073017,0.00041325,-0.00000500,0.00000248
 ,-0.00000342,0.00010010,0.00005370,-0.00001009,-0.00002137,0.00000142,
 0.00002433,-0.00001825,0.00000164,0.00000745,0.00000697,-0.00005154,-0
 .00002555,-0.00023617,0.00008621,0.00015438,-0.00000910,-0.00000750,-0
 .00003498,0.00000347,-0.00000272,-0.00000147,0.00000182,-0.00000034,0.
 00000063,0.00000057,0.00000094,0.00000022,0.00001334,-0.00000878,0.000
 01596,-0.00058104,-0.00039850,0.00032467,0.00000162,0.00020504,-0.0000
 3928,-0.00001298,0.00000394,-0.00003876,0.00000111,0.00000697,-0.00001
 017,0.00000834,-0.00002545,-0.00000592,0.00002545,-0.00002392,0.000026
 84,0.00000295,0.00000126,0.00000382,0.00000259,-0.00000101,0.00000694,
 -0.00000816,0.00000162,-0.00000277,0.00030442,-0.00050860,-0.00063388,
 0.03879799,0.00005979,0.00003815,-0.00002714,0.00304277,0.00154397,0.0
 0074399,0.00073959,-0.01168637,-0.01921763,0.00511833,-0.00123774,0.00
 031759,-0.00002187,-0.00027839,0.00081743,-0.00040920,0.00848145,0.003
 54500,0.01443426,-0.18447278,-0.14783658,-0.00038041,0.00011759,-0.000
 82541,-0.00093715,-0.00175082,0.00104351,-0.00213162,0.00003350,0.0010
 1230,-0.00001949,-0.00022157,0.00004083,0.00008169,-0.00003492,0.00009
 177,-0.00048197,0.00032232,-0.00068529,0.00102383,-0.00094524,0.000863
 73,-0.00000030,0.00000983,0.00000416,-0.00016265,-0.00006381,0.0000350
 1,0.00002648,-0.00000456,-0.00003218,0.00002429,0.00000281,-0.00000793
 ,0.00004400,0.00002719,-0.00001323,0.00030923,-0.00046350,-0.00024686,
 0.00001158,0.00000950,0.00004349,-0.00000432,0.00000404,0.00000211,-0.
 00000106,0.00000054,-0.00000197,-0.00000095,-0.00000156,-0.00000158,0.
 00000234,0.00002330,-0.00002058,-0.00038258,-0.00021785,0.00007379,0.0
 0014016,-0.00014331,-0.00003469,0.00002024,0.00001559,0.00004268,-0.00
 001464,0.00002848,0.00000360,-0.00000490,0.00001433,0.00000250,-0.0000
 3562,0.00002168,-0.00003027,-0.00000391,-0.00000031,-0.00000417,-0.000
 00027,0.00000027,-0.00000303,0.00000801,-0.00000101,0.00000127,0.00008
 266,0.00041602,0.00035690,-0.02017633,0.19041318,0.00000795,-0.0000006
 3,0.00001100,-0.00455744,0.00114185,-0.00231723,-0.00125473,0.00465417
 ,0.00799442,-0.00273255,0.00031958,0.00196509,-0.00011781,0.00085065,-
 0.00015314,0.00157835,-0.01861862,-0.01497348,0.00414001,-0.14713566,-
 0.21761878,-0.00003894,0.00029739,0.00025945,0.00165574,-0.00165921,-0
 .00250728,0.00168700,0.00050072,-0.00019112,0.00000394,-0.00003539,-0.
 00001479,0.00004194,-0.00007750,0.00000895,0.00026421,0.00012614,0.000
 75248,0.00074039,0.00024444,0.00203408,0.00000117,-0.00000366,0.000000
 40,0.00002691,0.00001932,-0.00000440,-0.00000292,0.00000099,0.00000533
 ,-0.00000532,-0.00000121,0.00000212,-0.00002757,-0.00000349,0.00002361
 ,-0.00010298,0.00019970,0.00009366,-0.00000484,-0.00000077,-0.00000590
 ,0.00000065,-0.00000075,-0.00000028,-0.00000024,-0.00000050,0.00000064
 ,0.00000017,0.00000031,0.00000014,-0.00000753,-0.00000326,0.00000625,0
 .00033613,0.00007987,-0.00009604,-0.00012488,0.00011890,0.00001380,-0.
 00003048,0.00001519,-0.00002828,0.00000711,-0.00000323,-0.00001138,-0.
 00001472,0.00000103,-0.00000282,0.00002717,-0.00002003,0.00001740,0.00
 000676,0.00000075,0.00000797,0.00000198,-0.00000083,0.00000755,-0.0000
 0710,0.00000090,-0.00000215,0.00012956,-0.00095407,-0.00064791,-0.0016
 2711,0.15994691,0.22537064\\0.00000109,-0.00000134,-0.00000223,-0.0000
 0004,-0.00000036,-0.00000048,-0.00000216,-0.00000074,0.00000051,-0.000
 00048,-0.00000049,-0.00000026,0.00000049,-0.00000017,-0.00000066,-0.00
 000178,-0.00000096,-0.00000042,-0.00000262,-0.00000112,0.00000032,0.00
 000230,-0.00000340,-0.00000044,-0.00000189,-0.00000152,-0.00000015,-0.
 00000268,-0.00000061,0.00000089,-0.00000165,0.00000160,0.00000846,-0.0
 0000305,0.00000134,0.00000319,-0.00000115,-0.00000091,-0.00000153,-0.0
 0000375,-0.00000160,-0.00000042,0.00000156,0.00000166,0.00000166,0.000
 00119,0.00000334,0.00000109,0.00000398,0.00000382,0.00000279,0.0000028
 6,0.00000203,0.00000222,0.00000212,-0.00000411,-0.00000784,0.00000317,
 0.00000659,-0.00000222,0.00000389,0.00000121,0.00000210,0.00000402,0.0
 0000433,0.00000316,0.00000397,0.00000287,0.00000154,0.00000429,0.00000
 283,0.00000063,-0.00000077,0.00000195,0.00000265,0.00000198,0.00000065
 ,-0.00000052,-0.00000109,-0.00000128,-0.00000136,0.00000032,-0.0000013
 5,-0.00000280,-0.00000389,-0.00000045,0.00000019,-0.00000271,-0.000004
 23,-0.00000137,-0.00000032,-0.00000144,-0.00000230,-0.00000108,-0.0000
 0114,-0.00000239,-0.00000022,-0.00000223,-0.00000096,-0.00000271,-0.00
 000289,-0.00000255,0.00000064,-0.00000048,-0.00000096,-0.00000381,-0.0
 0000140,0.00000049\\\@


     ON THE SURVIVAL OF THE FITTEST -
 "STRONG REPRESENTATIVES FROM EACH PAST ERA THRIVE TODAY,
 SUCH AS PROGRAMMING IN THE THIRTY YEAR OLD LANGUAGE KNOWN
 AS FORTRAN, AND EVEN IN THE ANCIENT SCRIPT KNOWN AS DIRECT
 MACHINE CODE. SOME PEOPLE MIGHT LOOK ON SUCH RELICS AS LIVING
 FOSSILS; OTHERS WOULD POINT OUT THAT EVEN A VERY OLD SPECIES
 MIGHT STILL BE FILLING A PARTICULAR ECOLOGICAL NICHE."
     -- ALAN KAY, SCI.AM. SEPTEMBER 1984
 Job cpu time:       0 days 16 hours 31 minutes  4.0 seconds.
 Elapsed time:       0 days  0 hours 27 minutes 34.7 seconds.
 File lengths (MBytes):  RWF=   1614 Int=      0 D2E=      0 Chk=     55 Scr=      1
 Normal termination of Gaussian 16 at Mon Aug 19 11:30:33 2019.
