 Entering Gaussian System, Link 0=g16
 Initial command:
 /nopt/nrel/apps/gaussian/g16B/g16/l1.exe "/dev/shm/Gau-272851.inp" -scrdir="/dev/shm/"
 Default is to use a total of  36 processors:
                               36 via shared-memory
                                1 via Linda
 Entering Link 1 = /nopt/nrel/apps/gaussian/g16B/g16/l1.exe PID=    272852.
  
 Copyright (c) 1988-2017, Gaussian, Inc.  All Rights Reserved.
  
 This is part of the Gaussian(R) 16 program.  It is based on
 the Gaussian(R) 09 system (copyright 2009, Gaussian, Inc.),
 the Gaussian(R) 03 system (copyright 2003, Gaussian, Inc.),
 the Gaussian(R) 98 system (copyright 1998, Gaussian, Inc.),
 the Gaussian(R) 94 system (copyright 1995, Gaussian, Inc.),
 the Gaussian 92(TM) system (copyright 1992, Gaussian, Inc.),
 the Gaussian 90(TM) system (copyright 1990, Gaussian, Inc.),
 the Gaussian 88(TM) system (copyright 1988, Gaussian, Inc.),
 the Gaussian 86(TM) system (copyright 1986, Carnegie Mellon
 University), and the Gaussian 82(TM) system (copyright 1983,
 Carnegie Mellon University). Gaussian is a federally registered
 trademark of Gaussian, Inc.
  
 This software contains proprietary and confidential information,
 including trade secrets, belonging to Gaussian, Inc.
  
 This software is provided under written license and may be
 used, copied, transmitted, or stored only in accord with that
 written license.
  
 The following legend is applicable only to US Government
 contracts under FAR:
  
                    RESTRICTED RIGHTS LEGEND
  
 Use, reproduction and disclosure by the US Government is
 subject to restrictions as set forth in subparagraphs (a)
 and (c) of the Commercial Computer Software - Restricted
 Rights clause in FAR 52.227-19.
  
 Gaussian, Inc.
 340 Quinnipiac St., Bldg. 40, Wallingford CT 06492
  
  
 ---------------------------------------------------------------
 Warning -- This program may not be used in any manner that
 competes with the business of Gaussian, Inc. or will provide
 assistance to any competitor of Gaussian, Inc.  The licensee
 of this program is prohibited from giving any competitor of
 Gaussian, Inc. access to this program.  By using this program,
 the user acknowledges that Gaussian, Inc. is engaged in the
 business of creating and licensing software in the field of
 computational chemistry and represents and warrants to the
 licensee that it is not a competitor of Gaussian, Inc. and that
 it will not use this program in any manner prohibited above.
 ---------------------------------------------------------------
  

 Cite this work as:
 Gaussian 16, Revision B.01,
 M. J. Frisch, G. W. Trucks, H. B. Schlegel, G. E. Scuseria, 
 M. A. Robb, J. R. Cheeseman, G. Scalmani, V. Barone, 
 G. A. Petersson, H. Nakatsuji, X. Li, M. Caricato, A. V. Marenich, 
 J. Bloino, B. G. Janesko, R. Gomperts, B. Mennucci, H. P. Hratchian, 
 J. V. Ortiz, A. F. Izmaylov, J. L. Sonnenberg, D. Williams-Young, 
 F. Ding, F. Lipparini, F. Egidi, J. Goings, B. Peng, A. Petrone, 
 T. Henderson, D. Ranasinghe, V. G. Zakrzewski, J. Gao, N. Rega, 
 G. Zheng, W. Liang, M. Hada, M. Ehara, K. Toyota, R. Fukuda, 
 J. Hasegawa, M. Ishida, T. Nakajima, Y. Honda, O. Kitao, H. Nakai, 
 T. Vreven, K. Throssell, J. A. Montgomery, Jr., J. E. Peralta, 
 F. Ogliaro, M. J. Bearpark, J. J. Heyd, E. N. Brothers, K. N. Kudin, 
 V. N. Staroverov, T. A. Keith, R. Kobayashi, J. Normand, 
 K. Raghavachari, A. P. Rendell, J. C. Burant, S. S. Iyengar, 
 J. Tomasi, M. Cossi, J. M. Millam, M. Klene, C. Adamo, R. Cammi, 
 J. W. Ochterski, R. L. Martin, K. Morokuma, O. Farkas, 
 J. B. Foresman, and D. J. Fox, Gaussian, Inc., Wallingford CT, 2016.
 
 ******************************************
 Gaussian 16:  ES64L-G16RevB.01 20-Dec-2017
                19-Aug-2019 
 ******************************************
 %RWF=/dev/shm/,5GB,/tmp/scratch/1187681/,-1
 %NoSave
 %OldChk=tpainter_tsc_ts_ircr.chk
 %Chk=/dev/shm/tpainter_tsc_ts_ircr_opt.chk
 Copying data from "tpainter_tsc_ts_ircr.chk" to current chk file "/dev/shm/tpainter_tsc_ts_ircr_opt.chk"
 IOpt=  2 FromEx=T IUOpen= 4 IOptOp= 5 NList=   0 IFRang= 0 IUIn= 4 IUOut= 2.
 Default route: CacheSize=180224 MaxDisk=256GB
 ----------------------------------------------------------------------
 # m062x/Def2TZVP nosymm scf=xqc opt freq=NoRaman CPHF=Grid=Fine SCRF=(
 Solvent=1,2-EthaneDiol,Read) guess=read geom=allcheck
 ----------------------------------------------------------------------
 1/4=180224,18=20,19=15,26=3,29=7,38=1,40=2/1,3;
 2/4=180224,9=110,12=2,15=1,40=1/2;
 3/4=180224,5=44,7=101,11=2,14=-4,25=1,30=1,70=2203,71=1,72=30,74=-55,116=-2/1,2,3;
 4/4=180224,5=1/1;
 5/4=180224,5=2,8=3,13=1,38=6,53=30/2,8;
 6/4=180224,7=2,8=2,9=2,10=2,28=1/1;
 7/4=180224,30=1/1,2,3,16;
 1/4=180224,18=20,19=15,26=3/3(2);
 2/4=180224,9=110,15=1/2;
 99/4=180224/99;
 2/4=180224,9=110,15=1/2;
 3/4=180224,5=44,7=101,11=2,14=-2,25=1,30=1,70=2205,71=1,72=30,74=-55/1,2,3;
 4/4=180224,5=5,16=3,69=1/1;
 5/4=180224,5=2,8=3,13=1,38=5,53=30/2,8;
 7/4=180224,30=1/1,2,3,16;
 1/4=180224,18=20,19=15,26=3/3(-5);
 2/4=180224,9=110,15=1/2;
 6/4=180224,7=2,8=2,9=2,10=2,19=2,28=1/1;
 99/4=180224,9=1/99;
 Structure from the checkpoint file:  "/dev/shm/tpainter_tsc_ts_ircr_opt.chk"
 -------------------------
 based on tpainter_tsa.log
 -------------------------
 Charge =  1 Multiplicity = 1
 No Z-Matrix found in chk file; cartesian coordinates used.
  H                                                -0.413487896853     -3.348098757604      1.433235691770
  C                                                -0.798614114511      0.298524032365     -0.341169874485
  C                                                 0.561321709737     -0.194602866324      2.042086406120
  C                                                 0.611727321865     -1.107826911229      0.993384303548
  C                                                -0.064556094327     -0.867040045093     -0.196909851453
  C                                                -0.851603160400      1.215135401733      0.703349108930
  C                                                -0.172356114372      0.969180638911      1.891247170441
  C                                                 1.338888043988     -2.406415808785      1.200121525438
  C                                                -1.629540219627      2.486418166414      0.592760705654
  H                                                 1.091416685690     -0.393947771586      2.962152576015
  O                                                 0.531143117666     -3.553808910029      1.426320049237
  O                                                 2.328978308984     -2.289349371714      2.093689067874
  O                                                -2.262773886685      2.599777064510     -0.571244621381
  O                                                -1.680108401486      3.317127284013      1.463255419295
  H                                                 3.438314575974     -1.764577610500     -0.372148521703
  C                                                 3.194960487893     -2.810829883419     -0.538516727391
  O                                                 4.525713033484     -2.990386103341     -2.505703555987
  H                                                 3.832643408836     -3.454411055428      0.063243901601
  H                                                 1.420748499172     -3.860334898775     -0.006671727752
  O                                                 1.820079359023     -2.960311993601     -0.095894767511
  C                                                 3.221875274557     -3.168558693566     -2.010923958191
  H                                                 5.074787610493     -3.734910099341     -2.237581282206
  H                                                 2.565841103610     -2.493622191471     -2.559262856402
  H                                                 2.865649661397     -4.191737504612     -2.155859753865
  H                                                 2.631083989498     -3.160108131310      2.397201212439
  H                                                -0.017792807754     -1.578291739235     -1.010318129350
  C                                                -3.035233276524      3.790657501797     -0.760590714394
  C                                                -3.676737403295      3.682995106122     -2.129612033609
  H                                                -2.383520199376      4.662713898493     -0.701004205000
  H                                                -3.787939066556      3.861605714688      0.026571900691
  O                                                -4.435705072179      4.841120407094     -2.410844666709
  H                                                -4.287167999703      2.777712454041     -2.183941186331
  H                                                -2.902352935729      3.617528096294     -2.893613635151
  H                                                -5.231314369722      4.832617562166     -1.868557680700
  H                                                -1.324538854796      0.496493912158     -1.263684686217
  H                                                -0.224635457689      1.695234189248      2.690642830098
 Recover connectivity data from disk.

 GradGradGradGradGradGradGradGradGradGradGradGradGradGradGradGradGradGrad
 Berny optimization.
 Initialization pass.
                           ----------------------------
                           !    Initial Parameters    !
                           ! (Angstroms and Degrees)  !
 --------------------------                            --------------------------
 ! Name  Definition              Value          Derivative Info.                !
 --------------------------------------------------------------------------------
 ! R1    R(1,11)                 0.9668         estimate D2E/DX2                !
 ! R2    R(2,5)                  1.385          estimate D2E/DX2                !
 ! R3    R(2,6)                  1.3907         estimate D2E/DX2                !
 ! R4    R(2,35)                 1.0802         estimate D2E/DX2                !
 ! R5    R(3,4)                  1.3915         estimate D2E/DX2                !
 ! R6    R(3,7)                  1.384          estimate D2E/DX2                !
 ! R7    R(3,10)                 1.0804         estimate D2E/DX2                !
 ! R8    R(4,5)                  1.39           estimate D2E/DX2                !
 ! R9    R(4,8)                  1.5026         estimate D2E/DX2                !
 ! R10   R(5,26)                 1.0815         estimate D2E/DX2                !
 ! R11   R(6,7)                  1.3903         estimate D2E/DX2                !
 ! R12   R(6,9)                  1.4945         estimate D2E/DX2                !
 ! R13   R(7,36)                 1.0812         estimate D2E/DX2                !
 ! R14   R(8,11)                 1.4213         estimate D2E/DX2                !
 ! R15   R(8,12)                 1.3388         estimate D2E/DX2                !
 ! R16   R(8,20)                 1.4893         estimate D2E/DX2                !
 ! R17   R(9,13)                 1.3299         estimate D2E/DX2                !
 ! R18   R(9,14)                 1.2043         estimate D2E/DX2                !
 ! R19   R(11,19)                1.7143         estimate D2E/DX2                !
 ! R20   R(12,25)                0.9704         estimate D2E/DX2                !
 ! R21   R(13,27)                1.432          estimate D2E/DX2                !
 ! R22   R(15,16)                1.087          estimate D2E/DX2                !
 ! R23   R(16,18)                1.0876         estimate D2E/DX2                !
 ! R24   R(16,20)                1.4521         estimate D2E/DX2                !
 ! R25   R(16,21)                1.5155         estimate D2E/DX2                !
 ! R26   R(17,21)                1.4059         estimate D2E/DX2                !
 ! R27   R(17,22)                0.9632         estimate D2E/DX2                !
 ! R28   R(21,23)                1.0893         estimate D2E/DX2                !
 ! R29   R(21,24)                1.0931         estimate D2E/DX2                !
 ! R30   R(27,28)                1.5157         estimate D2E/DX2                !
 ! R31   R(27,29)                1.0903         estimate D2E/DX2                !
 ! R32   R(27,30)                1.0914         estimate D2E/DX2                !
 ! R33   R(28,31)                1.4129         estimate D2E/DX2                !
 ! R34   R(28,32)                1.0932         estimate D2E/DX2                !
 ! R35   R(28,33)                1.0898         estimate D2E/DX2                !
 ! R36   R(31,34)                0.9629         estimate D2E/DX2                !
 ! A1    A(5,2,6)              119.7785         estimate D2E/DX2                !
 ! A2    A(5,2,35)             120.0822         estimate D2E/DX2                !
 ! A3    A(6,2,35)             120.1388         estimate D2E/DX2                !
 ! A4    A(4,3,7)              119.2701         estimate D2E/DX2                !
 ! A5    A(4,3,10)             120.1946         estimate D2E/DX2                !
 ! A6    A(7,3,10)             120.5353         estimate D2E/DX2                !
 ! A7    A(3,4,5)              120.934          estimate D2E/DX2                !
 ! A8    A(3,4,8)              118.7517         estimate D2E/DX2                !
 ! A9    A(5,4,8)              120.1967         estimate D2E/DX2                !
 ! A10   A(2,5,4)              119.5275         estimate D2E/DX2                !
 ! A11   A(2,5,26)             119.8695         estimate D2E/DX2                !
 ! A12   A(4,5,26)             120.6022         estimate D2E/DX2                !
 ! A13   A(2,6,7)              120.4321         estimate D2E/DX2                !
 ! A14   A(2,6,9)              121.6625         estimate D2E/DX2                !
 ! A15   A(7,6,9)              117.9054         estimate D2E/DX2                !
 ! A16   A(3,7,6)              120.0577         estimate D2E/DX2                !
 ! A17   A(3,7,36)             120.6469         estimate D2E/DX2                !
 ! A18   A(6,7,36)             119.2953         estimate D2E/DX2                !
 ! A19   A(4,8,11)             116.3939         estimate D2E/DX2                !
 ! A20   A(4,8,12)             111.9711         estimate D2E/DX2                !
 ! A21   A(4,8,20)             110.9804         estimate D2E/DX2                !
 ! A22   A(11,8,12)            112.6218         estimate D2E/DX2                !
 ! A23   A(11,8,20)             91.2533         estimate D2E/DX2                !
 ! A24   A(12,8,20)            111.9866         estimate D2E/DX2                !
 ! A25   A(6,9,13)             112.6506         estimate D2E/DX2                !
 ! A26   A(6,9,14)             123.7186         estimate D2E/DX2                !
 ! A27   A(13,9,14)            123.6307         estimate D2E/DX2                !
 ! A28   A(1,11,8)             112.622          estimate D2E/DX2                !
 ! A29   A(1,11,19)            123.4398         estimate D2E/DX2                !
 ! A30   A(8,11,19)             73.5248         estimate D2E/DX2                !
 ! A31   A(8,12,25)            111.1329         estimate D2E/DX2                !
 ! A32   A(9,13,27)            116.3235         estimate D2E/DX2                !
 ! A33   A(15,16,18)           110.7081         estimate D2E/DX2                !
 ! A34   A(15,16,20)           105.3317         estimate D2E/DX2                !
 ! A35   A(15,16,21)           111.8348         estimate D2E/DX2                !
 ! A36   A(18,16,20)           108.9999         estimate D2E/DX2                !
 ! A37   A(18,16,21)           112.7965         estimate D2E/DX2                !
 ! A38   A(20,16,21)           106.7784         estimate D2E/DX2                !
 ! A39   A(21,17,22)           109.4361         estimate D2E/DX2                !
 ! A40   A(8,20,16)            122.2011         estimate D2E/DX2                !
 ! A41   A(16,21,17)           109.1768         estimate D2E/DX2                !
 ! A42   A(16,21,23)           109.3977         estimate D2E/DX2                !
 ! A43   A(16,21,24)           110.1205         estimate D2E/DX2                !
 ! A44   A(17,21,23)           107.6288         estimate D2E/DX2                !
 ! A45   A(17,21,24)           111.975          estimate D2E/DX2                !
 ! A46   A(23,21,24)           108.4797         estimate D2E/DX2                !
 ! A47   A(13,27,28)           106.7776         estimate D2E/DX2                !
 ! A48   A(13,27,29)           109.6019         estimate D2E/DX2                !
 ! A49   A(13,27,30)           109.3114         estimate D2E/DX2                !
 ! A50   A(28,27,29)           111.0487         estimate D2E/DX2                !
 ! A51   A(28,27,30)           111.3557         estimate D2E/DX2                !
 ! A52   A(29,27,30)           108.7125         estimate D2E/DX2                !
 ! A53   A(27,28,31)           110.4204         estimate D2E/DX2                !
 ! A54   A(27,28,32)           109.8792         estimate D2E/DX2                !
 ! A55   A(27,28,33)           109.6778         estimate D2E/DX2                !
 ! A56   A(31,28,32)           111.6493         estimate D2E/DX2                !
 ! A57   A(31,28,33)           106.9414         estimate D2E/DX2                !
 ! A58   A(32,28,33)           108.1911         estimate D2E/DX2                !
 ! A59   A(28,31,34)           108.9356         estimate D2E/DX2                !
 ! D1    D(6,2,5,4)              0.0301         estimate D2E/DX2                !
 ! D2    D(6,2,5,26)          -179.6566         estimate D2E/DX2                !
 ! D3    D(35,2,5,4)           179.7659         estimate D2E/DX2                !
 ! D4    D(35,2,5,26)            0.0791         estimate D2E/DX2                !
 ! D5    D(5,2,6,7)              0.0115         estimate D2E/DX2                !
 ! D6    D(5,2,6,9)            179.9443         estimate D2E/DX2                !
 ! D7    D(35,2,6,7)          -179.7242         estimate D2E/DX2                !
 ! D8    D(35,2,6,9)             0.2087         estimate D2E/DX2                !
 ! D9    D(7,3,4,5)             -0.1074         estimate D2E/DX2                !
 ! D10   D(7,3,4,8)           -176.1715         estimate D2E/DX2                !
 ! D11   D(10,3,4,5)           179.9877         estimate D2E/DX2                !
 ! D12   D(10,3,4,8)             3.9237         estimate D2E/DX2                !
 ! D13   D(4,3,7,6)              0.1482         estimate D2E/DX2                !
 ! D14   D(4,3,7,36)          -179.8374         estimate D2E/DX2                !
 ! D15   D(10,3,7,6)          -179.9473         estimate D2E/DX2                !
 ! D16   D(10,3,7,36)            0.0672         estimate D2E/DX2                !
 ! D17   D(3,4,5,2)              0.0181         estimate D2E/DX2                !
 ! D18   D(3,4,5,26)           179.7025         estimate D2E/DX2                !
 ! D19   D(8,4,5,2)            176.0256         estimate D2E/DX2                !
 ! D20   D(8,4,5,26)            -4.2901         estimate D2E/DX2                !
 ! D21   D(3,4,8,11)           102.9091         estimate D2E/DX2                !
 ! D22   D(3,4,8,12)           -28.6394         estimate D2E/DX2                !
 ! D23   D(3,4,8,20)          -154.5897         estimate D2E/DX2                !
 ! D24   D(5,4,8,11)           -73.1848         estimate D2E/DX2                !
 ! D25   D(5,4,8,12)           155.2667         estimate D2E/DX2                !
 ! D26   D(5,4,8,20)            29.3163         estimate D2E/DX2                !
 ! D27   D(2,6,7,3)             -0.1018         estimate D2E/DX2                !
 ! D28   D(2,6,7,36)           179.884          estimate D2E/DX2                !
 ! D29   D(9,6,7,3)            179.9629         estimate D2E/DX2                !
 ! D30   D(9,6,7,36)            -0.0513         estimate D2E/DX2                !
 ! D31   D(2,6,9,13)             1.6012         estimate D2E/DX2                !
 ! D32   D(2,6,9,14)          -178.528          estimate D2E/DX2                !
 ! D33   D(7,6,9,13)          -178.4644         estimate D2E/DX2                !
 ! D34   D(7,6,9,14)             1.4065         estimate D2E/DX2                !
 ! D35   D(4,8,11,1)            -0.9334         estimate D2E/DX2                !
 ! D36   D(4,8,11,19)          119.0211         estimate D2E/DX2                !
 ! D37   D(12,8,11,1)          130.3125         estimate D2E/DX2                !
 ! D38   D(12,8,11,19)        -109.733          estimate D2E/DX2                !
 ! D39   D(20,8,11,1)         -115.1803         estimate D2E/DX2                !
 ! D40   D(20,8,11,19)           4.7743         estimate D2E/DX2                !
 ! D41   D(4,8,12,25)          164.6935         estimate D2E/DX2                !
 ! D42   D(11,8,12,25)          31.2669         estimate D2E/DX2                !
 ! D43   D(20,8,12,25)         -69.9078         estimate D2E/DX2                !
 ! D44   D(4,8,20,16)           99.9484         estimate D2E/DX2                !
 ! D45   D(11,8,20,16)        -141.0648         estimate D2E/DX2                !
 ! D46   D(12,8,20,16)         -25.9933         estimate D2E/DX2                !
 ! D47   D(6,9,13,27)          179.9347         estimate D2E/DX2                !
 ! D48   D(14,9,13,27)           0.0637         estimate D2E/DX2                !
 ! D49   D(9,13,27,28)        -178.916          estimate D2E/DX2                !
 ! D50   D(9,13,27,29)          60.7145         estimate D2E/DX2                !
 ! D51   D(9,13,27,30)         -58.3407         estimate D2E/DX2                !
 ! D52   D(15,16,20,8)         -46.694          estimate D2E/DX2                !
 ! D53   D(18,16,20,8)          72.1342         estimate D2E/DX2                !
 ! D54   D(21,16,20,8)        -165.7371         estimate D2E/DX2                !
 ! D55   D(15,16,21,17)         63.0086         estimate D2E/DX2                !
 ! D56   D(15,16,21,23)        -54.5332         estimate D2E/DX2                !
 ! D57   D(15,16,21,24)       -173.6691         estimate D2E/DX2                !
 ! D58   D(18,16,21,17)        -62.5556         estimate D2E/DX2                !
 ! D59   D(18,16,21,23)        179.9026         estimate D2E/DX2                !
 ! D60   D(18,16,21,24)         60.7668         estimate D2E/DX2                !
 ! D61   D(20,16,21,17)        177.7367         estimate D2E/DX2                !
 ! D62   D(20,16,21,23)         60.1949         estimate D2E/DX2                !
 ! D63   D(20,16,21,24)        -58.9409         estimate D2E/DX2                !
 ! D64   D(22,17,21,16)         77.8687         estimate D2E/DX2                !
 ! D65   D(22,17,21,23)       -163.48           estimate D2E/DX2                !
 ! D66   D(22,17,21,24)        -44.3449         estimate D2E/DX2                !
 ! D67   D(13,27,28,31)       -178.5538         estimate D2E/DX2                !
 ! D68   D(13,27,28,32)         57.8576         estimate D2E/DX2                !
 ! D69   D(13,27,28,33)        -60.9498         estimate D2E/DX2                !
 ! D70   D(29,27,28,31)        -59.1161         estimate D2E/DX2                !
 ! D71   D(29,27,28,32)        177.2952         estimate D2E/DX2                !
 ! D72   D(29,27,28,33)         58.4879         estimate D2E/DX2                !
 ! D73   D(30,27,28,31)         62.1875         estimate D2E/DX2                !
 ! D74   D(30,27,28,32)        -61.4011         estimate D2E/DX2                !
 ! D75   D(30,27,28,33)        179.7915         estimate D2E/DX2                !
 ! D76   D(27,28,31,34)        -72.16           estimate D2E/DX2                !
 ! D77   D(32,28,31,34)         50.398          estimate D2E/DX2                !
 ! D78   D(33,28,31,34)        168.5639         estimate D2E/DX2                !
 --------------------------------------------------------------------------------
 Trust Radius=3.00D-01 FncErr=1.00D-07 GrdErr=1.00D-06 EigMax=2.50D+02 EigMin=1.00D-04
 Number of steps in this run=    183 maximum allowed number of steps=    216.
 GradGradGradGradGradGradGradGradGradGradGradGradGradGradGradGradGradGrad

                          Input orientation:                          
 ---------------------------------------------------------------------
 Center     Atomic      Atomic             Coordinates (Angstroms)
 Number     Number       Type             X           Y           Z
 ---------------------------------------------------------------------
      1          1           0       -0.413488   -3.348099    1.433236
      2          6           0       -0.798614    0.298524   -0.341170
      3          6           0        0.561322   -0.194603    2.042086
      4          6           0        0.611727   -1.107827    0.993384
      5          6           0       -0.064556   -0.867040   -0.196910
      6          6           0       -0.851603    1.215135    0.703349
      7          6           0       -0.172356    0.969181    1.891247
      8          6           0        1.338888   -2.406416    1.200122
      9          6           0       -1.629540    2.486418    0.592761
     10          1           0        1.091417   -0.393948    2.962153
     11          8           0        0.531143   -3.553809    1.426320
     12          8           0        2.328978   -2.289349    2.093689
     13          8           0       -2.262774    2.599777   -0.571245
     14          8           0       -1.680108    3.317127    1.463255
     15          1           0        3.438315   -1.764578   -0.372149
     16          6           0        3.194960   -2.810830   -0.538517
     17          8           0        4.525713   -2.990386   -2.505704
     18          1           0        3.832643   -3.454411    0.063244
     19          1           0        1.420748   -3.860335   -0.006672
     20          8           0        1.820079   -2.960312   -0.095895
     21          6           0        3.221875   -3.168559   -2.010924
     22          1           0        5.074788   -3.734910   -2.237581
     23          1           0        2.565841   -2.493622   -2.559263
     24          1           0        2.865650   -4.191738   -2.155860
     25          1           0        2.631084   -3.160108    2.397201
     26          1           0       -0.017793   -1.578292   -1.010318
     27          6           0       -3.035233    3.790658   -0.760591
     28          6           0       -3.676737    3.682995   -2.129612
     29          1           0       -2.383520    4.662714   -0.701004
     30          1           0       -3.787939    3.861606    0.026572
     31          8           0       -4.435705    4.841120   -2.410845
     32          1           0       -4.287168    2.777712   -2.183941
     33          1           0       -2.902353    3.617528   -2.893614
     34          1           0       -5.231314    4.832618   -1.868558
     35          1           0       -1.324539    0.496494   -1.263685
     36          1           0       -0.224635    1.695234    2.690643
 ---------------------------------------------------------------------
                    Distance matrix (angstroms):
                    1          2          3          4          5
     1  H    0.000000
     2  C    4.073659   0.000000
     3  C    3.356410   2.787922   0.000000
     4  C    2.502669   2.397482   1.391508   0.000000
     5  C    2.989110   1.384988   2.420124   1.390014   0.000000
     6  C    4.641959   1.390685   2.403318   2.760726   2.401117
     7  C    4.348197   2.413641   1.383990   2.394766   2.782755
     8  C    2.002980   3.776400   2.491110   1.502610   2.508193
     9  C    6.018868   2.519830   3.753438   4.254689   3.783971
    10  H    3.650936   3.868291   1.080398   2.148435   3.397023
    11  O    0.966795   4.442155   3.415310   2.485308   3.195068
    12  O    3.013017   4.733652   2.741393   2.357036   3.605387
    13  O    6.543319   2.737237   4.755373   4.945417   4.122027
    14  O    6.784576   3.625596   4.206103   5.005348   4.782616
    15  H    4.539090   4.712633   4.070680   3.207117   3.620274
    16  C    4.146971   5.065142   4.521085   3.452540   3.810441
    17  O    6.327630   6.621978   6.649451   5.577359   5.559649
    18  H    4.462937   5.974665   5.024312   4.092178   4.685118
    19  H    2.387497   4.725840   4.286446   3.038244   3.346959
    20  O    2.734491   4.187807   3.715452   2.465430   2.818482
    21  C    5.011021   5.565346   5.687693   4.481669   4.403211
    22  H    6.614052   7.373047   7.156864   6.104065   6.229115
    23  H    5.054362   4.902609   5.520507   4.284891   3.891718
    24  H    4.934174   6.073086   6.237769   4.950597   4.845328
    25  H    3.199060   5.587812   3.633764   3.203180   4.387944
    26  H    3.042983   2.140065   3.401050   2.152314   1.081526
    27  C    7.915066   4.168138   6.055783   6.353889   5.553090
    28  C    8.531059   4.789234   7.099294   7.148147   6.122582
    29  H    8.521099   4.656991   6.307945   6.718750   6.017465
    30  H    8.083654   4.665496   6.279426   6.707239   6.022758
    31  O    9.900429   6.176339   8.376000   8.512069   7.522735
    32  H    8.100304   4.659634   7.085324   7.013700   5.921399
    33  H    8.569483   4.685774   7.133759   7.055954   5.952869
    34  H   10.051737   6.522250   8.609339   8.810263   7.872477
    35  H    4.783752   1.080196   3.868101   3.378954   2.141212
    36  H    5.201148   3.387055   2.147053   3.381914   3.863785
                    6          7          8          9         10
     6  C    0.000000
     7  C    1.390314   0.000000
     8  C    4.261533   3.762468   0.000000
     9  C    1.494515   2.472137   5.755022   0.000000
    10  H    3.386247   2.145246   2.686266   4.616723   0.000000
    11  O    5.017719   4.600924   1.421312   6.468981   3.557725
    12  O    4.932601   4.112867   1.338823   6.382054   2.424528
    13  O    2.352281   3.618364   6.416516   1.329941   5.718206
    14  O    2.383747   2.823003   6.476305   1.204324   4.868277
    15  H    5.332802   5.062938   2.700293   6.684696   4.301642
    16  C    5.841687   5.615252   2.575154   7.253719   4.745619
    17  O    7.543206   7.555342   4.922399   8.802443   6.959406
    18  H    6.645041   6.240976   2.934212   8.087601   5.028363
    19  H    5.606078   5.428103   1.891278   7.067167   4.575830
    20  O    5.021060   4.833161   1.489297   6.483902   4.058180
    21  C    6.570942   6.623340   3.799647   7.892666   6.080198
    22  H    8.262816   8.167509   5.247823   9.574120   7.352993
    23  H    6.006534   6.268634   3.955501   7.234451   6.088398
    24  H    7.157326   7.227975   4.096460   8.506433   6.615524
    25  H    5.843030   5.016602   1.915939   7.300150   3.215803
    26  H    3.381587   3.864271   2.722575   4.657194   4.291100
    27  C    3.680309   4.815500   7.834606   2.347035   6.956937
    28  C    4.700785   5.984378   8.562976   3.610281   8.079779
    29  H    4.025516   5.025057   8.212381   2.641700   7.145889
    30  H    4.010474   4.991551   8.182278   2.621144   7.108831
    31  O    5.974258   7.188606   9.945440   4.737175   9.317946
    32  H    4.751968   6.067094   8.365379   3.854596   8.091408
    33  H    4.786983   6.112407   8.428208   3.879983   8.144454
    34  H    6.235604   7.392925  10.246363   4.953334   9.519962
    35  H    2.146936   3.391836   4.646619   2.738469   4.948477
    36  H    2.138439   1.081166   4.635708   2.645910   2.484027
                   11         12         13         14         15
    11  O    0.000000
    12  O    2.297053   0.000000
    13  O    7.047188   7.217314   0.000000
    14  O    7.218086   6.921185   2.234565   0.000000
    15  H    3.858430   2.754336   7.182593   7.442492   0.000000
    16  C    3.392422   2.819641   7.685220   8.082404   1.086988
    17  O    5.633369   5.145047   9.004200   9.697916   2.690186
    18  H    3.573200   2.782281   8.614516   8.843314   1.789022
    19  H    1.714299   2.775679   7.457890   7.955625   2.931952
    20  O    2.081041   2.345943   6.914495   7.354489   2.030956
    21  C    4.382135   4.291634   8.088742   8.841012   2.168777
    22  H    5.839664   5.328135   9.835891  10.442990   3.168611
    23  H    4.598789   4.663453   7.294550   8.244607   2.464992
    24  H    4.323064   4.686765   8.656582   9.494470   3.066052
    25  H    2.346777   0.970365   8.120209   7.836658   3.204438
    26  H    3.184526   3.955730   4.763296   5.731229   3.519466
    27  C    8.452385   8.595822   1.432041   2.646901   8.539224
    28  C    9.095177   9.464343   2.366678   4.126631   9.131741
    29  H    8.973963   8.851505   2.070538   2.643749   8.678248
    30  H    8.694949   8.917617   2.067783   2.608346   9.166878
    31  O   10.481806  10.811816   3.623448   4.992446  10.478154
    32  H    8.737178   9.367317   2.594344   4.515503   9.143198
    33  H    9.048690   9.334410   2.615010   4.535023   8.690737
    34  H   10.695526  11.116647   3.934569   5.099878  10.996576
    35  H    5.204290   5.690437   2.404903   3.939366   5.347154
    36  H    5.451804   4.770137   3.951217   2.501083   5.896456
                   16         17         18         19         20
    16  C    0.000000
    17  O    2.381799   0.000000
    18  H    1.087636   2.700955   0.000000
    19  H    2.128884   4.079556   2.446814   0.000000
    20  O    1.452087   3.623332   2.078430   0.988669   0.000000
    21  C    1.515479   1.405897   2.181037   2.782021   2.382380
    22  H    2.697127   0.963166   2.629715   4.283070   3.972398
    23  H    2.140053   2.022558   3.066830   3.113657   2.615749
    24  H    2.152011   2.078809   2.530444   2.610857   2.617839
    25  H    3.009716   5.258983   2.641537   2.780977   2.629292
    26  H    3.473259   4.987347   4.415679   2.878268   2.474656
    27  C    9.079883  10.305139  10.016858   8.886048   8.342150
    28  C    9.587574  10.580910  10.589711   9.348426   8.859149
    29  H    9.327363  10.467301  10.252438   9.359323   8.726221
    30  H    9.674792  11.067024  10.564030   9.314499   8.831955
    31  O   10.967452  11.901618  11.970904  10.760735  10.264316
    32  H    9.482693  10.537617  10.479530   9.021335   8.636164
    33  H    9.167742   9.949431  10.203701   9.107254   8.567180
    34  H   11.453969  12.522177  12.432298  11.103332  10.658060
    35  H    5.647135   6.922889   6.630755   5.300815   4.816831
    36  H    6.513503   8.457119   7.062831   6.391177   5.798255
                   21         22         23         24         25
    21  C    0.000000
    22  H    1.950746   0.000000
    23  H    1.089310   2.817639   0.000000
    24  H    1.093068   2.257357   1.770936   0.000000
    25  H    4.447547   5.270986   5.001499   4.674360   0.000000
    26  H    3.745078   5.664941   3.148368   4.056674   4.596725
    27  C    9.441686  11.161904   8.608102  10.024262   9.507468
    28  C    9.723617  11.472845   8.792325  10.237916  10.349334
    29  H    9.719320  11.336115   8.897328  10.395754   9.794982
    30  H   10.134698  11.890390   9.351256  10.671906   9.804499
    31  O   11.088437  12.807333  10.141111  11.617544  11.707966
    32  H    9.579865  11.404532   8.653992   9.986832  10.203273
    33  H    9.183479  10.868463   8.207259   9.736466  10.224872
    34  H   11.640254  13.407254  10.721310  12.127751  11.995736
    35  H    5.887347   7.733346   5.074877   6.350840   6.513047
    36  H    7.592078   9.047527   7.272880   8.227690   5.640531
                   26         27         28         29         30
    26  H    0.000000
    27  C    6.163840   0.000000
    28  C    6.505523   1.515697   0.000000
    29  H    6.681504   1.090304   2.161754   0.000000
    30  H    6.699375   1.091432   2.166425   1.773001   0.000000
    31  O    7.917593   2.405854   1.412932   2.677097   2.705559
    32  H    6.211258   2.149261   1.093213   3.062059   2.512055
    33  H    6.234102   2.144159   1.089796   2.483775   3.061261
    34  H    8.307656   2.671337   1.951023   3.082528   2.572491
    35  H    2.465059   3.745810   4.054190   4.335371   4.365442
    36  H    4.945287   4.919479   6.253244   4.996998   4.948492
                   31         32         33         34         35
    31  O    0.000000
    32  H    2.081154   0.000000
    33  H    2.020251   1.768230   0.000000
    34  H    0.962882   2.283312   2.819795   0.000000
    35  H    5.465447   3.850714   3.858370   5.867771   0.000000
    36  H    7.324949   6.437197   6.484544   7.462997   4.275918
                   36
    36  H    0.000000
 Symmetry turned off by external request.
 Stoichiometry    C12H17O7(1+)
 Framework group  C1[X(C12H17O7)]
 Deg. of freedom   102
 Full point group                 C1      NOp   1
 Rotational constants (GHZ):           0.6450203           0.1318633           0.1172489
 Standard basis: def2TZVP (5D, 7F)
   691 basis functions,  1105 primitive gaussians,   786 cartesian basis functions
    72 alpha electrons       72 beta electrons
       nuclear repulsion energy      1449.6818276335 Hartrees.
 NAtoms=   36 NActive=   36 NUniq=   36 SFac= 1.00D+00 NAtFMM=   60 NAOKFM=F Big=F
 Integral buffers will be    131072 words long.
 Raffenetti 2 integral format.
 Two-electron integral symmetry is turned off.
 Using the following non-standard input for PCM:
 PDENS=7.0
 --- end of non-standard input.
 ------------------------------------------------------------------------------
 Polarizable Continuum Model (PCM)
 =================================
 Model                : PCM.
 Atomic radii         : UFF (Universal Force Field).
 Polarization charges : Total charges.
 Charge compensation  : None.
 Solution method      : On-the-fly selection.
 Cavity type          : Scaled VdW (van der Waals Surface) (Alpha=1.100).
 Cavity algorithm     : GePol (No added spheres)
                        Default sphere list used, NSphG=   36.
                        Lebedev-Laikov grids with approx.  7.0 points / Ang**2.
                        Smoothing algorithm: York/Karplus (Gamma=1.0000).
                        Polarization charges: spherical gaussians, with
                                              point-specific exponents (IZeta= 3).
                        Self-potential: point-specific (ISelfS= 7).
                        Self-field    : sphere-specific E.n sum rule (ISelfD= 2).
 1st derivatives      : Analytical E(r).r(x)/FMM algorithm (CHGder, D1EAlg=3).
                        Cavity 1st derivative terms included.
 Solvent              : 1,2-EthaneDiol, Eps=  40.245000 Eps(inf)=   2.050051
 ------------------------------------------------------------------------------
 One-electron integrals computed using PRISM.
   1 Symmetry operations used in ECPInt.
 ECPInt:  NShTT=   38503 NPrTT=  116872 LenC2=   30807 LenP2D=   66553.
 LDataN:  DoStor=T MaxTD1= 6 Len=  172
 NBasis=   691 RedAO= T EigKep=  6.75D-06  NBF=   691
 NBsUse=   691 1.00D-06 EigRej= -1.00D+00 NBFU=   691
 Initial guess from the checkpoint file:  "/dev/shm/tpainter_tsc_ts_ircr_opt.chk"
 B after Tr=    -0.000000    0.000000    0.000000
         Rot=    1.000000    0.000000    0.000000    0.000000 Ang=   0.00 deg.
 Requested convergence on RMS density matrix=1.00D-08 within  32 cycles.
 Requested convergence on MAX density matrix=1.00D-06.
 Requested convergence on             energy=1.00D-06.
 No special actions if energy rises.
 Inv3:  Mode=1 IEnd=    50061675.
 Iteration    1 A*A^-1 deviation from unit magnitude is 3.33D-15 for    990.
 Iteration    1 A*A^-1 deviation from orthogonality  is 2.34D-15 for   3943   3661.
 Iteration    1 A^-1*A deviation from unit magnitude is 3.22D-15 for    888.
 Iteration    1 A^-1*A deviation from orthogonality  is 1.90D-13 for   3412   3403.
 Error on total polarization charges =  0.01299
 SCF Done:  E(RM062X) =  -993.882842812     A.U. after    1 cycles
            NFock=  1  Conv=0.31D-08     -V/T= 2.0045
 QCSCF skips out because SCF is already converged.

 **********************************************************************

            Population analysis using the SCF Density.

 **********************************************************************

 Alpha  occ. eigenvalues --  -19.78393 -19.70674 -19.70057 -19.69004 -19.65079
 Alpha  occ. eigenvalues --  -19.63785 -19.63427 -10.78153 -10.69312 -10.64236
 Alpha  occ. eigenvalues --  -10.61385 -10.60116 -10.59719 -10.59273 -10.58370
 Alpha  occ. eigenvalues --  -10.57852 -10.57674 -10.57419 -10.57252  -1.34819
 Alpha  occ. eigenvalues --   -1.25959  -1.24803  -1.19892  -1.17517  -1.16547
 Alpha  occ. eigenvalues --   -1.15783  -1.00788  -0.93176  -0.91158  -0.88176
 Alpha  occ. eigenvalues --   -0.87455  -0.82706  -0.78722  -0.76345  -0.74067
 Alpha  occ. eigenvalues --   -0.73107  -0.71052  -0.69605  -0.67457  -0.66058
 Alpha  occ. eigenvalues --   -0.65679  -0.63446  -0.61869  -0.60933  -0.59781
 Alpha  occ. eigenvalues --   -0.58755  -0.57865  -0.55257  -0.54993  -0.54620
 Alpha  occ. eigenvalues --   -0.53811  -0.53457  -0.52389  -0.52225  -0.51110
 Alpha  occ. eigenvalues --   -0.50691  -0.48863  -0.48349  -0.47405  -0.46371
 Alpha  occ. eigenvalues --   -0.46073  -0.45642  -0.45024  -0.43479  -0.42586
 Alpha  occ. eigenvalues --   -0.41566  -0.39273  -0.38618  -0.38091  -0.36867
 Alpha  occ. eigenvalues --   -0.34805  -0.34182
 Alpha virt. eigenvalues --   -0.04994  -0.00910   0.02908   0.04989   0.06052
 Alpha virt. eigenvalues --    0.06209   0.06915   0.07442   0.07706   0.08840
 Alpha virt. eigenvalues --    0.09407   0.10051   0.10888   0.11867   0.12388
 Alpha virt. eigenvalues --    0.12990   0.13766   0.14163   0.14502   0.15184
 Alpha virt. eigenvalues --    0.15304   0.16339   0.16415   0.17454   0.18016
 Alpha virt. eigenvalues --    0.18824   0.19210   0.20568   0.21022   0.21356
 Alpha virt. eigenvalues --    0.21679   0.22368   0.22936   0.23421   0.23582
 Alpha virt. eigenvalues --    0.24217   0.24894   0.25196   0.25654   0.26116
 Alpha virt. eigenvalues --    0.26954   0.27591   0.28173   0.28519   0.29251
 Alpha virt. eigenvalues --    0.29469   0.30526   0.31304   0.31972   0.32147
 Alpha virt. eigenvalues --    0.32266   0.33708   0.34077   0.34696   0.35542
 Alpha virt. eigenvalues --    0.36401   0.36766   0.37482   0.37717   0.38367
 Alpha virt. eigenvalues --    0.38925   0.39531   0.39758   0.39998   0.40873
 Alpha virt. eigenvalues --    0.41356   0.41391   0.41773   0.42558   0.42927
 Alpha virt. eigenvalues --    0.43377   0.44116   0.44661   0.44930   0.45108
 Alpha virt. eigenvalues --    0.45715   0.46807   0.46951   0.47345   0.48070
 Alpha virt. eigenvalues --    0.48501   0.48909   0.49575   0.50033   0.50245
 Alpha virt. eigenvalues --    0.50970   0.51730   0.52026   0.52848   0.53236
 Alpha virt. eigenvalues --    0.53754   0.54085   0.54649   0.55782   0.56361
 Alpha virt. eigenvalues --    0.56494   0.57384   0.57610   0.59009   0.60715
 Alpha virt. eigenvalues --    0.61475   0.61948   0.62153   0.63313   0.63636
 Alpha virt. eigenvalues --    0.64255   0.64538   0.65641   0.66534   0.66946
 Alpha virt. eigenvalues --    0.67750   0.68198   0.68500   0.69441   0.70404
 Alpha virt. eigenvalues --    0.71102   0.72120   0.73502   0.73994   0.74424
 Alpha virt. eigenvalues --    0.75481   0.75995   0.76502   0.77157   0.77447
 Alpha virt. eigenvalues --    0.79118   0.79406   0.80478   0.81169   0.81636
 Alpha virt. eigenvalues --    0.82016   0.82732   0.84439   0.85266   0.85868
 Alpha virt. eigenvalues --    0.87151   0.87654   0.88040   0.88822   0.89044
 Alpha virt. eigenvalues --    0.89653   0.90402   0.91016   0.92246   0.93295
 Alpha virt. eigenvalues --    0.94081   0.94298   0.94679   0.95896   0.96795
 Alpha virt. eigenvalues --    0.98706   0.99798   1.00068   1.00635   1.01371
 Alpha virt. eigenvalues --    1.03570   1.05383   1.06056   1.06892   1.07622
 Alpha virt. eigenvalues --    1.08902   1.09399   1.10661   1.12008   1.13121
 Alpha virt. eigenvalues --    1.13851   1.15464   1.16715   1.19196   1.20472
 Alpha virt. eigenvalues --    1.20652   1.21945   1.22707   1.23883   1.24536
 Alpha virt. eigenvalues --    1.25419   1.27145   1.27693   1.30963   1.31519
 Alpha virt. eigenvalues --    1.33121   1.33379   1.33733   1.35556   1.37794
 Alpha virt. eigenvalues --    1.38742   1.39613   1.40224   1.40566   1.41570
 Alpha virt. eigenvalues --    1.42998   1.43886   1.45509   1.45814   1.47318
 Alpha virt. eigenvalues --    1.48583   1.49634   1.50832   1.51760   1.52445
 Alpha virt. eigenvalues --    1.53579   1.53975   1.54343   1.54896   1.55904
 Alpha virt. eigenvalues --    1.56284   1.57294   1.58726   1.59149   1.59206
 Alpha virt. eigenvalues --    1.60788   1.60976   1.61831   1.62249   1.63077
 Alpha virt. eigenvalues --    1.63266   1.63629   1.63940   1.65012   1.66512
 Alpha virt. eigenvalues --    1.66979   1.68034   1.68809   1.69395   1.70073
 Alpha virt. eigenvalues --    1.70334   1.73038   1.74550   1.75425   1.76897
 Alpha virt. eigenvalues --    1.78023   1.78510   1.79605   1.80600   1.82409
 Alpha virt. eigenvalues --    1.82994   1.83423   1.83877   1.85019   1.85765
 Alpha virt. eigenvalues --    1.87116   1.87410   1.87943   1.89354   1.89475
 Alpha virt. eigenvalues --    1.89706   1.91167   1.92402   1.92629   1.93173
 Alpha virt. eigenvalues --    1.93504   1.95927   1.96982   1.98940   2.00088
 Alpha virt. eigenvalues --    2.00377   2.01193   2.02040   2.03468   2.04311
 Alpha virt. eigenvalues --    2.04877   2.05451   2.06682   2.07497   2.08018
 Alpha virt. eigenvalues --    2.10027   2.10776   2.11993   2.12813   2.13388
 Alpha virt. eigenvalues --    2.15838   2.16297   2.16902   2.18630   2.19581
 Alpha virt. eigenvalues --    2.20240   2.21321   2.21455   2.23739   2.24127
 Alpha virt. eigenvalues --    2.25959   2.26162   2.26655   2.28153   2.28384
 Alpha virt. eigenvalues --    2.29080   2.29480   2.31089   2.32453   2.32763
 Alpha virt. eigenvalues --    2.33492   2.33648   2.34631   2.35855   2.37358
 Alpha virt. eigenvalues --    2.38265   2.39340   2.39547   2.40862   2.41539
 Alpha virt. eigenvalues --    2.42510   2.43334   2.44976   2.45701   2.45885
 Alpha virt. eigenvalues --    2.48055   2.49813   2.50380   2.50968   2.52575
 Alpha virt. eigenvalues --    2.53685   2.54401   2.54842   2.56970   2.57711
 Alpha virt. eigenvalues --    2.58636   2.58885   2.60676   2.60900   2.62313
 Alpha virt. eigenvalues --    2.62768   2.63761   2.64146   2.65007   2.66134
 Alpha virt. eigenvalues --    2.66677   2.67601   2.68741   2.68869   2.70435
 Alpha virt. eigenvalues --    2.70888   2.71071   2.71434   2.72430   2.72880
 Alpha virt. eigenvalues --    2.74708   2.75167   2.75486   2.76423   2.78046
 Alpha virt. eigenvalues --    2.79226   2.80422   2.80703   2.81466   2.82401
 Alpha virt. eigenvalues --    2.83981   2.84435   2.84967   2.85559   2.86252
 Alpha virt. eigenvalues --    2.87449   2.88779   2.88996   2.89864   2.90130
 Alpha virt. eigenvalues --    2.91284   2.92202   2.94747   2.95035   2.95423
 Alpha virt. eigenvalues --    2.96285   2.96822   2.98041   2.99365   3.00158
 Alpha virt. eigenvalues --    3.01086   3.02309   3.03453   3.04013   3.05311
 Alpha virt. eigenvalues --    3.06648   3.07103   3.07929   3.08821   3.09338
 Alpha virt. eigenvalues --    3.10540   3.11286   3.12227   3.13278   3.13826
 Alpha virt. eigenvalues --    3.14222   3.14640   3.15604   3.16884   3.17330
 Alpha virt. eigenvalues --    3.18955   3.19542   3.20219   3.21128   3.21436
 Alpha virt. eigenvalues --    3.23404   3.23788   3.24350   3.25622   3.25903
 Alpha virt. eigenvalues --    3.26736   3.27817   3.28625   3.28672   3.30571
 Alpha virt. eigenvalues --    3.31321   3.32020   3.32652   3.33838   3.34263
 Alpha virt. eigenvalues --    3.34840   3.35608   3.35967   3.36483   3.36656
 Alpha virt. eigenvalues --    3.38354   3.39126   3.40129   3.40397   3.40732
 Alpha virt. eigenvalues --    3.41085   3.42275   3.42743   3.44245   3.44864
 Alpha virt. eigenvalues --    3.46762   3.47713   3.48456   3.49212   3.49835
 Alpha virt. eigenvalues --    3.50798   3.51435   3.53339   3.54399   3.55098
 Alpha virt. eigenvalues --    3.56868   3.57376   3.58646   3.61484   3.62131
 Alpha virt. eigenvalues --    3.63514   3.64564   3.66020   3.67557   3.68441
 Alpha virt. eigenvalues --    3.69611   3.71593   3.72999   3.76035   3.76297
 Alpha virt. eigenvalues --    3.78290   3.80802   3.82242   3.83450   3.83669
 Alpha virt. eigenvalues --    3.83987   3.85833   3.87377   3.88373   3.89597
 Alpha virt. eigenvalues --    3.91024   3.91967   3.92991   3.95593   3.96692
 Alpha virt. eigenvalues --    3.99296   4.01315   4.02230   4.04515   4.05280
 Alpha virt. eigenvalues --    4.07971   4.09034   4.13145   4.14302   4.15497
 Alpha virt. eigenvalues --    4.17346   4.18507   4.19292   4.20360   4.20535
 Alpha virt. eigenvalues --    4.22146   4.24604   4.25438   4.26038   4.26586
 Alpha virt. eigenvalues --    4.28799   4.33170   4.34174   4.35471   4.37996
 Alpha virt. eigenvalues --    4.39019   4.43579   4.46486   4.47206   4.50900
 Alpha virt. eigenvalues --    4.54406   4.56086   4.57940   4.58537   4.59227
 Alpha virt. eigenvalues --    4.63081   4.64025   4.65744   4.68584   4.69919
 Alpha virt. eigenvalues --    4.72781   4.75178   4.79028   4.81838   4.86155
 Alpha virt. eigenvalues --    4.88820   4.89035   4.90770   4.98234   5.03884
 Alpha virt. eigenvalues --    5.11550   5.16754   5.17032   5.18260   5.20545
 Alpha virt. eigenvalues --    5.24119   5.25464   5.26227   5.26970   5.28081
 Alpha virt. eigenvalues --    5.31814   5.32610   5.33390   5.35093   5.36273
 Alpha virt. eigenvalues --    5.38920   5.40245   5.42985   5.45508   5.46267
 Alpha virt. eigenvalues --    5.46920   5.47067   5.50300   5.50520   5.54588
 Alpha virt. eigenvalues --    5.56958   5.62470   5.67111   5.67235   5.69437
 Alpha virt. eigenvalues --    5.71366   5.72874   5.73121   5.75374   5.78752
 Alpha virt. eigenvalues --    5.82305   5.85881   5.86295   5.87234   5.90200
 Alpha virt. eigenvalues --    5.91857   5.98490   6.04839   6.10554   6.14779
 Alpha virt. eigenvalues --    6.16364   6.16776   6.21156   6.23522   6.25114
 Alpha virt. eigenvalues --    6.26163   6.28224   6.30159   6.34103   6.41103
 Alpha virt. eigenvalues --    6.43120   6.44038   6.48579   6.49718   6.55143
 Alpha virt. eigenvalues --    6.59268   6.63143   6.63899   6.64488   6.64632
 Alpha virt. eigenvalues --    6.68954   6.71105   6.74476   6.74685   6.78184
 Alpha virt. eigenvalues --    6.78630   6.85545   6.87632   6.92303   6.92495
 Alpha virt. eigenvalues --    6.93402   6.93789   6.94599   6.96717   7.00005
 Alpha virt. eigenvalues --    7.05585   7.09425   7.10268   7.10433   7.13352
 Alpha virt. eigenvalues --    7.14685   7.33269   7.34586   7.36512   7.42610
 Alpha virt. eigenvalues --   22.26346  22.47797  22.52758  22.57635  22.62396
 Alpha virt. eigenvalues --   22.79414  22.80978  22.86394  22.92244  23.03074
 Alpha virt. eigenvalues --   23.39526  23.62159  43.90136  43.90347  44.04487
 Alpha virt. eigenvalues --   44.06706  44.15697  44.43406  44.52841
          Condensed to atoms (all electrons):
               1          2          3          4          5          6
     1  H    0.303800  -0.000348   0.002641   0.004221  -0.003910   0.000030
     2  C   -0.000348   5.066146  -0.053377   0.001476   0.443878   0.435959
     3  C    0.002641  -0.053377   5.189296   0.264653  -0.021359   0.010713
     4  C    0.004221   0.001476   0.264653   5.521932   0.359201  -0.086035
     5  C   -0.003910   0.443878  -0.021359   0.359201   5.069039  -0.031562
     6  C    0.000030   0.435959   0.010713  -0.086035  -0.031562   5.200552
     7  C   -0.000389  -0.040244   0.337300   0.044171  -0.046651   0.357447
     8  C   -0.016036  -0.023576  -0.003005   0.196517  -0.044773   0.004680
     9  C   -0.000001  -0.060888  -0.000966  -0.001628   0.003097   0.352122
    10  H    0.000098  -0.001592   0.414168  -0.034804   0.006912   0.005693
    11  O    0.305052  -0.002137   0.000034  -0.083655   0.007800   0.000200
    12  O    0.002807  -0.000322   0.020521  -0.157451   0.003740   0.000342
    13  O   -0.000000   0.025551  -0.000099   0.000215  -0.000231  -0.131783
    14  O   -0.000000   0.006173   0.003777  -0.000140  -0.000108  -0.142026
    15  H   -0.000001  -0.001195   0.002996  -0.008934  -0.003975   0.000099
    16  C   -0.000099   0.000204   0.000283   0.008125  -0.007025  -0.000087
    17  O   -0.000001  -0.000005   0.000000  -0.000244   0.000057   0.000000
    18  H   -0.000049   0.000036  -0.000399  -0.000649   0.000963  -0.000007
    19  H   -0.001177  -0.000190  -0.000122  -0.000281  -0.002936   0.000008
    20  O    0.004209  -0.004180   0.002135  -0.006620   0.004706   0.000410
    21  C   -0.000013   0.000165  -0.000219  -0.001473   0.000412  -0.000029
    22  H   -0.000000   0.000001  -0.000003  -0.000020   0.000011  -0.000000
    23  H   -0.000007   0.000613  -0.000327  -0.001849   0.001908  -0.000025
    24  H    0.000004  -0.000087   0.000070   0.000033  -0.000483   0.000002
    25  H   -0.000087  -0.000006  -0.000527   0.015651  -0.000874   0.000015
    26  H    0.000139  -0.014872   0.005005  -0.043380   0.407833   0.004765
    27  C    0.000000  -0.004206  -0.000139   0.000001  -0.000542   0.008858
    28  C   -0.000000  -0.000713  -0.000007   0.000002   0.000028   0.002530
    29  H    0.000000   0.000518   0.000002   0.000002   0.000023  -0.000420
    30  H   -0.000000   0.000512   0.000009  -0.000002   0.000039  -0.000230
    31  O   -0.000000   0.000024   0.000000  -0.000000   0.000001   0.000024
    32  H   -0.000000   0.000307   0.000001   0.000002   0.000026  -0.000550
    33  H   -0.000000   0.000221   0.000002  -0.000001   0.000036  -0.000185
    34  H   -0.000000   0.000002   0.000000  -0.000000   0.000000   0.000000
    35  H    0.000007   0.412486  -0.000423   0.005504  -0.029380  -0.028121
    36  H    0.000000   0.006635  -0.030270   0.007878  -0.001303  -0.040724
               7          8          9         10         11         12
     1  H   -0.000389  -0.016036  -0.000001   0.000098   0.305052   0.002807
     2  C   -0.040244  -0.023576  -0.060888  -0.001592  -0.002137  -0.000322
     3  C    0.337300  -0.003005  -0.000966   0.414168   0.000034   0.020521
     4  C    0.044171   0.196517  -0.001628  -0.034804  -0.083655  -0.157451
     5  C   -0.046651  -0.044773   0.003097   0.006912   0.007800   0.003740
     6  C    0.357447   0.004680   0.352122   0.005693   0.000200   0.000342
     7  C    5.172271  -0.012700  -0.056474  -0.026542   0.000259  -0.006810
     8  C   -0.012700   4.754550  -0.001126  -0.010752   0.318632   0.426101
     9  C   -0.056474  -0.001126   4.427035  -0.000029  -0.000005  -0.000025
    10  H   -0.026542  -0.010752  -0.000029   0.446295   0.000851   0.011223
    11  O    0.000259   0.318632  -0.000005   0.000851   8.097703  -0.057956
    12  O   -0.006810   0.426101  -0.000025   0.011223  -0.057956   7.927063
    13  O    0.008185  -0.000004   0.387013   0.000002  -0.000000   0.000000
    14  O    0.027679  -0.000007   0.652780  -0.000054  -0.000000   0.000000
    15  H   -0.000323   0.019455  -0.000004   0.000024   0.000231  -0.000092
    16  C   -0.000226  -0.025426   0.000001   0.000071   0.002450   0.005520
    17  O    0.000000   0.000962  -0.000000  -0.000000   0.000004   0.000013
    18  H    0.000043  -0.001609  -0.000000  -0.000020   0.000205   0.002410
    19  H   -0.000071  -0.004575  -0.000000  -0.000039   0.026398  -0.000844
    20  O   -0.001041   0.130692  -0.000003   0.000556  -0.146771  -0.066262
    21  C    0.000096  -0.000151  -0.000001   0.000001  -0.000159   0.002557
    22  H    0.000000   0.000066  -0.000000  -0.000000  -0.000001  -0.000007
    23  H    0.000036   0.000711  -0.000001  -0.000002  -0.000031  -0.000105
    24  H   -0.000004   0.001393  -0.000000   0.000000   0.000059   0.000019
    25  H   -0.000035  -0.015096   0.000001  -0.000265  -0.003018   0.300508
    26  H   -0.000915   0.000319  -0.000083  -0.000091   0.001365   0.000261
    27  C    0.000027  -0.000003  -0.044152  -0.000000  -0.000000  -0.000000
    28  C   -0.000131   0.000000   0.000212   0.000000  -0.000000  -0.000000
    29  H   -0.000165   0.000000  -0.003042   0.000000  -0.000000   0.000000
    30  H   -0.000188  -0.000000  -0.004813   0.000000   0.000000  -0.000000
    31  O   -0.000002   0.000000   0.001139   0.000000  -0.000000   0.000000
    32  H   -0.000004   0.000000   0.002314  -0.000000  -0.000000   0.000000
    33  H   -0.000012   0.000000  -0.000061   0.000000   0.000000  -0.000000
    34  H   -0.000000   0.000000   0.000013   0.000000   0.000000   0.000000
    35  H    0.004552  -0.000394  -0.011088   0.000040  -0.000030   0.000001
    36  H    0.417111  -0.000595  -0.011126  -0.002954   0.000007  -0.000096
              13         14         15         16         17         18
     1  H   -0.000000  -0.000000  -0.000001  -0.000099  -0.000001  -0.000049
     2  C    0.025551   0.006173  -0.001195   0.000204  -0.000005   0.000036
     3  C   -0.000099   0.003777   0.002996   0.000283   0.000000  -0.000399
     4  C    0.000215  -0.000140  -0.008934   0.008125  -0.000244  -0.000649
     5  C   -0.000231  -0.000108  -0.003975  -0.007025   0.000057   0.000963
     6  C   -0.131783  -0.142026   0.000099  -0.000087   0.000000  -0.000007
     7  C    0.008185   0.027679  -0.000323  -0.000226   0.000000   0.000043
     8  C   -0.000004  -0.000007   0.019455  -0.025426   0.000962  -0.001609
     9  C    0.387013   0.652780  -0.000004   0.000001  -0.000000  -0.000000
    10  H    0.000002  -0.000054   0.000024   0.000071  -0.000000  -0.000020
    11  O   -0.000000  -0.000000   0.000231   0.002450   0.000004   0.000205
    12  O    0.000000   0.000000  -0.000092   0.005520   0.000013   0.002410
    13  O    7.969947  -0.081033  -0.000000   0.000000  -0.000000  -0.000000
    14  O   -0.081033   7.888687   0.000000  -0.000000   0.000000  -0.000000
    15  H   -0.000000   0.000000   0.456690   0.398064   0.007690  -0.025351
    16  C    0.000000  -0.000000   0.398064   5.118761  -0.048963   0.408389
    17  O   -0.000000   0.000000   0.007690  -0.048963   8.050230   0.003707
    18  H   -0.000000  -0.000000  -0.025351   0.408389   0.003707   0.475609
    19  H   -0.000000  -0.000000   0.003542  -0.016098   0.000118  -0.003640
    20  O   -0.000000   0.000000  -0.024095   0.133502   0.004090  -0.026853
    21  C   -0.000000   0.000000  -0.028743   0.269478   0.244920  -0.026622
    22  H    0.000000   0.000000  -0.001282  -0.005164   0.305905   0.004193
    23  H    0.000000  -0.000000  -0.008037  -0.041411  -0.030949   0.006199
    24  H   -0.000000   0.000000   0.006689  -0.058341  -0.037978  -0.007972
    25  H   -0.000000   0.000000   0.000176  -0.001596  -0.000007  -0.000509
    26  H   -0.000048   0.000005   0.000169  -0.001173   0.000025   0.000056
    27  C    0.164315  -0.002772  -0.000000  -0.000000  -0.000000   0.000000
    28  C   -0.038417   0.004068  -0.000000  -0.000000   0.000000  -0.000000
    29  H   -0.029974   0.004416   0.000000  -0.000000  -0.000000  -0.000000
    30  H   -0.030100   0.005368  -0.000000   0.000000   0.000000   0.000000
    31  O    0.004456   0.000023  -0.000000  -0.000000   0.000000   0.000000
    32  H    0.006387  -0.000095   0.000000  -0.000000  -0.000000  -0.000000
    33  H    0.004060  -0.000081  -0.000000   0.000000   0.000000   0.000000
    34  H   -0.000022  -0.000013  -0.000000  -0.000000   0.000000   0.000000
    35  H    0.011621   0.000308  -0.000002   0.000021  -0.000000  -0.000000
    36  H    0.000779   0.016775  -0.000003   0.000001  -0.000000   0.000000
              19         20         21         22         23         24
     1  H   -0.001177   0.004209  -0.000013  -0.000000  -0.000007   0.000004
     2  C   -0.000190  -0.004180   0.000165   0.000001   0.000613  -0.000087
     3  C   -0.000122   0.002135  -0.000219  -0.000003  -0.000327   0.000070
     4  C   -0.000281  -0.006620  -0.001473  -0.000020  -0.001849   0.000033
     5  C   -0.002936   0.004706   0.000412   0.000011   0.001908  -0.000483
     6  C    0.000008   0.000410  -0.000029  -0.000000  -0.000025   0.000002
     7  C   -0.000071  -0.001041   0.000096   0.000000   0.000036  -0.000004
     8  C   -0.004575   0.130692  -0.000151   0.000066   0.000711   0.001393
     9  C   -0.000000  -0.000003  -0.000001  -0.000000  -0.000001  -0.000000
    10  H   -0.000039   0.000556   0.000001  -0.000000  -0.000002   0.000000
    11  O    0.026398  -0.146771  -0.000159  -0.000001  -0.000031   0.000059
    12  O   -0.000844  -0.066262   0.002557  -0.000007  -0.000105   0.000019
    13  O   -0.000000  -0.000000  -0.000000   0.000000   0.000000  -0.000000
    14  O   -0.000000   0.000000   0.000000   0.000000  -0.000000   0.000000
    15  H    0.003542  -0.024095  -0.028743  -0.001282  -0.008037   0.006689
    16  C   -0.016098   0.133502   0.269478  -0.005164  -0.041411  -0.058341
    17  O    0.000118   0.004090   0.244920   0.305905  -0.030949  -0.037978
    18  H   -0.003640  -0.026853  -0.026622   0.004193   0.006199  -0.007972
    19  H    0.276136   0.286892  -0.002962  -0.000055  -0.000748   0.003764
    20  O    0.286892   7.878334  -0.012786  -0.000103   0.001684   0.003947
    21  C   -0.002962  -0.012786   4.814672  -0.028910   0.411011   0.438900
    22  H   -0.000055  -0.000103  -0.028910   0.371714   0.008278  -0.011213
    23  H   -0.000748   0.001684   0.411011   0.008278   0.528966  -0.037252
    24  H    0.003764   0.003947   0.438900  -0.011213  -0.037252   0.535361
    25  H    0.000493  -0.001074  -0.000090  -0.000005  -0.000019   0.000041
    26  H   -0.000804   0.005933  -0.000159  -0.000002  -0.000263   0.000067
    27  C   -0.000000  -0.000000   0.000000  -0.000000   0.000000  -0.000000
    28  C   -0.000000   0.000000  -0.000000  -0.000000  -0.000000   0.000000
    29  H   -0.000000  -0.000000   0.000000  -0.000000  -0.000000   0.000000
    30  H    0.000000   0.000000  -0.000000   0.000000   0.000000  -0.000000
    31  O   -0.000000   0.000000   0.000000   0.000000   0.000000  -0.000000
    32  H   -0.000000   0.000000   0.000000   0.000000  -0.000000   0.000000
    33  H    0.000000  -0.000000  -0.000000   0.000000   0.000000   0.000000
    34  H   -0.000000  -0.000000   0.000000   0.000000   0.000000   0.000000
    35  H   -0.000003  -0.000045   0.000001   0.000000  -0.000001  -0.000001
    36  H   -0.000001   0.000002   0.000000   0.000000   0.000000  -0.000000
              25         26         27         28         29         30
     1  H   -0.000087   0.000139   0.000000  -0.000000   0.000000  -0.000000
     2  C   -0.000006  -0.014872  -0.004206  -0.000713   0.000518   0.000512
     3  C   -0.000527   0.005005  -0.000139  -0.000007   0.000002   0.000009
     4  C    0.015651  -0.043380   0.000001   0.000002   0.000002  -0.000002
     5  C   -0.000874   0.407833  -0.000542   0.000028   0.000023   0.000039
     6  C    0.000015   0.004765   0.008858   0.002530  -0.000420  -0.000230
     7  C   -0.000035  -0.000915   0.000027  -0.000131  -0.000165  -0.000188
     8  C   -0.015096   0.000319  -0.000003   0.000000   0.000000  -0.000000
     9  C    0.000001  -0.000083  -0.044152   0.000212  -0.003042  -0.004813
    10  H   -0.000265  -0.000091  -0.000000   0.000000   0.000000   0.000000
    11  O   -0.003018   0.001365  -0.000000  -0.000000  -0.000000   0.000000
    12  O    0.300508   0.000261  -0.000000  -0.000000   0.000000  -0.000000
    13  O   -0.000000  -0.000048   0.164315  -0.038417  -0.029974  -0.030100
    14  O    0.000000   0.000005  -0.002772   0.004068   0.004416   0.005368
    15  H    0.000176   0.000169  -0.000000  -0.000000   0.000000  -0.000000
    16  C   -0.001596  -0.001173  -0.000000  -0.000000  -0.000000   0.000000
    17  O   -0.000007   0.000025  -0.000000   0.000000  -0.000000   0.000000
    18  H   -0.000509   0.000056   0.000000  -0.000000  -0.000000   0.000000
    19  H    0.000493  -0.000804  -0.000000  -0.000000  -0.000000   0.000000
    20  O   -0.001074   0.005933  -0.000000   0.000000  -0.000000   0.000000
    21  C   -0.000090  -0.000159   0.000000  -0.000000   0.000000  -0.000000
    22  H   -0.000005  -0.000002  -0.000000  -0.000000  -0.000000   0.000000
    23  H   -0.000019  -0.000263   0.000000  -0.000000  -0.000000   0.000000
    24  H    0.000041   0.000067  -0.000000   0.000000   0.000000  -0.000000
    25  H    0.313831  -0.000018  -0.000000   0.000000   0.000000   0.000000
    26  H   -0.000018   0.441685   0.000004  -0.000001  -0.000000  -0.000000
    27  C   -0.000000   0.000004   5.044179   0.306156   0.407239   0.410516
    28  C    0.000000  -0.000001   0.306156   4.822298  -0.030256  -0.033747
    29  H    0.000000  -0.000000   0.407239  -0.030256   0.535870  -0.045460
    30  H    0.000000  -0.000000   0.410516  -0.033747  -0.045460   0.538449
    31  O    0.000000  -0.000000  -0.043244   0.232498   0.007845   0.002836
    32  H    0.000000  -0.000001  -0.060627   0.435482   0.009368  -0.011127
    33  H    0.000000   0.000000  -0.042452   0.404432  -0.011206   0.008452
    34  H    0.000000   0.000000  -0.004941  -0.032908  -0.001295   0.004626
    35  H   -0.000000  -0.002998  -0.000797  -0.000379   0.000092   0.000076
    36  H   -0.000001   0.000042  -0.000062  -0.000009  -0.000013  -0.000010
              31         32         33         34         35         36
     1  H   -0.000000  -0.000000  -0.000000  -0.000000   0.000007   0.000000
     2  C    0.000024   0.000307   0.000221   0.000002   0.412486   0.006635
     3  C    0.000000   0.000001   0.000002   0.000000  -0.000423  -0.030270
     4  C   -0.000000   0.000002  -0.000001  -0.000000   0.005504   0.007878
     5  C    0.000001   0.000026   0.000036   0.000000  -0.029380  -0.001303
     6  C    0.000024  -0.000550  -0.000185   0.000000  -0.028121  -0.040724
     7  C   -0.000002  -0.000004  -0.000012  -0.000000   0.004552   0.417111
     8  C    0.000000   0.000000   0.000000   0.000000  -0.000394  -0.000595
     9  C    0.001139   0.002314  -0.000061   0.000013  -0.011088  -0.011126
    10  H    0.000000  -0.000000   0.000000   0.000000   0.000040  -0.002954
    11  O   -0.000000  -0.000000   0.000000   0.000000  -0.000030   0.000007
    12  O    0.000000   0.000000  -0.000000   0.000000   0.000001  -0.000096
    13  O    0.004456   0.006387   0.004060  -0.000022   0.011621   0.000779
    14  O    0.000023  -0.000095  -0.000081  -0.000013   0.000308   0.016775
    15  H   -0.000000   0.000000  -0.000000  -0.000000  -0.000002  -0.000003
    16  C   -0.000000  -0.000000   0.000000  -0.000000   0.000021   0.000001
    17  O    0.000000  -0.000000   0.000000   0.000000  -0.000000  -0.000000
    18  H    0.000000  -0.000000   0.000000   0.000000  -0.000000   0.000000
    19  H   -0.000000  -0.000000   0.000000  -0.000000  -0.000003  -0.000001
    20  O    0.000000   0.000000  -0.000000  -0.000000  -0.000045   0.000002
    21  C    0.000000   0.000000  -0.000000   0.000000   0.000001   0.000000
    22  H    0.000000   0.000000   0.000000   0.000000   0.000000   0.000000
    23  H    0.000000  -0.000000   0.000000   0.000000  -0.000001   0.000000
    24  H   -0.000000   0.000000   0.000000   0.000000  -0.000001  -0.000000
    25  H    0.000000   0.000000   0.000000   0.000000  -0.000000  -0.000001
    26  H   -0.000000  -0.000001   0.000000   0.000000  -0.002998   0.000042
    27  C   -0.043244  -0.060627  -0.042452  -0.004941  -0.000797  -0.000062
    28  C    0.232498   0.435482   0.404432  -0.032908  -0.000379  -0.000009
    29  H    0.007845   0.009368  -0.011206  -0.001295   0.000092  -0.000013
    30  H    0.002836  -0.011127   0.008452   0.004626   0.000076  -0.000010
    31  O    8.075713  -0.040442  -0.032597   0.304799   0.000006  -0.000000
    32  H   -0.040442   0.567934  -0.042160  -0.010637   0.000279   0.000000
    33  H   -0.032597  -0.042160   0.557203   0.009156  -0.000055   0.000000
    34  H    0.304799  -0.010637   0.009156   0.384081  -0.000001   0.000000
    35  H    0.000006   0.000279  -0.000055  -0.000001   0.449547  -0.000098
    36  H   -0.000000   0.000000   0.000000   0.000000  -0.000098   0.452484
 Mulliken charges:
               1
     1  H    0.399109
     2  C   -0.192971
     3  C   -0.142365
     4  C   -0.002417
     5  C   -0.114596
     6  C    0.077338
     7  C   -0.176253
     8  C    0.305747
     9  C    0.369789
    10  H    0.191209
    11  O   -0.467487
    12  O   -0.413116
    13  O   -0.270819
    14  O   -0.383730
    15  H    0.206211
    16  C   -0.139260
    17  O   -0.499573
    18  H    0.191870
    19  H    0.437194
    20  O   -0.167257
    21  C   -0.079897
    22  H    0.356597
    23  H    0.161623
    24  H    0.162981
    25  H    0.392510
    26  H    0.197136
    27  C   -0.137360
    28  C   -0.071139
    29  H    0.156458
    30  H    0.154792
    31  O   -0.513078
    32  H    0.143543
    33  H    0.145248
    34  H    0.347140
    35  H    0.189276
    36  H    0.185550
 Sum of Mulliken charges =   1.00000
 Mulliken charges with hydrogens summed into heavy atoms:
               1
     2  C   -0.003695
     3  C    0.048845
     4  C   -0.002417
     5  C    0.082539
     6  C    0.077338
     7  C    0.009297
     8  C    0.305747
     9  C    0.369789
    11  O   -0.068378
    12  O   -0.020606
    13  O   -0.270819
    14  O   -0.383730
    16  C    0.258821
    17  O   -0.142977
    20  O    0.269937
    21  C    0.244707
    27  C    0.173890
    28  C    0.217651
    31  O   -0.165938
 Electronic spatial extent (au):  <R**2>=           8837.9664
 Charge=              1.0000 electrons
 Dipole moment (field-independent basis, Debye):
    X=              6.2920    Y=            -17.6417    Z=              1.4253  Tot=             18.7843
 Quadrupole moment (field-independent basis, Debye-Ang):
   XX=            -69.6340   YY=            -61.3576   ZZ=           -109.3546
   XY=            -37.8499   XZ=              5.5967   YZ=             -2.5267
 Traceless Quadrupole moment (field-independent basis, Debye-Ang):
   XX=             10.4814   YY=             18.7578   ZZ=            -29.2392
   XY=            -37.8499   XZ=              5.5967   YZ=             -2.5267
 Octapole moment (field-independent basis, Debye-Ang**2):
  XXX=              7.9023  YYY=           -321.8273  ZZZ=             51.9775  XYY=            167.3498
  XXY=            -94.9339  XXZ=             23.9409  XZZ=             30.0700  YZZ=            -65.2805
  YYZ=             16.5227  XYZ=            -13.9776
 Hexadecapole moment (field-independent basis, Debye-Ang**3):
 XXXX=          -3024.4282 YYYY=          -4699.4734 ZZZZ=          -1688.5505 XXXY=           1149.7497
 XXXZ=            -72.1195 YYYX=           1558.3060 YYYZ=            465.2654 ZZZX=            -99.2454
 ZZZY=            257.5100 XXYY=           -812.3708 XXZZ=          -1096.3104 YYZZ=          -1250.1898
 XXYZ=            153.0349 YYXZ=           -239.9204 ZZXY=            800.5792
 N-N= 1.449681827634D+03 E-N=-5.206302197195D+03  KE= 9.894651064151D+02
   1 Symmetry operations used in ECPInt.
 ECPInt:  NShTT=   38503 NPrTT=  116872 LenC2=   30807 LenP2D=   66553.
 LDataN:  DoStor=T MaxTD1= 7 Len=  274
 D1PCM: PCM CHGder 1st derivatives, ID1Alg=3 FixD1E=F DoIter=F DoCFld=F I1PDM=0.
 Calling FoFJK, ICntrl=      2127 FMM=F ISym2X=0 I1Cent= 0 IOpClX= 0 NMat=1 NMatS=1 NMatT=0.
 -------------------------------------------------------------------
 Center     Atomic                   Forces (Hartrees/Bohr)
 Number     Number              X              Y              Z
 -------------------------------------------------------------------
      1        1          -0.000004222    0.002294324    0.002093941
      2        6           0.000227803    0.000278312   -0.000046445
      3        6           0.000605457   -0.000323306   -0.000716348
      4        6           0.000402447   -0.001782059   -0.000843844
      5        6          -0.000033274   -0.000116674   -0.000097288
      6        6          -0.000053140    0.000078449   -0.000072050
      7        6           0.000171994   -0.000229913   -0.000215359
      8        6          -0.021405197   -0.018736694    0.014851922
      9        6           0.000008136   -0.000093347    0.000049346
     10        1          -0.000065722   -0.000073248   -0.000000577
     11        8          -0.005588114    0.016601723    0.021624019
     12        8           0.000577360   -0.002217083   -0.006469001
     13        8          -0.000026500    0.000037680   -0.000029187
     14        8          -0.000013769    0.000034474   -0.000020233
     15        1           0.000258342    0.000057292   -0.000139771
     16        6           0.005202914    0.001321788   -0.002856292
     17        8           0.000441448    0.000138051   -0.000146976
     18        1           0.000012762    0.000037446    0.000190240
     19        1           0.009465809   -0.002804695   -0.011822250
     20        8           0.009717117    0.005866109   -0.014050440
     21        6           0.001634098   -0.000266554   -0.002283827
     22        1           0.000035385   -0.000042107   -0.000183703
     23        1           0.000032433    0.000013607   -0.000033848
     24        1           0.000097479   -0.000031366   -0.000350051
     25        1          -0.001416963    0.000052773    0.001505742
     26        1          -0.000280140   -0.000051993    0.000018361
     27        6           0.000016910   -0.000005379    0.000010366
     28        6           0.000003644    0.000005230    0.000013655
     29        1          -0.000001077    0.000001999   -0.000001586
     30        1          -0.000000330    0.000004051   -0.000000731
     31        8          -0.000005591    0.000005994   -0.000005137
     32        1           0.000000088    0.000000446    0.000000996
     33        1          -0.000000375    0.000000301    0.000000375
     34        1           0.000002733    0.000002509    0.000004200
     35        1          -0.000007390   -0.000001742    0.000004328
     36        1          -0.000012556   -0.000056399    0.000017455
 -------------------------------------------------------------------
 Cartesian Forces:  Max     0.021624019 RMS     0.004791665

 GradGradGradGradGradGradGradGradGradGradGradGradGradGradGradGradGradGrad
 Berny optimization.
 FormGI is forming the generalized inverse of G from B-inverse, IUseBI=4.
 Internal  Forces:  Max     0.020259202 RMS     0.003338913
 Search for a local minimum.
 Step number   1 out of a maximum of  183
 All quantities printed in internal units (Hartrees-Bohrs-Radians)
 Mixed Optimization -- RFO/linear search
 Second derivative matrix not updated -- first step.
 ITU=  0
     Eigenvalues ---    0.00511   0.00558   0.00561   0.00731   0.00839
     Eigenvalues ---    0.01003   0.01268   0.01410   0.01431   0.01521
     Eigenvalues ---    0.01614   0.01632   0.01811   0.02212   0.02231
     Eigenvalues ---    0.02240   0.02250   0.02256   0.02263   0.02269
     Eigenvalues ---    0.02501   0.02619   0.05160   0.05309   0.05394
     Eigenvalues ---    0.05522   0.05663   0.05807   0.05889   0.05994
     Eigenvalues ---    0.06041   0.06380   0.07202   0.08299   0.11130
     Eigenvalues ---    0.11286   0.11332   0.11460   0.11815   0.13486
     Eigenvalues ---    0.13536   0.13754   0.13838   0.16000   0.16000
     Eigenvalues ---    0.16000   0.16000   0.16000   0.16000   0.16000
     Eigenvalues ---    0.16000   0.16000   0.17561   0.20013   0.21967
     Eigenvalues ---    0.22000   0.22024   0.22025   0.22032   0.22978
     Eigenvalues ---    0.23984   0.24942   0.25000   0.25000   0.25000
     Eigenvalues ---    0.25000   0.25000   0.30785   0.30806   0.32105
     Eigenvalues ---    0.32960   0.33527   0.34444   0.34460   0.34648
     Eigenvalues ---    0.34778   0.34836   0.34893   0.35087   0.35163
     Eigenvalues ---    0.35811   0.35854   0.35946   0.35971   0.37973
     Eigenvalues ---    0.40697   0.42263   0.43006   0.43312   0.43543
     Eigenvalues ---    0.44657   0.47126   0.47290   0.47614   0.48297
     Eigenvalues ---    0.53302   0.54037   0.54798   0.54858   0.57470
     Eigenvalues ---    0.59520   1.02680
 RFO step:  Lambda=-1.18491026D-02 EMin= 5.10557856D-03
 Linear search not attempted -- first point.
 Iteration  1 RMS(Cart)=  0.10221770 RMS(Int)=  0.00201823
 Iteration  2 RMS(Cart)=  0.00545936 RMS(Int)=  0.00025835
 Iteration  3 RMS(Cart)=  0.00000945 RMS(Int)=  0.00025829
 Iteration  4 RMS(Cart)=  0.00000001 RMS(Int)=  0.00025829
 Variable       Old X    -DE/DX   Delta X   Delta X   Delta X     New X
                                 (Linear)    (Quad)   (Total)
    R1        1.82698   0.00051   0.00000   0.00092   0.00092   1.82789
    R2        2.61725   0.00004   0.00000   0.00012   0.00012   2.61737
    R3        2.62801  -0.00018   0.00000  -0.00031  -0.00032   2.62770
    R4        2.04127  -0.00000   0.00000  -0.00000  -0.00000   2.04127
    R5        2.62957  -0.00100   0.00000  -0.00214  -0.00213   2.62744
    R6        2.61536  -0.00012   0.00000  -0.00028  -0.00028   2.61508
    R7        2.04166  -0.00002   0.00000  -0.00005  -0.00005   2.04161
    R8        2.62674   0.00027   0.00000   0.00053   0.00053   2.62728
    R9        2.83952  -0.00216   0.00000  -0.00649  -0.00649   2.83303
   R10        2.04379   0.00001   0.00000   0.00002   0.00002   2.04381
   R11        2.62731   0.00002   0.00000   0.00006   0.00006   2.62737
   R12        2.82422  -0.00000   0.00000  -0.00001  -0.00001   2.82421
   R13        2.04311  -0.00002   0.00000  -0.00006  -0.00006   2.04304
   R14        2.68589  -0.01330   0.00000  -0.03062  -0.03062   2.65528
   R15        2.53001  -0.00412   0.00000  -0.00702  -0.00702   2.52299
   R16        2.81436   0.02026   0.00000   0.05836   0.05836   2.87273
   R17        2.51322   0.00004   0.00000   0.00007   0.00007   2.51330
   R18        2.27584   0.00001   0.00000   0.00001   0.00001   2.27585
   R19        3.23956   0.01529   0.00000   0.18234   0.18234   3.42190
   R20        1.83372  -0.00002   0.00000  -0.00004  -0.00004   1.83369
   R21        2.70617  -0.00001   0.00000  -0.00001  -0.00001   2.70615
   R22        2.05411   0.00009   0.00000   0.00025   0.00025   2.05436
   R23        2.05533   0.00009   0.00000   0.00025   0.00025   2.05559
   R24        2.74405   0.00920   0.00000   0.02348   0.02348   2.76753
   R25        2.86384   0.00299   0.00000   0.00934   0.00934   2.87318
   R26        2.65676   0.00057   0.00000   0.00124   0.00124   2.65800
   R27        1.82012   0.00000   0.00000   0.00001   0.00001   1.82013
   R28        2.05850   0.00000   0.00000   0.00001   0.00001   2.05851
   R29        2.06560   0.00005   0.00000   0.00013   0.00013   2.06573
   R30        2.86425   0.00000   0.00000   0.00001   0.00001   2.86427
   R31        2.06038  -0.00000   0.00000  -0.00000  -0.00000   2.06037
   R32        2.06251  -0.00000   0.00000  -0.00000  -0.00000   2.06250
   R33        2.67006   0.00001   0.00000   0.00002   0.00002   2.67007
   R34        2.06587   0.00000   0.00000   0.00001   0.00001   2.06588
   R35        2.05942   0.00000   0.00000   0.00000   0.00000   2.05942
   R36        1.81958  -0.00000   0.00000  -0.00000  -0.00000   1.81958
    A1        2.09053  -0.00009   0.00000  -0.00018  -0.00018   2.09035
    A2        2.09583   0.00005   0.00000   0.00010   0.00010   2.09593
    A3        2.09682   0.00004   0.00000   0.00009   0.00009   2.09690
    A4        2.08166  -0.00002   0.00000  -0.00037  -0.00037   2.08129
    A5        2.09779  -0.00003   0.00000  -0.00005  -0.00005   2.09774
[...]
 0.00001452,0.00000160,-0.00000017,-0.00000569,-0.00000190,-0.00000447,
 -0.00001230,-0.00000574,0.00000136,0.00000657,0.00002114,-0.00003351,0
 .00001344,-0.00000857,0.00004574,-0.00000649,-0.00798189,0.03343290,-0
 .01014934,0.00566630,0.04959407,-0.11695008,0.00034980,-0.00030155,0.0
 0158827,0.00199792,0.00060338,0.00250902,-0.19131881,0.00818156,0.3341
 4700,-0.00000503,-0.00000501,-0.00000256,-0.00001487,0.00002822,-0.000
 02857,-0.00000360,-0.00001459,-0.00000495,-0.00001590,0.00004934,-0.00
 001908,0.00001604,-0.00000793,0.00001034,-0.00006204,-0.00002790,-0.00
 002869,-0.00000665,0.00005237,-0.00000426,0.00002248,-0.00006499,0.000
 02053,0.00021150,-0.00004157,0.00003068,-0.00000141,0.00000490,-0.0000
 0139,0.00000532,0.00002786,0.00000549,-0.00001637,0.00001365,-0.000016
 10,0.00077648,0.00018282,0.00023930,-0.00006781,0.00029717,-0.00017796
 ,0.00000102,0.00000113,0.00000084,0.00000228,-0.00000265,-0.00000208,0
 .00000154,0.00000617,0.00000087,-0.00000023,0.00000037,0.00000098,-0.0
 0000102,-0.00000177,0.00000084,-0.00000281,0.00000712,0.00000276,-0.00
 000331,-0.00000491,0.00000075,0.00000045,-0.00000151,-0.00000086,0.000
 00057,-0.00000034,-0.00000187,-0.00000075,0.00000145,0.00000062,0.0000
 0160,-0.00000369,0.00000149,-0.00000203,0.00000666,-0.00000124,-0.0163
 6703,-0.01086313,0.00580326,-0.22335811,-0.11130765,0.05587894,-0.0006
 3097,-0.00022719,-0.00355943,0.00118341,0.00023772,-0.00012284,0.01499
 669,0.01062283,-0.00598656,0.23348845,-0.00000210,-0.00000314,-0.00000
 059,0.00000155,0.00001232,0.00000216,-0.00000682,-0.00000752,-0.000004
 02,-0.00000561,0.00002599,-0.00001267,0.00000275,-0.00000611,0.0000039
 6,-0.00003773,-0.00002777,-0.00004307,-0.00000446,0.00003274,-0.000003
 56,0.00001327,-0.00003473,0.00001180,0.00013885,0.00021072,-0.00004061
 ,-0.00000081,0.00000307,-0.00000104,0.00000216,0.00001423,0.00000225,-
 0.00000999,0.00000790,-0.00000957,-0.00001601,0.00098976,-0.00064410,-
 0.00001766,-0.00001614,0.00006272,0.00000107,0.00000059,-0.00000019,0.
 00000106,-0.00000031,-0.00000122,-0.00000036,-0.00000016,0.00000106,-0
 .00000042,0.00000017,0.00000048,-0.00000038,-0.00000084,0.00000063,-0.
 00000220,0.00000244,0.00000190,-0.00000001,0.00000067,-0.00000077,0.,-
 0.00000024,-0.00000035,0.00000006,-0.00000015,-0.00000078,-0.00000033,
 0.00000008,0.00000040,0.00000105,-0.00000205,0.00000094,-0.00000080,0.
 00000255,0.00000031,-0.00757952,-0.00314759,0.00106267,-0.10626605,-0.
 12074863,0.02965171,-0.00034424,0.00005182,-0.00050796,0.00016565,0.00
 024152,0.00037450,-0.01678766,-0.03153510,0.01628173,0.12048689,0.1418
 5557,-0.00000173,-0.00000358,-0.00000037,-0.00002563,0.00001696,0.0000
 0451,0.00000065,-0.00001157,-0.00000068,-0.00001087,0.00003367,-0.0000
 0811,0.00000957,-0.00000313,-0.00000304,0.00000733,0.00000883,0.000005
 75,-0.00001172,0.00002295,-0.00000332,0.00001917,-0.00004022,0.0000148
 1,0.00009178,-0.00042934,-0.00005080,-0.00000028,0.00000184,-0.0000009
 6,0.00000133,0.00001631,0.00000224,-0.00001340,0.00000959,-0.00001248,
 0.00172225,-0.00082773,0.00163736,-0.00007257,0.00042210,-0.00036144,0
 .00000135,0.00000073,-0.00000040,0.00000139,-0.00000014,-0.00000126,-0
 .00000193,-0.00000178,0.00000194,-0.00000088,0.00000029,0.00000046,0.0
 0000002,-0.00000090,0.00000100,-0.00000358,0.00000217,0.00000196,0.000
 00174,0.00000220,-0.00000154,0.00000011,0.00000039,-0.00000071,-0.0000
 0049,-0.00000038,-0.00000048,-0.00000032,-0.00000015,0.00000049,0.0000
 0152,-0.00000257,0.00000127,-0.00000138,0.00000315,0.00000052,-0.02572
 155,-0.01536185,0.00647388,0.05473406,0.03290353,-0.07062181,-0.003300
 59,-0.00030685,-0.00405090,0.00101235,0.00007001,0.00143688,0.00906757
 ,0.01677038,-0.00458355,-0.05542667,-0.04340043,0.07415235,-0.00000027
 ,-0.00000093,0.00000080,0.00001270,0.00000747,-0.00001470,0.00000157,-
 0.00000475,0.00000310,0.00000177,0.00001094,-0.00000361,-0.00000360,0.
 00000140,-0.00000092,0.00000945,0.00002037,0.00003999,-0.00000074,-0.0
 0000106,-0.00000746,0.00000483,-0.00000971,0.00000636,-0.00008393,-0.0
 0042130,-0.00007923,-0.00000018,-0.00000035,0.00000008,0.00000009,0.00
 000353,-0.00000063,-0.00000431,0.00000267,-0.00000404,0.00099809,-0.00
 079212,0.00184036,-0.00025204,0.00031475,-0.00010233,0.00000073,0.0000
 0051,-0.00000103,-0.00000042,-0.00000002,-0.00000023,0.00000675,-0.000
 01083,0.00000282,-0.00000053,0.00000002,0.00000010,0.00000026,0.000000
 04,0.00000055,-0.00000172,-0.00000117,0.00000112,0.00000628,0.00000602
 ,-0.00000303,0.00000014,-0.00000184,0.00000186,-0.00000097,-0.00000065
 ,0.00000086,-0.00000007,-0.00000175,0.00000064,0.00000063,-0.00000065,
 0.00000028,0.00000052,0.00000062,-0.00000002,0.01105579,-0.01043271,-0
 .01701912,-0.12887964,0.06553560,0.10083025,0.00121393,-0.00001742,0.0
 0090531,-0.00168585,-0.00019440,-0.00369769,-0.00723236,0.01127259,0.0
 0511331,-0.01209764,0.01166602,0.01820433,0.13564995,-0.00000112,-0.00
 000272,-0.00000030,0.00000469,0.00001079,0.00000714,-0.00000156,-0.000
 00684,-0.00000537,-0.00000772,0.00002290,-0.00000863,0.00000061,-0.000
 00534,0.00000204,-0.00000933,-0.00001996,-0.00003812,-0.00000642,0.000
 02429,-0.00000296,0.00001367,-0.00003017,0.00001125,-0.00007165,0.0001
 2721,0.00011797,-0.00000067,0.00000225,-0.00000082,0.00000093,0.000011
 71,0.00000148,-0.00001026,0.00000738,-0.00000920,-0.00045191,0.0008112
 5,0.00000570,0.00004152,-0.00001815,-0.00000353,0.00000134,0.00000044,
 -0.00000097,0.00000091,0.00000094,-0.00000067,-0.00000798,-0.00000149,
 0.00000056,-0.00000096,0.00000030,0.00000031,0.00000005,-0.00000063,0.
 00000078,-0.00000283,0.00000072,0.00000159,0.00000128,0.00000211,-0.00
 000093,-0.00000021,0.00000306,-0.00000152,-0.00000095,-0.00000031,-0.0
 0000024,-0.00000035,-0.00000011,0.00000028,0.00000143,-0.00000193,0.00
 000072,0.00000120,0.00000181,-0.00000047,0.00314678,-0.00305987,-0.006
 72797,0.06013949,-0.10668621,-0.08434300,0.00032769,0.00021269,0.00015
 449,-0.00033539,0.00014022,-0.00058095,0.02422872,-0.02514768,-0.01741
 722,-0.00876102,0.01049698,0.01162643,-0.07831678,0.12801514,-0.000002
 49,-0.00000439,-0.00000267,-0.00001050,0.00002543,-0.00002954,-0.00000
 507,-0.00001491,-0.00000070,-0.00000741,0.00004425,-0.00001940,0.00000
 509,-0.00000469,0.00001361,-0.00000630,-0.00001928,-0.00004072,-0.0000
 0252,0.00004620,-0.00001104,0.00002264,-0.00005490,0.00001797,-0.00015
 120,-0.00019575,0.00008455,-0.00000096,0.00000408,-0.00000127,0.000002
 72,0.00002269,0.00000464,-0.00001581,0.00001176,-0.00001375,0.00030257
 ,-0.00003368,0.00158851,-0.00020883,0.00041871,-0.00009825,0.00000183,
 0.00000095,-0.00000257,0.00000090,0.00000299,-0.00000487,0.00000353,-0
 .00000774,0.00000435,-0.00000013,-0.00000002,0.00000145,-0.00000144,-0
 .00000060,0.00000053,-0.00000342,-0.00000097,0.00000781,0.00000067,0.0
 0001100,-0.00000556,-0.00000057,-0.00000291,0.00000106,0.00000013,0.00
 000154,-0.00000180,0.00000045,-0.00000235,0.00000111,0.00000223,-0.000
 00319,0.00000077,-0.00000094,0.00000572,-0.00000187,0.01489366,-0.0137
 8193,-0.02106775,0.10398416,-0.09395394,-0.18565426,-0.00004696,0.0003
 0650,0.00153386,-0.00385372,-0.00023818,-0.00289619,-0.01210325,0.0118
 5773,0.01432794,0.00340670,-0.00360496,-0.00416173,-0.10453084,0.09517
 073,0.19647211,0.00000675,0.00001140,0.00000283,0.00001641,-0.00004304
 ,0.00001386,0.00001549,0.00001809,0.00001214,0.00002725,-0.00008564,0.
 00004096,-0.00001668,0.00002105,-0.00001456,0.00005006,0.00002906,0.00
 013773,0.00000095,-0.00008394,-0.00000054,-0.00004713,0.00012119,-0.00
 004044,-0.00058165,-0.00025442,-0.00097023,0.00000247,-0.00000890,0.00
 000259,-0.00000679,-0.00005008,-0.00000798,0.00003556,-0.00002830,0.00
 003339,0.00134504,-0.00078380,0.00107345,0.00025109,0.00018532,0.00033
 825,-0.00000362,-0.00000208,-0.00000006,-0.00000419,0.00000296,0.00000
 338,0.00000069,-0.00000266,-0.00000290,0.00000173,-0.00000084,-0.00000
 161,0.00000104,0.00000323,-0.00000226,0.00000812,-0.00001053,-0.000005
 43,-0.00000012,0.00000184,0.00000154,-0.00000065,0.00000081,0.00000142
 ,0.00000036,0.00000136,0.00000270,0.00000161,-0.00000121,-0.00000140,-
 0.00000417,0.00000755,-0.00000310,0.00000217,-0.00000996,0.00000095,-0
 .00170116,0.00061174,0.00003616,-0.00847228,0.00393830,0.00719751,0.00
 002441,-0.00003504,0.00001919,-0.00030431,0.00005123,-0.00069648,-0.24
 199654,0.16352341,0.20118451,0.00197466,-0.00138371,-0.00029537,0.0012
 8071,0.00008706,-0.00168050,0.24809484,-0.00000157,-0.00000565,-0.0000
 0100,-0.00000549,0.00001997,-0.00000883,-0.00000882,-0.00001026,-0.000
 00692,-0.00001281,0.00004256,-0.00002106,0.00000586,-0.00001000,0.0000
 0884,-0.00003903,-0.00001549,-0.00007174,0.00000012,0.00004497,-0.0000
 0054,0.00002841,-0.00005967,0.00002275,0.00031110,0.00024793,0.0005429
 5,-0.00000102,0.00000493,-0.00000146,0.00000102,0.00002317,0.00000302,
 -0.00002069,0.00001474,-0.00001878,-0.00091851,0.00044118,-0.00084332,
 -0.00010041,-0.00016241,-0.00017563,0.00000229,0.00000106,-0.00000073,
 0.00000248,0.00000008,-0.00000148,-0.00000177,-0.00000176,0.00000090,-
 0.00000154,0.00000047,0.00000096,0.00000007,-0.00000131,0.00000160,-0.
 00000568,0.00000348,0.00000257,0.00000164,0.00000145,-0.00000134,0.000
 00062,0.00000053,-0.00000007,-0.00000073,-0.00000051,-0.00000103,-0.00
 000053,0.00000005,0.00000063,0.00000289,-0.00000393,0.00000186,-0.0000
 0047,0.00000422,-0.00000048,0.00041375,0.00078890,0.00057629,0.0280626
 4,-0.02324756,-0.02249559,-0.00016514,0.00004049,0.00001046,0.00044724
 ,0.00012726,0.00058310,0.13718835,-0.11682836,-0.09430262,-0.00069840,
 0.00157876,-0.00150764,0.00137713,-0.00490778,0.00398641,-0.16586676,0
 .14188404,0.00000132,0.00000268,0.00000132,0.00000492,-0.00001348,0.00
 000436,0.00000148,0.00000383,-0.00000066,0.00000584,-0.00002019,0.0000
 1020,-0.00000322,0.00000635,-0.00000407,-0.00002488,0.00000023,0.00001
 404,0.00000139,-0.00001038,-0.00000087,-0.00001028,0.00002787,-0.00000
 829,-0.00007737,0.00009053,-0.00016423,0.00000023,-0.00000095,0.000000
 40,-0.00000165,-0.00001177,-0.00000264,0.00000793,-0.00000643,0.000006
 68,0.00012523,-0.00025716,-0.00079575,0.00005853,-0.00005571,0.0000216
 3,-0.00000069,-0.00000062,0.00000009,-0.00000086,0.00000019,0.00000144
 ,-0.00000045,0.00000005,-0.00000166,0.00000019,-0.00000013,-0.00000046
 ,0.00000050,0.00000070,-0.00000027,0.00000167,-0.00000189,-0.00000243,
 0.00000054,-0.00000056,0.00000089,0.00000004,0.00000049,0.00000057,-0.
 00000023,0.00000002,0.00000084,0.00000029,-0.00000017,-0.00000039,-0.0
 0000111,0.00000184,-0.00000024,0.00000012,-0.00000216,0.00000066,-0.00
 137637,0.00255577,0.00214305,-0.01602607,0.01328014,0.00823722,0.00009
 785,-0.00010687,-0.00010960,0.00033474,-0.00031919,-0.00089131,0.22478
 279,-0.13177227,-0.21096525,-0.00002056,0.00083315,0.00012186,-0.00150
 432,0.00205295,-0.00003429,-0.20637775,0.11371882,0.20241404,-0.000041
 86,-0.00000557,-0.00003882,-0.14764368,0.01387654,-0.14806137,-0.00045
 938,-0.00008071,0.00076294,0.00537233,0.00139212,-0.00337009,0.0004923
 0,-0.00021735,-0.00530525,-0.00155431,0.00117347,-0.00744967,0.0045036
 7,-0.00146610,-0.00303501,0.00033803,-0.00034410,-0.00030067,-0.003292
 90,0.00007167,0.00109587,-0.00063897,-0.00000076,0.00043802,0.00003542
 ,0.00007879,0.00003094,-0.00022895,0.00009079,0.00000385,0.00041286,0.
 00172325,-0.00006687,0.00051038,0.00006373,-0.00007746,0.00000940,0.00
 000195,-0.00002702,-0.00003025,0.00001737,-0.00005501,0.00002175,0.000
 01994,-0.00000087,0.00000796,0.00000211,0.00001981,0.00000009,0.000004
 52,0.00000078,-0.00001606,-0.00003107,0.00002747,-0.00011685,-0.000070
 86,-0.00002656,-0.00000220,0.00000093,0.00000130,0.00001795,0.00009359
 ,0.00008032,0.00006493,0.00000698,-0.00000417,-0.00004209,-0.00004934,
 0.00006166,-0.00272998,-0.00036907,0.00240604,0.00000204,-0.00004273,0
 .00035135,0.00009958,-0.00000161,0.00000186,0.00001018,0.00000175,-0.0
 0000140,-0.00002743,0.00009356,-0.00003175,-0.00003066,-0.00000384,-0.
 00000837,-0.00002968,-0.00001529,0.00000831,-0.00000334,-0.00001062,-0
 .00000186,0.00000525,0.00000037,0.00000279,0.14503964,0.00006772,0.000
 05196,0.00007558,0.01417999,-0.05938400,0.01877103,-0.00009629,-0.0011
 1708,-0.00008744,0.00117939,-0.00449436,0.00112440,0.01701208,0.000888
 70,0.02354020,-0.01506158,0.00736956,-0.02075721,-0.00129616,-0.004572
 98,-0.00221878,0.00061419,0.00067295,0.00099854,-0.00094180,0.00081582
 ,-0.00111822,0.00001230,0.00012495,0.00003968,-0.00005133,-0.00016596,
 -0.00006257,0.00035961,-0.00061994,0.00030818,0.00045284,-0.00260171,0
 .00054896,0.00039931,0.00062122,0.00055980,0.00000136,-0.00002117,-0.0
 0000899,0.00000054,-0.00002681,0.00002219,-0.00001055,-0.00002262,0.00
 000256,0.00000060,0.00000305,-0.00001199,0.00000578,0.00000479,-0.0000
 0849,-0.00000037,0.00002311,-0.00003061,0.00007877,0.00004959,0.000003
 66,0.00000148,-0.00000274,0.00000177,-0.00001320,-0.00002138,-0.000032
 00,-0.00002227,-0.00000540,-0.00000036,0.00006865,0.00004293,0.0000186
 8,-0.00032345,0.00121964,-0.00008842,0.00040486,-0.00055086,0.00055683
 ,0.00011295,-0.00005132,0.00015201,-0.00002690,0.00016346,-0.00006854,
 -0.00006958,0.00017156,-0.00004264,-0.00010204,0.00011132,-0.00011115,
 0.00001067,0.00000288,-0.00001096,-0.00001008,-0.00000277,0.00001057,0
 .00002849,-0.00001236,0.00000322,-0.01616705,0.06096418,-0.00001273,-0
 .00002027,-0.00001350,-0.14809067,0.01797240,-0.24549115,0.00076526,-0
 .00031167,0.00000836,-0.00313409,0.00107056,0.00354946,-0.00482708,-0.
 00056854,-0.00252930,-0.00793325,0.00199389,-0.00710893,-0.00304087,-0
 .00226160,0.00229056,-0.00020739,-0.00033515,0.00016716,0.00103440,0.0
 0036535,-0.00259787,0.00041194,0.00006041,-0.00036335,-0.00001865,0.00
 013221,0.00000059,0.00002278,0.00014035,-0.00016225,-0.00009194,0.0023
 0307,0.00039982,-0.00007174,0.00004338,0.00046812,-0.00001968,0.000004
 56,0.00000775,-0.00000654,0.00001289,-0.00000283,-0.00002019,-0.000005
 06,0.00000143,0.00000271,-0.00000616,0.00000035,-0.00000636,-0.0000037
 8,0.00000804,-0.00000317,0.00001644,0.00002337,0.00001098,0.00000354,0
 .00001656,-0.00000015,0.00000197,-0.00000070,-0.00012895,0.00002266,0.
 00003414,0.00000080,-0.00000331,-0.00000377,0.00003338,-0.00001460,-0.
 00003958,0.00248018,0.00014319,-0.00107628,0.00035731,-0.00006149,0.00
 024562,0.00000286,-0.00001821,0.00008647,-0.00002133,0.00009815,-0.000
 03150,-0.00001313,0.00003822,0.00000178,-0.00001097,0.00001142,-0.0000
 3203,-0.00000753,-0.00001726,-0.00000106,0.00001431,-0.00001267,-0.000
 01926,0.00000639,-0.00000443,0.00000498,0.16286288,-0.02102190,0.25244
 567,-0.00004675,-0.00001648,-0.00004628,0.00231101,0.00138299,-0.00565
 018,0.00743735,0.00888079,0.00404006,0.00475090,0.00212577,-0.00384006
 ,-0.00083775,0.00044323,0.00020626,-0.00079309,-0.01582124,-0.00861079
 ,-0.07648912,-0.07597592,-0.05059736,0.00040731,0.00039698,0.00016225,
 -0.00333712,-0.00156805,0.00111409,-0.00266481,-0.00050618,0.00249034,
 -0.00018759,0.00027850,0.00005369,0.00000996,0.00002558,-0.00005372,0.
 00050214,0.00006834,0.00058227,0.00065772,0.00049636,0.00084562,0.0000
 2495,-0.00001146,-0.00002553,-0.00000044,0.00001337,-0.00000362,-0.000
 00434,-0.00000516,-0.00000053,-0.00000257,0.00000264,0.00000401,0.0000
 0319,0.00000044,-0.00000225,0.00000607,-0.00001403,-0.00000491,-0.0000
 0479,-0.00000153,-0.00000456,0.00000110,0.00000224,0.00000158,0.000001
 57,0.00000357,-0.00000165,0.00000481,0.00000028,-0.00000203,0.00000918
 ,-0.00000024,0.00000298,-0.00058308,-0.00011198,0.00047658,0.00005575,
 0.00016476,-0.00011277,-0.00001818,0.00000315,-0.00003999,0.00000160,0
 .00000788,-0.00001340,-0.00000092,-0.00002550,0.00000444,0.00002041,-0
 .00002312,0.00003057,0.00000478,0.00000179,0.00000413,0.00000340,0.000
 00038,0.00000747,-0.00000738,0.00000338,-0.00000260,-0.00005516,-0.000
 79894,-0.00033974,0.06881984,0.00008914,0.00005152,0.00006574,0.001094
 73,0.00059255,0.00122002,-0.00868914,-0.01692164,-0.01277367,0.0021439
 0,-0.00267999,0.00219056,0.00037489,0.00014321,0.00055422,0.00048797,0
 .00692577,0.00072453,-0.07621655,-0.25901851,-0.11355839,-0.00079425,-
 0.00015678,-0.00089611,0.00029719,-0.00116889,0.00054140,-0.00019705,0
 .00117428,0.00001962,0.00003448,-0.00062570,0.00010425,0.00016458,-0.0
 0010201,0.00017423,-0.00049400,0.00024904,-0.00068156,0.00098405,-0.00
 091144,0.00130414,-0.00000223,-0.00001567,0.00000329,0.00001351,-0.000
 02495,0.00000864,-0.00000364,0.00000179,-0.00000548,0.00000421,0.00000
 178,-0.00000792,0.00000183,0.00000895,-0.00001297,0.00002333,0.0000096
 7,-0.00003987,0.00001398,0.00000841,0.00001189,0.,-0.00000050,0.000000
 56,-0.00000534,-0.00000256,-0.00000483,-0.00000575,-0.00000046,-0.0000
 0117,-0.00002119,0.00004255,-0.00002188,-0.00006792,-0.00002944,-0.000
 04997,0.00003508,-0.00018063,0.00003913,0.00002476,0.00002110,0.000033
 09,-0.00000271,0.00002331,-0.00000152,-0.00000227,0.00002335,-0.000002
 51,-0.00002819,0.00002051,-0.00003262,-0.00000305,-0.00000028,-0.00000
 231,-0.00000118,-0.00000023,-0.00000288,0.00000682,-0.00000322,0.00000
 110,0.00016265,0.00037180,0.00023144,0.08057740,0.27217331,-0.00003759
 ,-0.00002589,-0.00002355,-0.00556641,0.00138105,-0.00113341,0.00324351
 ,0.01097153,0.00966566,-0.00414560,0.00226432,0.00236128,0.00011444,0.
 00074762,-0.00072025,-0.00777127,-0.02123375,-0.00653508,-0.05063767,-
 0.11302512,-0.11639616,0.00026829,0.00042799,0.00067557,0.00120594,-0.
 00224832,-0.00260990,0.00251433,-0.00036992,-0.00120900,0.00010247,0.0
 0037044,-0.00021083,-0.00003244,-0.00004628,-0.00001110,0.00052092,0.0
 0014277,0.00081976,0.00088378,0.00070839,0.00132968,-0.00003446,0.0000
 0993,0.00000487,0.00000765,0.00001092,0.00000326,0.00000797,0.00001125
 ,0.00000355,0.00000175,-0.00000747,0.00000035,-0.00001082,-0.00000634,
 0.00000622,-0.00002454,0.00000188,0.00002485,-0.00001591,-0.00001266,0
 .00000317,-0.00000076,-0.00000352,-0.00000290,-0.00000153,0.00000614,0
 .00001147,0.00000410,0.00000141,0.00000246,0.00000196,-0.00001326,0.00
 001380,0.00049261,-0.00003879,-0.00025516,-0.00011281,0.00019947,-0.00
 001119,-0.00003833,0.00000724,-0.00003874,0.00000658,-0.00001963,-0.00
 000562,-0.00001313,0.00000105,-0.00000300,0.00003204,-0.00002812,0.000
 03024,0.00000884,0.00000081,0.00000736,0.00000280,0.00000114,0.0000071
 9,-0.00000834,0.00000354,-0.00000184,-0.00029398,-0.00105760,-0.000286
 87,0.05932565,0.12086781,0.11448387\\-0.00000055,0.00000481,0.00000346
 ,0.00000130,0.00000522,0.00000174,0.00000187,0.00000459,-0.00000034,-0
 .00000329,-0.00000190,-0.00000474,0.00000285,-0.00000193,0.00000731,-0
 .00000248,0.00000030,-0.00000505,0.00000319,-0.00000172,0.00000269,0.0
 0000994,-0.00000527,0.00001060,0.00000057,-0.00000034,-0.00000116,0.00
 000081,0.00000190,0.00000017,-0.00000152,0.00000391,0.00000688,-0.0000
 0866,0.00000583,-0.00000550,0.00000014,-0.00000125,-0.00000085,0.00000
 264,0.00000200,-0.00000249,-0.00000184,0.00000116,-0.00000150,-0.00000
 428,-0.00001123,0.00000416,-0.00000316,-0.00000027,-0.00000952,-0.0000
 0264,-0.00000383,-0.00000091,-0.00001401,0.00000870,0.00001322,0.00002
 057,-0.00000159,-0.00001422,0.00000063,-0.00000507,0.00000748,0.000000
 30,-0.00000090,0.00000256,-0.00000010,-0.00000145,0.00000139,-0.000003
 61,-0.00000050,-0.00000029,0.00000009,0.00000269,0.00000088,-0.0000017
 3,-0.00000008,0.00000102,0.00000027,0.00000086,-0.00000153,-0.00000058
 ,0.00000166,-0.00000252,0.00000012,0.00000008,-0.00000375,0.00000162,-
 0.00000068,-0.00000187,-0.00000071,-0.00000441,-0.00000310,-0.00000093
 ,-0.00000001,-0.00000153,0.00000062,-0.00000277,-0.00000016,0.00000192
 ,0.00000007,-0.00000106,-0.00000096,-0.00000067,0.00000068,0.00000157,
 0.00000213,-0.00000216\\\@


 DIATOMIC MOLECULES ARE PECULIAR BECAUSE THEY ONLY HAVE TWO ENDS,
 AND THESE ENDS ARE VERY CLOSE TOGETHER.
 KLAUS RUEDENBERG, REV.MOD.PHYS. PG 176, 32, (1960)
 Job cpu time:       0 days 18 hours  8 minutes 35.7 seconds.
 Elapsed time:       0 days  0 hours 30 minutes 17.3 seconds.
 File lengths (MBytes):  RWF=   1617 Int=      0 D2E=      0 Chk=     55 Scr=      1
 Normal termination of Gaussian 16 at Mon Aug 19 15:52:03 2019.
