 Entering Gaussian System, Link 0=g16
 Initial command:
 /nopt/nrel/apps/gaussian/g16B/g16/l1.exe "/dev/shm/Gau-129214.inp" -scrdir="/dev/shm/"
 Default is to use a total of  36 processors:
                               36 via shared-memory
                                1 via Linda
 Entering Link 1 = /nopt/nrel/apps/gaussian/g16B/g16/l1.exe PID=    129216.
  
 Copyright (c) 1988-2017, Gaussian, Inc.  All Rights Reserved.
  
 This is part of the Gaussian(R) 16 program.  It is based on
 the Gaussian(R) 09 system (copyright 2009, Gaussian, Inc.),
 the Gaussian(R) 03 system (copyright 2003, Gaussian, Inc.),
 the Gaussian(R) 98 system (copyright 1998, Gaussian, Inc.),
 the Gaussian(R) 94 system (copyright 1995, Gaussian, Inc.),
 the Gaussian 92(TM) system (copyright 1992, Gaussian, Inc.),
 the Gaussian 90(TM) system (copyright 1990, Gaussian, Inc.),
 the Gaussian 88(TM) system (copyright 1988, Gaussian, Inc.),
 the Gaussian 86(TM) system (copyright 1986, Carnegie Mellon
 University), and the Gaussian 82(TM) system (copyright 1983,
 Carnegie Mellon University). Gaussian is a federally registered
 trademark of Gaussian, Inc.
  
 This software contains proprietary and confidential information,
 including trade secrets, belonging to Gaussian, Inc.
  
 This software is provided under written license and may be
 used, copied, transmitted, or stored only in accord with that
 written license.
  
 The following legend is applicable only to US Government
 contracts under FAR:
  
                    RESTRICTED RIGHTS LEGEND
  
 Use, reproduction and disclosure by the US Government is
 subject to restrictions as set forth in subparagraphs (a)
 and (c) of the Commercial Computer Software - Restricted
 Rights clause in FAR 52.227-19.
  
 Gaussian, Inc.
 340 Quinnipiac St., Bldg. 40, Wallingford CT 06492
  
  
 ---------------------------------------------------------------
 Warning -- This program may not be used in any manner that
 competes with the business of Gaussian, Inc. or will provide
 assistance to any competitor of Gaussian, Inc.  The licensee
 of this program is prohibited from giving any competitor of
 Gaussian, Inc. access to this program.  By using this program,
 the user acknowledges that Gaussian, Inc. is engaged in the
 business of creating and licensing software in the field of
 computational chemistry and represents and warrants to the
 licensee that it is not a competitor of Gaussian, Inc. and that
 it will not use this program in any manner prohibited above.
 ---------------------------------------------------------------
  

 Cite this work as:
 Gaussian 16, Revision B.01,
 M. J. Frisch, G. W. Trucks, H. B. Schlegel, G. E. Scuseria, 
 M. A. Robb, J. R. Cheeseman, G. Scalmani, V. Barone, 
 G. A. Petersson, H. Nakatsuji, X. Li, M. Caricato, A. V. Marenich, 
 J. Bloino, B. G. Janesko, R. Gomperts, B. Mennucci, H. P. Hratchian, 
 J. V. Ortiz, A. F. Izmaylov, J. L. Sonnenberg, D. Williams-Young, 
 F. Ding, F. Lipparini, F. Egidi, J. Goings, B. Peng, A. Petrone, 
 T. Henderson, D. Ranasinghe, V. G. Zakrzewski, J. Gao, N. Rega, 
 G. Zheng, W. Liang, M. Hada, M. Ehara, K. Toyota, R. Fukuda, 
 J. Hasegawa, M. Ishida, T. Nakajima, Y. Honda, O. Kitao, H. Nakai, 
 T. Vreven, K. Throssell, J. A. Montgomery, Jr., J. E. Peralta, 
 F. Ogliaro, M. J. Bearpark, J. J. Heyd, E. N. Brothers, K. N. Kudin, 
 V. N. Staroverov, T. A. Keith, R. Kobayashi, J. Normand, 
 K. Raghavachari, A. P. Rendell, J. C. Burant, S. S. Iyengar, 
 J. Tomasi, M. Cossi, J. M. Millam, M. Klene, C. Adamo, R. Cammi, 
 J. W. Ochterski, R. L. Martin, K. Morokuma, O. Farkas, 
 J. B. Foresman, and D. J. Fox, Gaussian, Inc., Wallingford CT, 2016.
 
 ******************************************
 Gaussian 16:  ES64L-G16RevB.01 20-Dec-2017
                16-Sep-2019 
 ******************************************
 %RWF=/dev/shm/,5GB,/tmp/scratch/1370688/,-1
 %NoSave
 %chk=579.chk
 %nprocs=36
 Will use up to   36 processors via shared memory.
 %mem=16GB
 Default route: CacheSize=180224 MaxDisk=256GB
 ----------------------------------------------------------------------
 # opt=modredundant ubp86/def2tzvp/tzvpfit empiricaldispersion=GD3 geom
 =connectivity scf=tight scrf=(pcm,solvent=2-NitroPropane)
 ----------------------------------------------------------------------
 1/4=180224,18=120,19=15,26=3,38=1,57=2/1,3;
 2/4=180224,9=110,12=2,17=6,18=5,40=1/2;
 3/4=180224,5=44,7=101,11=2,25=1,30=1,70=2201,71=1,72=70,74=404,82=42,116=2,124=31/1,2,3;
 4/4=180224/1;
 5/4=180224,5=2,32=2,38=5,53=70/2;
 6/4=180224,7=2,8=2,9=2,10=2,28=1/1;
 7/4=180224/1,2,3,16;
 1/4=180224,18=20,19=15,26=3/3(2);
 2/4=180224,9=110/2;
 99/4=180224/99;
 2/4=180224,9=110/2;
 3/4=180224,5=44,7=101,11=2,25=1,30=1,70=2205,71=1,72=70,74=404,82=42,116=2,124=31/1,2,3;
 4/4=180224,5=5,16=3,69=1/1;
 5/4=180224,5=2,32=2,38=5,53=70/2;
 7/4=180224/1,2,3,16;
 1/4=180224,18=20,19=15,26=3/3(-5);
 2/4=180224,9=110/2;
 6/4=180224,7=2,8=2,9=2,10=2,19=2,28=1/1;
 99/4=180224,9=1/99;
 -------------------
 Title Card Required
 -------------------
 Symbolic Z-matrix:
 Charge = -2 Multiplicity =19
 Fe(Fragment=9)        9.537     41.571    17.741 
 Fe(Fragment=10)       7.856     40.687    19.597 
 Fe(Fragment=11)       6.95      41.778    17.291 
 Fe(Fragment=12)       8.059     43.382    19.152 
 C(Fragment=5)         3.41      42.527    12.983 
 C(Fragment=5)         4.399     41.981    13.945 
 N(Fragment=5)         4.98      40.733    13.785 
 C(Fragment=5)         4.931     42.508    15.086 
 C(Fragment=5)         5.81      40.529    14.812 
 N(Fragment=5)         5.805     41.575    15.588 
 C(Fragment=6)         8.182     44.963    21.947 
 S(Fragment=6)         8.053     45.404    20.209 
 C(Fragment=7)         7.151     39.479    24.038 
 C(Fragment=7)         7.297     40.273    22.715 
 S(Fragment=7)         7.605     39.171    21.302 
 C(Fragment=8)         12.717    41.383    18.023 
 S(Fragment=8)         11.538    41.142    16.674 
 S(Fragment=3)         9.703     41.985    19.959 
 S(Fragment=4)         8.463     43.434    16.936 
 S(Fragment=2)         6.099     42.195    19.362 
 S(Fragment=1)         8.084     39.77     17.56 
 H(Fragment=5)         3.42173   43.58585   13.13664 
 H(Fragment=5)         3.68714   42.12122   12.03251 
 H(Fragment=5)         4.70941   43.46558   15.50889 
 H(Fragment=5)         6.38902   39.64356   14.9721 
 H(Fragment=8)         12.35663   40.80987   18.85159 
 H(Fragment=8)         12.8568   42.43907   18.1234 
 H(Fragment=6)         8.12674   45.88832   22.48144 
 H(Fragment=6)         9.05776   44.35291   22.02274 
 H(Fragment=7)         6.138     39.15247   24.14807 
 H(Fragment=7)         8.1739    40.87673   22.82202 
 H(Fragment=7)         6.34849   40.73438   22.53514 
 C(Fragment=5)         1.94495   42.10212   13.19444 
 H(Fragment=5)         1.31798   42.62828   12.50526 
 H(Fragment=5)         1.85158   41.04909   13.02919 
 H(Fragment=5)         1.64737   42.33378   14.19578 
 C(Fragment=8)         14.08557   40.79089   17.63828 
 H(Fragment=8)         14.77643   40.9378   18.44204 
 H(Fragment=8)         13.97974   39.74367   17.44585 
 H(Fragment=8)         14.45144   41.27979   16.75963 
 C(Fragment=6)         7.03114   44.10061   22.49781 
 H(Fragment=6)         6.19941   44.14462   21.8261 
 H(Fragment=6)         7.35931   43.08665   22.59316 
 H(Fragment=6)         6.73506   44.47135   23.45686 
 H(Fragment=7)         7.41454   40.10807   24.86245 
 H(Fragment=7)         7.79966   38.6283   24.01686 
 
 The following ModRedundant input section has been read:
 X      16 F                                                                   
 X      37 F                                                                   
 X       5 F                                                                   
 X      33 F                                                                   
 X      41 F                                                                   
 X      11 F                                                                   
 X      13 F                                                                   
 X      14 F                                                                   
 

 GradGradGradGradGradGradGradGradGradGradGradGradGradGradGradGradGradGrad
 Berny optimization.
 Initialization pass.
                           ----------------------------
                           !    Initial Parameters    !
                           ! (Angstroms and Degrees)  !
 --------------------------                            --------------------------
 ! Name  Definition              Value          Derivative Info.                !
 --------------------------------------------------------------------------------
 ! X5    R(5,-1)                 3.41           Frozen                          !
 ! Y5    R(5,-2)                42.527          Frozen                          !
 ! Z5    R(5,-3)                12.983          Frozen                          !
 ! X11   R(11,-1)                8.182          Frozen                          !
 ! Y11   R(11,-2)               44.963          Frozen                          !
 ! Z11   R(11,-3)               21.947          Frozen                          !
 ! X13   R(13,-1)                7.151          Frozen                          !
 ! Y13   R(13,-2)               39.479          Frozen                          !
 ! Z13   R(13,-3)               24.038          Frozen                          !
 ! X14   R(14,-1)                7.297          Frozen                          !
 ! Y14   R(14,-2)               40.273          Frozen                          !
 ! Z14   R(14,-3)               22.715          Frozen                          !
 ! X16   R(16,-1)               12.717          Frozen                          !
 ! Y16   R(16,-2)               41.383          Frozen                          !
 ! Z16   R(16,-3)               18.023          Frozen                          !
 ! X33   R(33,-1)                1.945          Frozen                          !
 ! Y33   R(33,-2)               42.1021         Frozen                          !
 ! Z33   R(33,-3)               13.1944         Frozen                          !
 ! X37   R(37,-1)               14.0856         Frozen                          !
 ! Y37   R(37,-2)               40.7909         Frozen                          !
 ! Z37   R(37,-3)               17.6383         Frozen                          !
 ! X41   R(41,-1)                7.0311         Frozen                          !
 ! Y41   R(41,-2)               44.1006         Frozen                          !
 ! Z41   R(41,-3)               22.4978         Frozen                          !
 ! R1    R(1,17)                 2.3079         estimate D2E/DX2                !
 ! R2    R(1,18)                 2.2624         estimate D2E/DX2                !
 ! R3    R(1,19)                 2.2961         estimate D2E/DX2                !
 ! R4    R(1,21)                 2.3211         estimate D2E/DX2                !
 ! R5    R(2,15)                 2.2953         estimate D2E/DX2                !
 ! R6    R(2,18)                 2.2863         estimate D2E/DX2                !
 ! R7    R(2,20)                 2.3273         estimate D2E/DX2                !
 ! R8    R(2,21)                 2.2455         estimate D2E/DX2                !
 ! R9    R(3,10)                 2.0621         estimate D2E/DX2                !
 ! R10   R(3,19)                 2.271          estimate D2E/DX2                !
 ! R11   R(3,20)                 2.2775         estimate D2E/DX2                !
 ! R12   R(3,21)                 2.3217         estimate D2E/DX2                !
 ! R13   R(4,12)                 2.2816         estimate D2E/DX2                !
 ! R14   R(4,18)                 2.3034         estimate D2E/DX2                !
 ! R15   R(4,19)                 2.2531         estimate D2E/DX2                !
 ! R16   R(4,20)                 2.301          estimate D2E/DX2                !
 ! R17   R(5,6)                  1.4838         estimate D2E/DX2                !
 ! R18   R(5,22)                 1.07           estimate D2E/DX2                !
 ! R19   R(5,23)                 1.07           estimate D2E/DX2                !
 ! R20   R(5,33)                 1.54           estimate D2E/DX2                !
 ! R21   R(6,7)                  1.3859         estimate D2E/DX2                !
 ! R22   R(6,8)                  1.3648         estimate D2E/DX2                !
 ! R23   R(7,9)                  1.3361         estimate D2E/DX2                !
 ! R24   R(8,10)                 1.3735         estimate D2E/DX2                !
 ! R25   R(8,24)                 1.07           estimate D2E/DX2                !
 ! R26   R(9,10)                 1.3024         estimate D2E/DX2                !
 ! R27   R(9,25)                 1.07           estimate D2E/DX2                !
 ! R28   R(11,12)                1.7977         estimate D2E/DX2                !
 ! R29   R(11,28)                1.07           estimate D2E/DX2                !
 ! R30   R(11,29)                1.07           estimate D2E/DX2                !
 ! R31   R(11,41)                1.54           estimate D2E/DX2                !
 ! R32   R(13,14)                1.5499         estimate D2E/DX2                !
 ! R33   R(13,30)                1.07           estimate D2E/DX2                !
 ! R34   R(13,45)                1.07           estimate D2E/DX2                !
 ! R35   R(13,46)                1.07           estimate D2E/DX2                !
 ! R36   R(14,15)                1.8182         estimate D2E/DX2                !
 ! R37   R(14,31)                1.07           estimate D2E/DX2                !
 ! R38   R(14,32)                1.07           estimate D2E/DX2                !
 ! R39   R(16,17)                1.8077         estimate D2E/DX2                !
 ! R40   R(16,26)                1.07           estimate D2E/DX2                !
 ! R41   R(16,27)                1.07           estimate D2E/DX2                !
 ! R42   R(16,37)                1.54           estimate D2E/DX2                !
 ! R43   R(33,34)                1.07           estimate D2E/DX2                !
 ! R44   R(33,35)                1.07           estimate D2E/DX2                !
 ! R45   R(33,36)                1.07           estimate D2E/DX2                !
 ! R46   R(37,38)                1.07           estimate D2E/DX2                !
 ! R47   R(37,39)                1.07           estimate D2E/DX2                !
 ! R48   R(37,40)                1.07           estimate D2E/DX2                !
 ! R49   R(41,42)                1.07           estimate D2E/DX2                !
 ! R50   R(41,43)                1.07           estimate D2E/DX2                !
 ! R51   R(41,44)                1.07           estimate D2E/DX2                !
 ! A1    A(17,1,18)            115.0649         estimate D2E/DX2                !
 ! A2    A(17,1,19)            113.2204         estimate D2E/DX2                !
 ! A3    A(17,1,21)            111.2515         estimate D2E/DX2                !
 ! A4    A(18,1,19)            103.2709         estimate D2E/DX2                !
 ! A5    A(18,1,21)            105.3293         estimate D2E/DX2                !
 ! A6    A(19,1,21)            108.0237         estimate D2E/DX2                !
 ! A7    A(15,2,18)            110.2247         estimate D2E/DX2                !
 ! A8    A(15,2,20)            114.8611         estimate D2E/DX2                !
 ! A9    A(15,2,21)            114.5342         estimate D2E/DX2                !
 ! A10   A(18,2,20)            104.9521         estimate D2E/DX2                !
 ! A11   A(18,2,21)            107.0646         estimate D2E/DX2                !
 ! A12   A(20,2,21)            104.4577         estimate D2E/DX2                !
 ! A13   A(10,3,19)            108.2164         estimate D2E/DX2                !
 ! A14   A(10,3,20)            124.1601         estimate D2E/DX2                !
 ! A15   A(10,3,21)            106.3643         estimate D2E/DX2                !
 ! A16   A(19,3,20)            104.9257         estimate D2E/DX2                !
 ! A17   A(19,3,21)            108.8666         estimate D2E/DX2                !
 ! A18   A(20,3,21)            103.6211         estimate D2E/DX2                !
 ! A19   A(12,4,18)            112.1515         estimate D2E/DX2                !
 ! A20   A(12,4,19)            115.8269         estimate D2E/DX2                !
 ! A21   A(12,4,20)            114.3709         estimate D2E/DX2                !
 ! A22   A(18,4,19)            103.3325         estimate D2E/DX2                !
 ! A23   A(18,4,20)            105.2548         estimate D2E/DX2                !
 ! A24   A(19,4,20)            104.738          estimate D2E/DX2                !
 ! A25   A(6,5,22)             105.2918         estimate D2E/DX2                !
 ! A26   A(6,5,23)             105.2918         estimate D2E/DX2                !
 ! A27   A(6,5,33)             116.3307         estimate D2E/DX2                !
 ! A28   A(22,5,23)            120.0            estimate D2E/DX2                !
 ! A29   A(22,5,33)            105.2918         estimate D2E/DX2                !
 ! A30   A(23,5,33)            105.2918         estimate D2E/DX2                !
 ! A31   A(5,6,7)              122.4077         estimate D2E/DX2                !
 ! A32   A(5,6,8)              131.281          estimate D2E/DX2                !
 ! A33   A(7,6,8)              106.3096         estimate D2E/DX2                !
 ! A34   A(6,7,9)              108.0094         estimate D2E/DX2                !
 ! A35   A(6,8,10)             106.9367         estimate D2E/DX2                !
 ! A36   A(6,8,24)             126.5317         estimate D2E/DX2                !
 ! A37   A(10,8,24)            126.5317         estimate D2E/DX2                !
 ! A38   A(7,9,10)             109.4484         estimate D2E/DX2                !
 ! A39   A(7,9,25)             125.2758         estimate D2E/DX2                !
 ! A40   A(10,9,25)            125.2758         estimate D2E/DX2                !
 ! A41   A(3,10,8)             126.037          estimate D2E/DX2                !
 ! A42   A(3,10,9)             124.6786         estimate D2E/DX2                !
 ! A43   A(8,10,9)             109.2832         estimate D2E/DX2                !
 ! A44   A(12,11,28)           105.488          estimate D2E/DX2                !
 ! A45   A(12,11,29)           105.488          estimate D2E/DX2                !
 ! A46   A(12,11,41)           115.438          estimate D2E/DX2                !
 ! A47   A(28,11,29)           120.0            estimate D2E/DX2                !
 ! A48   A(28,11,41)           105.488          estimate D2E/DX2                !
 ! A49   A(29,11,41)           105.488          estimate D2E/DX2                !
 ! A50   A(4,12,11)            103.3143         estimate D2E/DX2                !
 ! A51   A(14,13,30)           109.4712         estimate D2E/DX2                !
 ! A52   A(14,13,45)           109.4712         estimate D2E/DX2                !
 ! A53   A(14,13,46)           109.4712         estimate D2E/DX2                !
 ! A54   A(30,13,45)           109.4712         estimate D2E/DX2                !
 ! A55   A(30,13,46)           109.4712         estimate D2E/DX2                !
 ! A56   A(45,13,46)           109.4712         estimate D2E/DX2                !
 ! A57   A(13,14,15)           111.6442         estimate D2E/DX2                !
 ! A58   A(13,14,31)           106.3129         estimate D2E/DX2                !
 ! A59   A(13,14,32)           106.3129         estimate D2E/DX2                !
 ! A60   A(15,14,31)           106.3129         estimate D2E/DX2                !
 ! A61   A(15,14,32)           106.3129         estimate D2E/DX2                !
 ! A62   A(31,14,32)           120.0            estimate D2E/DX2                !
 ! A63   A(2,15,14)            101.2735         estimate D2E/DX2                !
 ! A64   A(17,16,26)           106.6672         estimate D2E/DX2                !
 ! A65   A(17,16,27)           106.6672         estimate D2E/DX2                !
 ! A66   A(17,16,37)           109.9934         estimate D2E/DX2                !
 ! A67   A(26,16,27)           120.0            estimate D2E/DX2                !
 ! A68   A(26,16,37)           106.6672         estimate D2E/DX2                !
 ! A69   A(27,16,37)           106.6672         estimate D2E/DX2                !
 ! A70   A(1,17,16)            101.2845         estimate D2E/DX2                !
 ! A71   A(1,18,2)              71.4345         estimate D2E/DX2                !
 ! A72   A(1,18,4)              73.4494         estimate D2E/DX2                !
 ! A73   A(2,18,4)              73.2776         estimate D2E/DX2                !
 ! A74   A(1,19,3)              70.4385         estimate D2E/DX2                !
 ! A75   A(1,19,4)              73.7596         estimate D2E/DX2                !
 ! A76   A(3,19,4)              73.1403         estimate D2E/DX2                !
 ! A77   A(2,20,3)              72.0067         estimate D2E/DX2                !
 ! A78   A(2,20,4)              72.5668         estimate D2E/DX2                !
 ! A79   A(3,20,4)              72.1327         estimate D2E/DX2                !
 ! A80   A(1,21,2)              71.0924         estimate D2E/DX2                !
 ! A81   A(1,21,3)              69.1277         estimate D2E/DX2                !
 ! A82   A(2,21,3)              72.6816         estimate D2E/DX2                !
 ! A83   A(5,33,34)            109.4712         estimate D2E/DX2                !
 ! A84   A(5,33,35)            109.4712         estimate D2E/DX2                !
 ! A85   A(5,33,36)            109.4712         estimate D2E/DX2                !
 ! A86   A(34,33,35)           109.4712         estimate D2E/DX2                !
 ! A87   A(34,33,36)           109.4712         estimate D2E/DX2                !
 ! A88   A(35,33,36)           109.4712         estimate D2E/DX2                !
 ! A89   A(16,37,38)           109.4712         estimate D2E/DX2                !
 ! A90   A(16,37,39)           109.4712         estimate D2E/DX2                !
 ! A91   A(16,37,40)           109.4712         estimate D2E/DX2                !
 ! A92   A(38,37,39)           109.4713         estimate D2E/DX2                !
 ! A93   A(38,37,40)           109.4712         estimate D2E/DX2                !
 ! A94   A(39,37,40)           109.4712         estimate D2E/DX2                !
 ! A95   A(11,41,42)           109.4712         estimate D2E/DX2                !
 ! A96   A(11,41,43)           109.4712         estimate D2E/DX2                !
 ! A97   A(11,41,44)           109.4712         estimate D2E/DX2                !
 ! A98   A(42,41,43)           109.4713         estimate D2E/DX2                !
 ! A99   A(42,41,44)           109.4712         estimate D2E/DX2                !
 ! A100  A(43,41,44)           109.4712         estimate D2E/DX2                !
 ! D1    D(18,1,17,16)          -3.4168         estimate D2E/DX2                !
 ! D2    D(19,1,17,16)         115.0341         estimate D2E/DX2                !
 ! D3    D(21,1,17,16)        -123.0887         estimate D2E/DX2                !
 ! D4    D(17,1,18,2)         -139.8729         estimate D2E/DX2                !
 ! D5    D(17,1,18,4)          142.6506         estimate D2E/DX2                !
 ! D6    D(19,1,18,2)           96.2436         estimate D2E/DX2                !
 ! D7    D(19,1,18,4)           18.7671         estimate D2E/DX2                !
 ! D8    D(21,1,18,2)          -16.9774         estimate D2E/DX2                !
 ! D9    D(21,1,18,4)          -94.4539         estimate D2E/DX2                !
 ! D10   D(17,1,19,3)          138.2804         estimate D2E/DX2                !
 ! D11   D(17,1,19,4)         -144.2573         estimate D2E/DX2                !
 ! D12   D(18,1,19,3)          -96.6325         estimate D2E/DX2                !
 ! D13   D(18,1,19,4)          -19.1702         estimate D2E/DX2                !
 ! D14   D(21,1,19,3)           14.6138         estimate D2E/DX2                !
 ! D15   D(21,1,19,4)           92.0761         estimate D2E/DX2                !
 ! D16   D(17,1,21,2)          142.637          estimate D2E/DX2                !
 ! D17   D(17,1,21,3)         -139.2599         estimate D2E/DX2                !
 ! D18   D(18,1,21,2)           17.3319         estimate D2E/DX2                !
 ! D19   D(18,1,21,3)           95.435          estimate D2E/DX2                !
 ! D20   D(19,1,21,2)          -92.5144         estimate D2E/DX2                !
 ! D21   D(19,1,21,3)          -14.4113         estimate D2E/DX2                !
 ! D22   D(18,2,15,14)          64.3824         estimate D2E/DX2                !
 ! D23   D(20,2,15,14)         -53.8961         estimate D2E/DX2                !
 ! D24   D(21,2,15,14)        -174.8249         estimate D2E/DX2                !
 ! D25   D(15,2,18,1)          142.8968         estimate D2E/DX2                !
 ! D26   D(15,2,18,4)         -139.3932         estimate D2E/DX2                !
 ! D27   D(20,2,18,1)          -92.8997         estimate D2E/DX2                !
 ! D28   D(20,2,18,4)          -15.1898         estimate D2E/DX2                !
 ! D29   D(21,2,18,1)           17.7278         estimate D2E/DX2                !
 ! D30   D(21,2,18,4)           95.4377         estimate D2E/DX2                !
 ! D31   D(15,2,20,3)         -147.1877         estimate D2E/DX2                !
 ! D32   D(15,2,20,4)          136.4705         estimate D2E/DX2                !
 ! D33   D(18,2,20,3)           91.607          estimate D2E/DX2                !
 ! D34   D(18,2,20,4)           15.2653         estimate D2E/DX2                !
 ! D35   D(21,2,20,3)          -20.8828         estimate D2E/DX2                !
 ! D36   D(21,2,20,4)          -97.2246         estimate D2E/DX2                !
 ! D37   D(15,2,21,1)         -139.8234         estimate D2E/DX2                !
 ! D38   D(15,2,21,3)          146.896          estimate D2E/DX2                !
 ! D39   D(18,2,21,1)          -17.3012         estimate D2E/DX2                !
 ! D40   D(18,2,21,3)          -90.5817         estimate D2E/DX2                !
 ! D41   D(20,2,21,1)           93.6679         estimate D2E/DX2                !
 ! D42   D(20,2,21,3)           20.3873         estimate D2E/DX2                !
 ! D43   D(19,3,10,8)          -65.9986         estimate D2E/DX2                !
 ! D44   D(19,3,10,9)          113.5468         estimate D2E/DX2                !
 ! D45   D(20,3,10,8)           57.438          estimate D2E/DX2                !
 ! D46   D(20,3,10,9)         -123.0166         estimate D2E/DX2                !
 ! D47   D(21,3,10,8)          177.1655         estimate D2E/DX2                !
 ! D48   D(21,3,10,9)           -3.2891         estimate D2E/DX2                !
 ! D49   D(10,3,19,1)         -129.8918         estimate D2E/DX2                !
 ! D50   D(10,3,19,4)          151.7882         estimate D2E/DX2                !
 ! D51   D(20,3,19,1)           95.7214         estimate D2E/DX2                !
 ! D52   D(20,3,19,4)           17.4014         estimate D2E/DX2                !
 ! D53   D(21,3,19,1)          -14.6834         estimate D2E/DX2                !
 ! D54   D(21,3,19,4)          -93.0035         estimate D2E/DX2                !
 ! D55   D(10,3,20,2)          141.0724         estimate D2E/DX2                !
 ! D56   D(10,3,20,4)         -142.0047         estimate D2E/DX2                !
 ! D57   D(19,3,20,2)          -94.0477         estimate D2E/DX2                !
 ! D58   D(19,3,20,4)          -17.1248         estimate D2E/DX2                !
 ! D59   D(21,3,20,2)           20.0902         estimate D2E/DX2                !
 ! D60   D(21,3,20,4)           97.013          estimate D2E/DX2                !
 ! D61   D(10,3,21,1)          131.0483         estimate D2E/DX2                !
 ! D62   D(10,3,21,2)         -153.0964         estimate D2E/DX2                !
 ! D63   D(19,3,21,1)           14.6476         estimate D2E/DX2                !
 ! D64   D(19,3,21,2)           90.5029         estimate D2E/DX2                !
 ! D65   D(20,3,21,1)          -96.6292         estimate D2E/DX2                !
 ! D66   D(20,3,21,2)          -20.7739         estimate D2E/DX2                !
 ! D67   D(18,4,12,11)         -46.0482         estimate D2E/DX2                !
 ! D68   D(19,4,12,11)        -164.3194         estimate D2E/DX2                !
 ! D69   D(20,4,12,11)          73.7068         estimate D2E/DX2                !
 ! D70   D(12,4,18,1)         -144.5863         estimate D2E/DX2                !
 ! D71   D(12,4,18,2)          140.3375         estimate D2E/DX2                !
 ! D72   D(19,4,18,1)          -19.1443         estimate D2E/DX2                !
 ! D73   D(19,4,18,2)          -94.2205         estimate D2E/DX2                !
 ! D74   D(20,4,18,1)           90.4663         estimate D2E/DX2                !
 ! D75   D(20,4,18,2)           15.3901         estimate D2E/DX2                !
 ! D76   D(12,4,19,1)          141.8597         estimate D2E/DX2                !
 ! D77   D(12,4,19,3)         -144.1691         estimate D2E/DX2                !
 ! D78   D(18,4,19,1)           18.8211         estimate D2E/DX2                !
 ! D79   D(18,4,19,3)           92.7924         estimate D2E/DX2                !
 ! D80   D(20,4,19,1)          -91.174          estimate D2E/DX2                !
 ! D81   D(20,4,19,3)          -17.2028         estimate D2E/DX2                !
 ! D82   D(12,4,20,2)         -138.7175         estimate D2E/DX2                !
 ! D83   D(12,4,20,3)          145.1076         estimate D2E/DX2                !
 ! D84   D(18,4,20,2)          -15.1716         estimate D2E/DX2                !
 ! D85   D(18,4,20,3)          -91.3465         estimate D2E/DX2                !
 ! D86   D(19,4,20,2)           93.4245         estimate D2E/DX2                !
 ! D87   D(19,4,20,3)           17.2496         estimate D2E/DX2                !
 ! D88   D(22,5,6,7)          -159.2935         estimate D2E/DX2                !
 ! D89   D(22,5,6,8)            20.1666         estimate D2E/DX2                !
 ! D90   D(23,5,6,7)           -31.5495         estimate D2E/DX2                !
 ! D91   D(23,5,6,8)           147.9106         estimate D2E/DX2                !
 ! D92   D(33,5,6,7)            84.5785         estimate D2E/DX2                !
 ! D93   D(33,5,6,8)           -95.9614         estimate D2E/DX2                !
 ! D94   D(6,5,33,34)          174.5956         estimate D2E/DX2                !
 ! D95   D(6,5,33,35)          -65.4044         estimate D2E/DX2                !
 ! D96   D(6,5,33,36)           54.5956         estimate D2E/DX2                !
 ! D97   D(22,5,33,34)          58.4676         estimate D2E/DX2                !
 ! D98   D(22,5,33,35)         178.4676         estimate D2E/DX2                !
 ! D99   D(22,5,33,36)         -61.5324         estimate D2E/DX2                !
 ! D100  D(23,5,33,34)         -69.2764         estimate D2E/DX2                !
 ! D101  D(23,5,33,35)          50.7236         estimate D2E/DX2                !
 ! D102  D(23,5,33,36)         170.7236         estimate D2E/DX2                !
 ! D103  D(5,6,7,9)           -179.5034         estimate D2E/DX2                !
 ! D104  D(8,6,7,9)              0.9193         estimate D2E/DX2                !
 ! D105  D(5,6,8,10)          -179.8631         estimate D2E/DX2                !
 ! D106  D(5,6,8,24)             0.1369         estimate D2E/DX2                !
 ! D107  D(7,6,8,10)            -0.338          estimate D2E/DX2                !
 ! D108  D(7,6,8,24)           179.662          estimate D2E/DX2                !
 ! D109  D(6,7,9,10)            -1.1826         estimate D2E/DX2                !
 ! D110  D(6,7,9,25)           178.8174         estimate D2E/DX2                !
 ! D111  D(6,8,10,3)           179.2266         estimate D2E/DX2                !
 ! D112  D(6,8,10,9)            -0.3773         estimate D2E/DX2                !
 ! D113  D(24,8,10,3)           -0.7734         estimate D2E/DX2                !
 ! D114  D(24,8,10,9)          179.6227         estimate D2E/DX2                !
 ! D115  D(7,9,10,3)          -178.6351         estimate D2E/DX2                !
 ! D116  D(7,9,10,8)             0.9754         estimate D2E/DX2                !
 ! D117  D(25,9,10,3)            1.3649         estimate D2E/DX2                !
 ! D118  D(25,9,10,8)         -179.0246         estimate D2E/DX2                !
 ! D119  D(28,11,12,4)        -176.9062         estimate D2E/DX2                !
 ! D120  D(29,11,12,4)          55.1292         estimate D2E/DX2                !
 ! D121  D(41,11,12,4)         -60.8885         estimate D2E/DX2                !
 ! D122  D(12,11,41,42)        -16.5903         estimate D2E/DX2                !
 ! D123  D(12,11,41,43)        103.4097         estimate D2E/DX2                !
 ! D124  D(12,11,41,44)       -136.5903         estimate D2E/DX2                !
 ! D125  D(28,11,41,42)         99.4274         estimate D2E/DX2                !
 ! D126  D(28,11,41,43)       -140.5726         estimate D2E/DX2                !
 ! D127  D(28,11,41,44)        -20.5726         estimate D2E/DX2                !
 ! D128  D(29,11,41,42)       -132.6079         estimate D2E/DX2                !
 ! D129  D(29,11,41,43)        -12.6079         estimate D2E/DX2                !
 ! D130  D(29,11,41,44)        107.3921         estimate D2E/DX2                !
 ! D131  D(30,13,14,15)        -85.5763         estimate D2E/DX2                !
 ! D132  D(30,13,14,31)        158.8926         estimate D2E/DX2                !
 ! D133  D(30,13,14,32)         29.9547         estimate D2E/DX2                !
 ! D134  D(45,13,14,15)        154.4237         estimate D2E/DX2                !
 ! D135  D(45,13,14,31)         38.8926         estimate D2E/DX2                !
 ! D136  D(45,13,14,32)        -90.0453         estimate D2E/DX2                !
 ! D137  D(46,13,14,15)         34.4237         estimate D2E/DX2                !
 ! D138  D(46,13,14,31)        -81.1074         estimate D2E/DX2                !
 ! D139  D(46,13,14,32)        149.9547         estimate D2E/DX2                !
 ! D140  D(13,14,15,2)        -177.4603         estimate D2E/DX2                !
 ! D141  D(31,14,15,2)         -61.9292         estimate D2E/DX2                !
 ! D142  D(32,14,15,2)          67.0087         estimate D2E/DX2                !
 ! D143  D(26,16,17,1)          49.785          estimate D2E/DX2                !
 ! D144  D(27,16,17,1)         -79.5943         estimate D2E/DX2                !
 ! D145  D(37,16,17,1)         165.0954         estimate D2E/DX2                !
 ! D146  D(17,16,37,38)       -179.9879         estimate D2E/DX2                !
 ! D147  D(17,16,37,39)        -59.9879         estimate D2E/DX2                !
 ! D148  D(17,16,37,40)         60.0121         estimate D2E/DX2                !
 ! D149  D(26,16,37,38)        -64.6775         estimate D2E/DX2                !
 ! D150  D(26,16,37,39)         55.3225         estimate D2E/DX2                !
 ! D151  D(26,16,37,40)        175.3225         estimate D2E/DX2                !
 ! D152  D(27,16,37,38)         64.7018         estimate D2E/DX2                !
 ! D153  D(27,16,37,39)       -175.2982         estimate D2E/DX2                !
 ! D154  D(27,16,37,40)        -55.2982         estimate D2E/DX2                !
 --------------------------------------------------------------------------------
 Trust Radius=3.00D-01 FncErr=1.00D-07 GrdErr=1.00D-06 EigMax=2.50D+02 EigMin=1.00D-04
 Number of steps in this run=    276 maximum allowed number of steps=    276.
 GradGradGradGradGradGradGradGradGradGradGradGradGradGradGradGradGradGrad

                          Input orientation:                          
 ---------------------------------------------------------------------
 Center     Atomic      Atomic             Coordinates (Angstroms)
 Number     Number       Type             X           Y           Z
 ---------------------------------------------------------------------
      1         26           0        9.537000   41.571000   17.741000
      2         26           0        7.856000   40.687000   19.597000
      3         26           0        6.950000   41.778000   17.291000
      4         26           0        8.059000   43.382000   19.152000
      5          6           0        3.410000   42.527000   12.983000
      6          6           0        4.399000   41.981000   13.945000
      7          7           0        4.980000   40.733000   13.785000
      8          6           0        4.931000   42.508000   15.086000
      9          6           0        5.810000   40.529000   14.812000
     10          7           0        5.805000   41.575000   15.588000
     11          6           0        8.182000   44.963000   21.947000
     12         16           0        8.053000   45.404000   20.209000
     13          6           0        7.151000   39.479000   24.038000
     14          6           0        7.297000   40.273000   22.715000
     15         16           0        7.605000   39.171000   21.302000
     16          6           0       12.717000   41.383000   18.023000
     17         16           0       11.538000   41.142000   16.674000
     18         16           0        9.703000   41.985000   19.959000
     19         16           0        8.463000   43.434000   16.936000
     20         16           0        6.099000   42.195000   19.362000
     21         16           0        8.084000   39.770000   17.560000
     22          1           0        3.421728   43.585846   13.136645
     23          1           0        3.687139   42.121217   12.032509
     24          1           0        4.709414   43.465582   15.508890
     25          1           0        6.389025   39.643564   14.972104
     26          1           0       12.356635   40.809873   18.851591
     27          1           0       12.856801   42.439066   18.123398
     28          1           0        8.126738   45.888323   22.481438
     29          1           0        9.057758   44.352909   22.022739
     30          1           0        6.138004   39.152467   24.148069
     31          1           0        8.173900   40.876732   22.822021
     32          1           0        6.348486   40.734381   22.535144
     33          6           0        1.944952   42.102116   13.194440
     34          1           0        1.317981   42.628276   12.505264
     35          1           0        1.851582   41.049085   13.029187
     36          1           0        1.647369   42.333775   14.195778
     37          6           0       14.085572   40.790887   17.638277
     38          1           0       14.776427   40.937804   18.442040
     39          1           0       13.979741   39.743666   17.445851
     40          1           0       14.451440   41.279788   16.759632
     41          6           0        7.031136   44.100606   22.497807
     42          1           0        6.199409   44.144620   21.826098
     43          1           0        7.359313   43.086650   22.593163
     44          1           0        6.735060   44.471352   23.456862
     45          1           0        7.414542   40.108071   24.862448
     46          1           0        7.799659   38.628297   24.016860
 ---------------------------------------------------------------------
                    Distance matrix (angstroms):
                    1          2          3          4          5
     1  Fe   0.000000
     2  Fe   2.655551   0.000000
     3  Fe   2.633993   2.707167   0.000000
     4  Fe   2.730408   2.739025   2.695555   0.000000
     5  C    7.816177   8.179090   5.625963   7.771794   0.000000
     6  C    6.401309   6.750584   4.212425   6.516997   1.483806
     7  N    6.092490   6.484816   4.155113   6.730686   2.515261
     8  C    5.398354   5.676336   3.077545   5.203904   2.595460
     9  C    4.853384   5.206468   3.000840   5.659789   3.619012
    10  N    4.308509   4.589905   2.062145   4.587795   3.664472
    11  C    5.570649   4.890087   5.774113   3.213521  10.443150
    12  S    4.794285   4.760614   4.783222   2.281615   9.058126
    13  C    7.051359   4.656047   7.130765   6.319088  12.062272
    14  C    5.607413   3.194652   5.639611   4.789728  10.719193
    15  S    4.708858   2.295274   4.828415   4.749857   9.902854
    16  C    3.198010   5.156667   5.826675   5.193034  10.645684
    17  S    2.307928   4.723143   4.672786   4.823020   9.033609
    18  S    2.262405   2.286320   3.839281   2.303388   9.410642
    19  S    2.296142   3.872387   2.271020   2.253126   6.479326
    20  S    3.851865   2.327303   2.277527   2.301015   6.930555
    21  S    2.321114   2.245494   2.321719   3.947358   7.099032
    22  H    7.915570   8.354775   5.742445   7.598049   1.070000
    23  H    8.192099   8.755450   6.198048   8.449255   1.070000
    24  H    5.646003   5.859537   3.323263   4.949643   2.991577
    25  H    4.614276   4.962906   3.201217   5.851175   4.598405
    26  H    3.124590   4.563600   5.710027   5.017544  10.836566
    27  H    3.452658   5.499932   6.001682   4.996603  10.755160
    28  H    6.565049   5.953742   6.724590   4.167901  11.125036
    29  H    5.128545   4.557117   5.784648   3.190818  10.814249
    30  H    7.645456   5.100836   7.387296   6.822014  11.978657
    31  H    5.306300   3.246200   5.736062   4.445067  11.055517
    32  H    5.818107   3.302656   5.380707   4.624004  10.153405
    33  C    8.865241   8.828127   6.475906   8.632046   1.540000
    34  H    9.802196   9.839053   7.439481   9.496765   2.148263
    35  H    9.029907   8.906195   6.684926   9.025706   2.148263
    36  H    8.683127   8.392387   6.164996   8.171408   2.148263
    37  C    4.616128   6.531077   7.211892   6.732369  11.775124
    38  H    5.323907   7.020623   7.955110   7.183450  12.709143
    39  H    4.812921   6.558775   7.319819   7.155669  11.806075
    40  H    5.019921   7.204296   7.536722   7.141849  11.735923
    41  C    5.941841   4.554974   5.701922   3.573139  10.301476
    42  H    5.869503   4.434897   5.170241   3.345216   9.412645
    43  H    5.530190   3.870660   5.476590   3.523975  10.405072
    44  H    6.995283   5.520540   6.731879   4.633717  11.159673
    45  H    7.573639   5.315542   7.767322   6.613861  12.767492
    46  H    7.145927   4.876125   7.475275   6.806747  12.498602
                    6          7          8          9         10
     6  C    0.000000
     7  N    1.385881   0.000000
     8  C    1.364783   2.201278   0.000000
     9  C    2.202479   1.336131   2.182695   0.000000
    10  N    2.200255   2.154158   1.373451   1.302427   0.000000
    11  C    9.339990   9.734678   7.979307   8.728973   7.587197
    12  S    8.019123   8.516416   6.661744   7.610800   6.408462
    13  C   10.756494  10.555082   9.707808   9.381890   8.809508
    14  C    9.393006   9.237153   8.294264   8.045751   7.396986
    15  S    8.502940   8.113924   7.544833   6.869228   6.455154
    16  C    9.283147   8.845582   8.397225   7.664626   7.330882
    17  S    7.688737   7.177811   6.931100   6.054155   5.850998
    18  S    8.018767   7.873532   6.840442   6.615663   5.870958
    19  S    5.251037   5.418071   4.093287   4.470885   3.512542
    20  S    5.681521   5.873034   4.443689   4.854027   3.835872
    21  S    5.615690   4.981246   4.853734   3.646733   3.512926
    22  H    2.045490   3.314711   2.690658   4.225514   3.966438
    23  H    2.045490   2.582608   3.319729   3.842820   4.174351
    24  H    2.178553   3.242224   1.070000   3.212547   2.186520
    25  H    3.237090   2.140429   3.216178   1.070000   2.109706
    26  H    9.421790   8.949357   8.497256   7.697766   7.359372
    27  H    9.444746   9.152942   8.488160   8.016927   7.543391
    28  H   10.101187  10.588076   8.736809   9.638978   8.456637
    29  H    9.621842   9.878876   8.279623   8.784359   7.726776
    30  H   10.729741  10.546670   9.738457   9.442701   8.902490
    31  H    9.709314   9.585896   8.545376   8.358790   7.643973
    32  H    8.896355   8.856510   7.787473   7.744618   7.018891
    33  C    2.569117   3.381532   3.557981   4.475466   4.572412
    34  H    3.461861   4.317427   4.441686   5.468658   5.544907
    35  H    2.862956   3.233908   3.980167   4.372412   4.738526
    36  H    2.785464   3.719899   3.406623   4.578694   4.449709
    37  C   10.434862   9.887494   9.657577   8.748801   8.566583
    38  H   11.357932  10.848961  10.519551   9.682000   9.435998
    39  H   10.442807   9.766061   9.751418   8.619663   8.580897
    40  H   10.462572   9.942615   9.744143   8.889963   8.730452
    41  C    9.196269   9.563521   7.866501   8.562661   7.458386
    42  H    8.368657   8.819601   7.050979   7.900754   6.758134
    43  H    9.207423   9.422555   7.911323   8.335973   7.333027
    44  H   10.106164  10.516673   8.785255   9.546282   8.436400
    45  H   11.480071  11.359022  10.368538  10.186424   9.526694
    46  H   11.146634  10.819945  10.150938   9.607333   9.149175
                   11         12         13         14         15
    11  C    0.000000
    12  S    1.797711   0.000000
    13  C    5.958985   7.111995   0.000000
    14  C    4.834165   5.760098   1.549865   0.000000
    15  S    5.856297   6.343945   2.790462   1.818196   0.000000
    16  C    6.984297   6.534519   8.413430   7.254196   6.463538
    17  S    7.325797   6.542637   8.731542   7.432020   6.385273
    18  S    3.890253   3.804545   5.425033   4.039222   3.758171
    19  S    5.246611   3.842074   8.234183   6.689418   6.162085
    20  S    4.322376   3.851390   5.508932   4.046220   3.895666
    21  S    6.798722   6.225762   6.551309   5.238931   3.819791
    22  H   10.108368   8.647113  12.231648  10.850695  10.181535
    23  H   11.250629   9.833231  12.771510  11.426400  10.486987
    24  H    7.466618   6.085069   9.726248   8.295554   7.770971
    25  H    8.953230   7.960937   9.099349   7.821320   6.462932
    26  H    6.652638   6.439707   7.467844   6.388589   5.591819
    27  H    6.545528   6.018062   8.735025   7.529013   6.954508
    28  H    1.070000   2.324646   6.667411   5.681097   6.840008
    29  H    1.070000   2.324646   5.608207   4.497238   5.429747
    30  H    6.541018   7.633160   1.070000   2.156977   3.201957
    31  H    4.178913   5.228637   2.116267   1.070000   2.354492
    32  H    4.646386   5.488320   2.116267   1.070000   2.354492
    33  C   11.121724   9.869891  12.311234  11.073895  10.313104
    34  H   11.904288  10.602485  13.302107  12.063777  11.351737
    35  H   11.615520  10.438993  12.318399  11.138665  10.250291
    36  H   10.473569   9.306837  11.632241  10.427956   9.797699
    37  C    8.415687   8.017566   9.527109   8.492705   7.618709
    38  H    8.483714   8.262779   9.570267   8.639559   7.920248
    39  H    9.006420   8.648736   9.495166   8.526615   7.472293
    40  H    8.932005   8.357470  10.464889   9.363015   8.482561
    41  C    1.540000   2.825186   4.872967   3.842971   5.104928
    42  H    2.148263   2.763484   5.250338   4.121201   5.194926
    43  H    2.148263   3.396402   3.891797   2.816976   4.130348
    44  H    2.148263   3.627038   5.043244   4.300267   5.787396
    45  H    5.714819   7.078776   1.070000   2.156977   3.686620
    46  H    6.675250   7.776511   1.070000   2.156977   2.775406
                   16         17         18         19         20
    16  C    0.000000
    17  S    1.807740   0.000000
    18  S    3.632450   3.856047   0.000000
    19  S    4.846100   3.844156   3.574315   0.000000
    20  S    6.800749   6.157668   3.659143   3.606812   0.000000
    21  S    4.927558   3.820667   3.644528   3.736029   3.614976
    22  H   10.729915   9.184723   9.410718   6.314474   6.917896
    23  H   10.861369   9.172695   9.951804   6.969683   7.716474
    24  H    8.647505   7.306580   6.850658   4.015850   4.288565
    25  H    7.237187   5.626163   6.429143   4.746121   5.085777
    26  H    1.070000   2.349973   3.106293   5.071087   6.429392
    27  H    1.070000   2.349973   3.677237   4.658894   6.874705
    28  H    7.825989   8.239577   4.907466   6.073603   5.242447
    29  H    6.181288   6.713460   3.206610   5.203176   4.526627
    30  H    9.261476   9.432916   6.187143   8.703509   5.671418
    31  H    6.627719   7.013251   3.429765   6.424051   4.244382
    32  H    7.831866   7.839019   4.410593   6.565785   3.502070
    33  C   11.826629  10.249670  10.293702   7.632702   7.436635
    34  H   12.725320  11.137153  11.237461   8.445822   8.370227
    35  H   11.962733  10.349879  10.513944   8.041259   7.710914
    36  H   11.751099  10.265792   9.911082   7.427794   6.821006
    37  C    1.540000   2.746495   5.100843   6.252404   8.290241
    38  H    2.148263   3.695277   5.397911   6.954028   8.816156
    39  H    2.148263   2.917737   5.443346   6.656797   8.472706
    40  H    2.148263   2.917953   5.768966   6.366565   8.796203
    41  C    7.729057   7.936113   4.249728   5.781720   3.785960
    42  H    8.035490   8.003774   4.519421   5.435245   3.143705
    43  H    7.245249   7.501972   3.693957   5.774277   3.581039
    44  H    8.651495   8.953213   5.217820   6.825211   4.728027
    45  H    8.747546   9.226191   5.727452   8.659656   6.028337
    46  H    8.227696   8.614609   5.599677   8.583320   6.105844
                   21         22         23         24         25
    21  S    0.000000
    22  H    7.474191   0.000000
    23  H    7.444043   1.853294   0.000000
    24  H    5.408532   2.701878   3.864918   0.000000
    25  H    3.096148   5.264537   4.698955   4.209163   0.000000
    26  H    4.583116  10.963539  11.107640   8.758221   7.212701
    27  H    5.497359  10.733285  11.012841   8.617964   7.718654
    28  H    7.852149  10.712781  11.961658   8.134138   9.920018
    29  H    6.470494  10.550634  11.559788   7.881984   8.888842
    30  H    6.897166  12.177211  12.712474   9.761109   9.192524
    31  H    5.377899  11.123351  11.751312   8.496275   8.144180
    32  H    5.356687  10.248344  10.922977   7.714549   7.641407
    33  C    7.885734   2.094198   2.094198   3.854604   5.380925
    34  H    8.916227   2.396108   2.468505   4.607024   6.380383
    35  H    7.810721   2.985308   2.347787   4.489497   5.132135
    36  H    7.702022   2.416153   2.980868   3.518716   5.506652
    37  C    6.088285  11.907731  11.887886   9.980012   8.225672
    38  H    6.850572  12.809705  12.862926  10.785999   9.168644
    39  H    5.896905  12.033422  11.869907  10.175630   7.984261
    40  H    6.592749  11.836321  11.786598  10.062263   8.418731
    41  C    6.651662  10.046101  11.163457   7.391793   8.770047
    42  H    6.394418   9.139712  10.311162   6.525971   8.201993
    43  H    6.071085  10.255706  11.222493   7.573142   8.418838
    44  H    7.661287  10.875163  12.055240   8.263478   9.768233
    45  H    7.340859  12.865922  13.511241  10.299498   9.954213
    46  H    6.563183  12.732739  13.142982  10.263259   9.210225
                   26         27         28         29         30
    26  H    0.000000
    27  H    1.853294   0.000000
    28  H    7.540455   7.298176   0.000000
    29  H    5.787216   5.770648   1.853294   0.000000
    30  H    8.334929   9.604198   7.218342   6.331396   0.000000
    31  H    5.767500   6.815240   5.023371   3.674760   2.979323
    32  H    7.047845   8.045348   5.452355   4.549336   2.268982
    33  C   11.919580  11.978173  11.781264  11.558414  12.093969
    34  H   12.862128  12.835248  12.510441  12.387931  13.071678
    35  H   12.013065  12.206469  12.334539  11.988669  12.066486
    36  H   11.776554  11.878074  11.102665  10.965950  11.372537
    37  C    2.112278   2.112278   9.216711   7.562435  10.403156
    38  H    2.457538   2.457699   9.221861   7.562242  10.505643
    39  H    2.397369   2.997540   9.867705   8.149782  10.332574
    40  H    2.997552   2.397219   9.694303   8.138561  11.323768
    41  C    7.244636   7.472251   2.096794   2.096794   5.291987
    42  H    7.607868   7.806393   2.680405   2.872667   5.506079
    43  H    6.645021   7.114811   2.907025   2.193972   4.403080
    44  H    8.137386   8.369691   2.212696   2.732336   5.396738
    45  H    7.813272   8.970313   6.291879   5.364956   1.747303
    46  H    7.225324   8.650407   7.427817   6.191164   1.747303
                   31         32         33         34         35
    31  H    0.000000
    32  H    1.853294   0.000000
    33  C   11.532202  10.416841   0.000000
    34  H   12.510276  11.379425   1.070000   0.000000
    35  H   11.657658  10.520665   1.070000   1.747303   0.000000
    36  H   10.914698   9.705853   1.070000   1.747303   1.747303
    37  C    7.862979   9.156692  12.994679  13.882911  13.075966
    38  H    7.923466   9.371503  13.911854  14.806511  14.012957
    39  H    7.993424   9.225968  12.979713  13.894263  12.973176
    40  H    8.736276   9.965535  13.030697  13.871042  13.142521
    41  C    3.435751   3.434949  10.789618  11.604258  11.215806
    42  H    3.945829   3.486359   9.837568  10.630409  10.289391
    43  H    2.366361   2.560919  10.891309  11.767477  11.223030
    44  H    3.923592   3.868327  11.570468  12.356341  12.012355
    45  H    2.308855   2.635353  13.039749  14.007837  13.109466
    46  H    2.573550   2.955837  12.785530  13.803217  12.726695
                   36         37         38         39         40
    36  H    0.000000
    37  C   12.997700   0.000000
    38  H   13.869089   1.070000   0.000000
    39  H   13.013802   1.070000   1.747303   0.000000
    40  H   13.100705   1.070000   1.747303   1.747303   0.000000
    41  C   10.051383   9.183373   9.297423   9.632668   9.795130
    42  H    9.067635   9.538184   9.762211   9.954323  10.098137
    43  H   10.183771   8.663948   8.767151   9.027759   9.359119
    44  H   10.780607  10.071334  10.114246  10.534167  10.704274
    45  H   12.328499   9.856852   9.803440   9.911637  10.795670
    46  H   12.166958   9.212808   9.224301   9.089314  10.195291
                   41         42         43         44         45
    41  C    0.000000
    42  H    1.070000   0.000000
    43  H    1.070000   1.747303   0.000000
    44  H    1.070000   1.747303   1.747303   0.000000
    45  H    4.656056   5.195161   3.744948   4.634176   0.000000
    46  H    5.730996   6.147361   4.700821   5.965589   1.747303
                   46
    46  H    0.000000
 Stoichiometry    C11H22Fe4N2S7(2-,19)
 Framework group  C1[X(C11H22Fe4N2S7)]
 Deg. of freedom   132
 Full point group                 C1      NOp   1
 Largest Abelian subgroup         C1      NOp   1
 Largest concise Abelian subgroup C1      NOp   1
                         Standard orientation:                         
 ---------------------------------------------------------------------
 Center     Atomic      Atomic             Coordinates (Angstroms)
 Number     Number       Type             X           Y           Z
 ---------------------------------------------------------------------
      1         26           0        0.501927    1.736652    0.028920
      2         26           0        1.046884   -0.538126   -1.228204
      3         26           0       -1.379301   -0.101771   -0.109287
      4         26           0        0.739962   -0.555383    1.493516
      5          6           0       -6.960161   -0.552558    0.440485
      6          6           0       -5.588910   -0.231934   -0.027011
      7          7           0       -5.349468    0.527263   -1.161450
      8          6           0       -4.365065   -0.554112    0.483909
      9          6           0       -4.026545    0.627746   -1.319635
     10          7           0       -3.424928    0.004155   -0.347264
     11          6           0        3.041553   -2.334035    2.859455
     12         16           0        1.545618   -1.501053    3.407255
     13          6           0        4.266917   -3.479568   -2.858563
     14          6           0        3.259865   -2.724865   -1.953937
     15         16           0        2.319790   -1.480962   -2.889244
     16          6           0        2.592803    4.142892    0.284880
     17         16           0        0.815422    4.022615   -0.022323
     18         16           0        2.388440    0.516205    0.293594
     19         16           0       -0.823113    1.043427    1.771326
     20         16           0       -0.206198   -2.049555    0.021477
     21         16           0       -0.450596    0.973622   -1.945430
     22          1           0       -6.853993   -0.804086    1.475068
     23          1           0       -7.559691    0.285601    0.152467
     24          1           0       -4.174327   -1.131594    1.364269
     25          1           0       -3.537233    1.140962   -2.120936
     26          1           0        3.068239    3.467796   -0.395639
     27          1           0        2.730653    4.024948    1.339387
     28          1           0        3.420720   -2.838140    3.723753
     29          1           0        3.629169   -1.579653    2.379336
     30          1           0        3.772287   -4.299262   -3.336416
     31          1           0        3.844485   -2.184677   -1.238874
     32          1           0        2.548837   -3.452853   -1.623221
     33          6           0       -7.634262   -1.776019   -0.207843
     34          1           0       -8.572219   -1.962506    0.272115
     35          1           0       -7.797679   -1.583896   -1.247691
     36          1           0       -7.001257   -2.631724   -0.098415
     37          6           0        3.094295    5.554805   -0.070939
     38          1           0        4.146430    5.616651    0.113688
     39          1           0        2.901415    5.751788   -1.104812
     40          1           0        2.583480    6.276980    0.531084
     41          6           0        2.836776   -3.432363    1.799577
     42          1           0        1.804918   -3.714234    1.772801
     43          1           0        3.130102   -3.061058    0.839894
     44          1           0        3.433030   -4.284922    2.049628
     45          1           0        5.074684   -3.849161   -2.262062
     46          1           0        4.649033   -2.811316   -3.601750
 ---------------------------------------------------------------------
 Rotational constants (GHZ):           0.1303010           0.0833100           0.0722740
 Standard basis: def2TZVP (5D, 7F)
 There are  1102 symmetry adapted cartesian basis functions of A   symmetry.
 There are   974 symmetry adapted basis functions of A   symmetry.
   974 basis functions,  1730 primitive gaussians,  1102 cartesian basis functions
   169 alpha electrons      151 beta electrons
       nuclear repulsion energy      6347.5855889095 Hartrees.
 NAtoms=   46 NActive=   46 NUniq=   46 SFac= 1.00D+00 NAtFMM=   60 NAOKFM=F Big=F
 Integral buffers will be    131072 words long.
 Raffenetti 2 integral format.
 Two-electron integral symmetry is turned on.
 Nuclear repulsion after empirical dispersion term =     6347.5152648728 Hartrees.
 Standard density basis: TZVPFit (5D, 7F)
  1240 Density fitting functions
 There are  1240 symmetry adapted density basis functions of A   symmetry.
 ------------------------------------------------------------------------------
 Polarizable Continuum Model (PCM)
 =================================
 Model                : PCM.
 Atomic radii         : UFF (Universal Force Field).
 Polarization charges : Total charges.
 Charge compensation  : None.
 Solution method      : On-the-fly selection.
 Cavity type          : Scaled VdW (van der Waals Surface) (Alpha=1.100).
 Cavity algorithm     : GePol (No added spheres)
                        Default sphere list used, NSphG=   46.
                        Lebedev-Laikov grids with approx.  5.0 points / Ang**2.
                        Smoothing algorithm: York/Karplus (Gamma=1.0000).
                        Polarization charges: spherical gaussians, with
                                              point-specific exponents (IZeta= 3).
                        Self-potential: point-specific (ISelfS= 7).
                        Self-field    : sphere-specific E.n sum rule (ISelfD= 2).
 1st derivatives      : Analytical E(r).r(x)/FMM algorithm (CHGder, D1EAlg=3).
                        Cavity 1st derivative terms included.
 Solvent              : 2-NitroPropane, Eps=  25.654000 Eps(inf)=   1.944351
 ------------------------------------------------------------------------------
 One-electron integrals computed using PRISM.
   1 Symmetry operations used in ECPInt.
 ECPInt:  NShTT=   73153 NPrTT=  264015 LenC2=   53760 LenP2D=  123258.
 LDataN:  DoStor=T MaxTD1= 6 Len=  172
 NBasis=   974 RedAO= T EigKep=  7.27D-05  NBF=   974
 NBsUse=   974 1.00D-06 EigRej= -1.00D+00 NBFU=   974
 NBasis=      974 NBas6D=     1102 NTT=      474825   NTT6D=   607753
 NDBShl=      444 NDBF=       1240 NDBF6D=     1487  NNucDB=        0
 IDenFi=        2 ISolve=        0 FullAP=F BlkAPC=T NucTyp=        0
 TolInv= 1.00D-06 TolIt=  1.00D-10 IR12=0.
 FoFCou: FMM=F IPFlag=           0 FMFlag=           0 FMFlg1=           0
         NFxFlg=           0 DoJE=F BraDBF=T KetDBF=T FulRan=T
         wScrn=  0.000000 ICntrl=       600 IOpCl=  3 I1Cent=           6 NGrid=           0
         NMat0=    1 NMatS0=   1487 NMatT0=    0 NMatD0=    1 NMtDS0=    0 NMtDT0=    0
 Petite list used in FoFCou.
 DBF EigKep=  3.47D-05 EigRej= -1.00D+00
 NDBF=   1240  NBFD=  1240
 NRank=  1240 NBFDU=  1240
 S*AI*S=  11.6199749675    
 ExpMin= 4.20D-02 ExpMax= 3.01D+05 ExpMxC= 2.91D+03 IAcc=3 IRadAn=         5 AccDes= 0.00D+00
 Harris functional with IExCor=  404 and IRadAn=       5 diagonalized for initial guess.
 HarFok:  IExCor=  404 AccDes= 0.00D+00 IRadAn=         5 IDoV= 1 UseB2=F ITyADJ=14
 ICtDFT=  3500011 ScaDFX=  1.000000  1.000000  1.000000  1.000000
 FoFCou: FMM=F IPFlag=           0 FMFlag=      100000 FMFlg1=           0
         NFxFlg=           0 DoJE=T BraDBF=F KetDBF=T FulRan=T
         wScrn=  0.000000 ICntrl=       500 IOpCl=  0 I1Cent=   200000004 NGrid=           0
         NMat0=    1 NMatS0=      1 NMatT0=    0 NMatD0=    1 NMtDS0=    0 NMtDT0=    0
 Petite list used in FoFCou.
 Initial guess <Sx>= 0.0000 <Sy>= 0.0000 <Sz>= 9.0000 <S**2>=90.0000 S= 9.0000
 Requested convergence on RMS density matrix=1.00D-08 within 128 cycles.
 Requested convergence on MAX density matrix=1.00D-06.
 Requested convergence on             energy=1.00D-06.
 No special actions if energy rises.
 FoFCou: FMM=F IPFlag=           0 FMFlag=      100000 FMFlg1=           0
         NFxFlg=           0 DoJE=T BraDBF=T KetDBF=F FulRan=T
         wScrn=  0.000000 ICntrl=       500 IOpCl=  0 I1Cent=           5 NGrid=           0
         NMat0=    1 NMatS0=      1 NMatT0=    0 NMatD0=    1 NMtDS0=    0 NMtDT0=    0
 Symmetry not used in FoFCou.
 Inv3:  Mode=1 IEnd=    55573248.
 Iteration    1 A*A^-1 deviation from unit magnitude is 3.11D-15 for   3294.
 Iteration    1 A*A^-1 deviation from orthogonality  is 3.11D-15 for   2535   1261.
 Iteration    1 A^-1*A deviation from unit magnitude is 3.77D-15 for   3294.
 Iteration    1 A^-1*A deviation from orthogonality  is 2.26D-15 for   3047   2975.
 EnCoef did   100 forward-backward iterations
 EnCoef did   100 forward-backward iterations
 EnCoef did   100 forward-backward iterations
 EnCoef did   100 forward-backward iterations
 EnCoef did     2 forward-backward iterations
 EnCoef did   100 forward-backward iterations
 EnCoef did    16 forward-backward iterations
 EnCoef did     3 forward-backward iterations
 EnCoef did     2 forward-backward iterations
 EnCoef did     4 forward-backward iterations
 Restarting incremental Fock formation.
 Error on total polarization charges =  0.03356
 SCF Done:  E(UB-P86) =  -8386.34888563     A.U. after   26 cycles
            NFock= 26  Conv=0.90D-08     -V/T= 2.0018
 <Sx>= 0.0000 <Sy>= 0.0000 <Sz>= 9.0000 <S**2>=90.0537 S= 9.0028
 <L.S>= 0.000000000000E+00
 Annihilation of the first spin contaminant:
 S**2 before annihilation    90.0537,   after    90.0003

 **********************************************************************

            Population analysis using the SCF Density.

 **********************************************************************

 Orbital symmetries:
 Alpha Orbitals:
       Occupied  (A) (A) (A) (A) (A) (A) (A) (A) (A) (A) (A) (A)
                 (A) (A) (A) (A) (A) (A) (A) (A) (A) (A) (A) (A)
                 (A) (A) (A) (A) (A) (A) (A) (A) (A) (A) (A) (A)
                 (A) (A) (A) (A) (A) (A) (A) (A) (A) (A) (A) (A)
                 (A) (A) (A) (A) (A) (A) (A) (A) (A) (A) (A) (A)
                 (A) (A) (A) (A) (A) (A) (A) (A) (A) (A) (A) (A)
                 (A) (A) (A) (A) (A) (A) (A) (A) (A) (A) (A) (A)
                 (A) (A) (A) (A) (A) (A) (A) (A) (A) (A) (A) (A)
                 (A) (A) (A) (A) (A) (A) (A) (A) (A) (A) (A) (A)
                 (A) (A) (A) (A) (A) (A) (A) (A) (A) (A) (A) (A)
                 (A) (A) (A) (A) (A) (A) (A) (A) (A) (A) (A) (A)
                 (A) (A) (A) (A) (A) (A) (A) (A) (A) (A) (A) (A)
                 (A) (A) (A) (A) (A) (A) (A) (A) (A) (A) (A) (A)
                 (A) (A) (A) (A) (A) (A) (A) (A) (A) (A) (A) (A)
                 (A)
       Virtual   (A) (A) (A) (A) (A) (A) (A) (A) (A) (A) (A) (A)
                 (A) (A) (A) (A) (A) (A) (A) (A) (A) (A) (A) (A)
                 (A) (A) (A) (A) (A) (A) (A) (A) (A) (A) (A) (A)
                 (A) (A) (A) (A) (A) (A) (A) (A) (A) (A) (A) (A)
                 (A) (A) (A) (A) (A) (A) (A) (A) (A) (A) (A) (A)
                 (A) (A) (A) (A) (A) (A) (A) (A) (A) (A) (A) (A)
                 (A) (A) (A) (A) (A) (A) (A) (A) (A) (A) (A) (A)
                 (A) (A) (A) (A) (A) (A) (A) (A) (A) (A) (A) (A)
                 (A) (A) (A) (A) (A) (A) (A) (A) (A) (A) (A) (A)
                 (A) (A) (A) (A) (A) (A) (A) (A) (A) (A) (A) (A)
                 (A) (A) (A) (A) (A) (A) (A) (A) (A) (A) (A) (A)
                 (A) (A) (A) (A) (A) (A) (A) (A) (A) (A) (A) (A)
                 (A) (A) (A) (A) (A) (A) (A) (A) (A) (A) (A) (A)
                 (A) (A) (A) (A) (A) (A) (A) (A) (A) (A) (A) (A)
                 (A) (A) (A) (A) (A) (A) (A) (A) (A) (A) (A) (A)
                 (A) (A) (A) (A) (A) (A) (A) (A) (A) (A) (A) (A)
                 (A) (A) (A) (A) (A) (A) (A) (A) (A) (A) (A) (A)
                 (A) (A) (A) (A) (A) (A) (A) (A) (A) (A) (A) (A)
                 (A) (A) (A) (A) (A) (A) (A) (A) (A) (A) (A) (A)
                 (A) (A) (A) (A) (A) (A) (A) (A) (A) (A) (A) (A)
                 (A) (A) (A) (A) (A) (A) (A) (A) (A) (A) (A) (A)
                 (A) (A) (A) (A) (A) (A) (A) (A) (A) (A) (A) (A)
                 (A) (A) (A) (A) (A) (A) (A) (A) (A) (A) (A) (A)
                 (A) (A) (A) (A) (A) (A) (A) (A) (A) (A) (A) (A)
                 (A) (A) (A) (A) (A) (A) (A) (A) (A) (A) (A) (A)
                 (A) (A) (A) (A) (A) (A) (A) (A) (A) (A) (A) (A)
                 (A) (A) (A) (A) (A) (A) (A) (A) (A) (A) (A) (A)
                 (A) (A) (A) (A) (A) (A) (A) (A) (A) (A) (A) (A)
                 (A) (A) (A) (A) (A) (A) (A) (A) (A) (A) (A) (A)
                 (A) (A) (A) (A) (A) (A) (A) (A) (A) (A) (A) (A)
                 (A) (A) (A) (A) (A) (A) (A) (A) (A) (A) (A) (A)
                 (A) (A) (A) (A) (A) (A) (A) (A) (A) (A) (A) (A)
                 (A) (A) (A) (A) (A) (A) (A) (A) (A) (A) (A) (A)
                 (A) (A) (A) (A) (A) (A) (A) (A) (A) (A) (A) (A)
                 (A) (A) (A) (A) (A) (A) (A) (A) (A) (A) (A) (A)
                 (A) (A) (A) (A) (A) (A) (A) (A) (A) (A) (A) (A)
                 (A) (A) (A) (A) (A) (A) (A) (A) (A) (A) (A) (A)
                 (A) (A) (A) (A) (A) (A) (A) (A) (A) (A) (A) (A)
                 (A) (A) (A) (A) (A) (A) (A) (A) (A) (A) (A) (A)
                 (A) (A) (A) (A) (A) (A) (A) (A) (A) (A) (A) (A)
                 (A) (A) (A) (A) (A) (A) (A) (A) (A) (A) (A) (A)
                 (A) (A) (A) (A) (A) (A) (A) (A) (A) (A) (A) (A)
                 (A) (A) (A) (A) (A) (A) (A) (A) (A) (A) (A) (A)
                 (A) (A) (A) (A) (A) (A) (A) (A) (A) (A) (A) (A)
                 (A) (A) (A) (A) (A) (A) (A) (A) (A) (A) (A) (A)
                 (A) (A) (A) (A) (A) (A) (A) (A) (A) (A) (A) (A)
                 (A) (A) (A) (A) (A) (A) (A) (A) (A) (A) (A) (A)
                 (A) (A) (A) (A) (A) (A) (A) (A) (A) (A) (A) (A)
                 (A) (A) (A) (A) (A) (A) (A) (A) (A) (A) (A) (A)
                 (A) (A) (A) (A) (A) (A) (A) (A) (A) (A) (A) (A)
                 (A) (A) (A) (A) (A) (A) (A) (A) (A) (A) (A) (A)
                 (A) (A) (A) (A) (A) (A) (A) (A) (A) (A) (A) (A)
                 (A) (A) (A) (A) (A) (A) (A) (A) (A) (A) (A) (A)
                 (A) (A) (A) (A) (A) (A) (A) (A) (A) (A) (A) (A)
                 (A) (A) (A) (A) (A) (A) (A) (A) (A) (A) (A) (A)
                 (A) (A) (A) (A) (A) (A) (A) (A) (A) (A) (A) (A)
                 (A) (A) (A) (A) (A) (A) (A) (A) (A) (A) (A) (A)
                 (A) (A) (A) (A) (A) (A) (A) (A) (A) (A) (A) (A)
                 (A) (A) (A) (A) (A) (A) (A) (A) (A) (A) (A) (A)
                 (A) (A) (A) (A) (A) (A) (A) (A) (A) (A) (A) (A)
                 (A) (A) (A) (A) (A) (A) (A) (A) (A) (A) (A) (A)
                 (A) (A) (A) (A) (A) (A) (A) (A) (A) (A) (A) (A)
                 (A) (A) (A) (A) (A) (A) (A) (A) (A) (A) (A) (A)
                 (A) (A) (A) (A) (A) (A) (A) (A) (A) (A) (A) (A)
                 (A) (A) (A) (A) (A) (A) (A) (A) (A) (A) (A) (A)
                 (A) (A) (A) (A) (A) (A) (A) (A) (A) (A) (A) (A)
                 (A) (A) (A) (A) (A) (A) (A) (A) (A) (A) (A) (A)
                 (A)
 Beta  Orbitals:
       Occupied  (A) (A) (A) (A) (A) (A) (A) (A) (A) (A) (A) (A)
                 (A) (A) (A) (A) (A) (A) (A) (A) (A) (A) (A) (A)
                 (A) (A) (A) (A) (A) (A) (A) (A) (A) (A) (A) (A)
                 (A) (A) (A) (A) (A) (A) (A) (A) (A) (A) (A) (A)
                 (A) (A) (A) (A) (A) (A) (A) (A) (A) (A) (A) (A)
                 (A) (A) (A) (A) (A) (A) (A) (A) (A) (A) (A) (A)
                 (A) (A) (A) (A) (A) (A) (A) (A) (A) (A) (A) (A)
                 (A) (A) (A) (A) (A) (A) (A) (A) (A) (A) (A) (A)
                 (A) (A) (A) (A) (A) (A) (A) (A) (A) (A) (A) (A)
                 (A) (A) (A) (A) (A) (A) (A) (A) (A) (A) (A) (A)
                 (A) (A) (A) (A) (A) (A) (A) (A) (A) (A) (A) (A)
                 (A) (A) (A) (A) (A) (A) (A) (A) (A) (A) (A) (A)
                 (A) (A) (A) (A) (A) (A) (A)
       Virtual   (A) (A) (A) (A) (A) (A) (A) (A) (A) (A) (A) (A)
                 (A) (A) (A) (A) (A) (A) (A) (A) (A) (A) (A) (A)
                 (A) (A) (A) (A) (A) (A) (A) (A) (A) (A) (A) (A)
                 (A) (A) (A) (A) (A) (A) (A) (A) (A) (A) (A) (A)
                 (A) (A) (A) (A) (A) (A) (A) (A) (A) (A) (A) (A)
                 (A) (A) (A) (A) (A) (A) (A) (A) (A) (A) (A) (A)
                 (A) (A) (A) (A) (A) (A) (A) (A) (A) (A) (A) (A)
                 (A) (A) (A) (A) (A) (A) (A) (A) (A) (A) (A) (A)
                 (A) (A) (A) (A) (A) (A) (A) (A) (A) (A) (A) (A)
                 (A) (A) (A) (A) (A) (A) (A) (A) (A) (A) (A) (A)
                 (A) (A) (A) (A) (A) (A) (A) (A) (A) (A) (A) (A)
                 (A) (A) (A) (A) (A) (A) (A) (A) (A) (A) (A) (A)
                 (A) (A) (A) (A) (A) (A) (A) (A) (A) (A) (A) (A)
                 (A) (A) (A) (A) (A) (A) (A) (A) (A) (A) (A) (A)
                 (A) (A) (A) (A) (A) (A) (A) (A) (A) (A) (A) (A)
                 (A) (A) (A) (A) (A) (A) (A) (A) (A) (A) (A) (A)
                 (A) (A) (A) (A) (A) (A) (A) (A) (A) (A) (A) (A)
                 (A) (A) (A) (A) (A) (A) (A) (A) (A) (A) (A) (A)
                 (A) (A) (A) (A) (A) (A) (A) (A) (A) (A) (A) (A)
                 (A) (A) (A) (A) (A) (A) (A) (A) (A) (A) (A) (A)
                 (A) (A) (A) (A) (A) (A) (A) (A) (A) (A) (A) (A)
                 (A) (A) (A) (A) (A) (A) (A) (A) (A) (A) (A) (A)
                 (A) (A) (A) (A) (A) (A) (A) (A) (A) (A) (A) (A)
                 (A) (A) (A) (A) (A) (A) (A) (A) (A) (A) (A) (A)
                 (A) (A) (A) (A) (A) (A) (A) (A) (A) (A) (A) (A)
                 (A) (A) (A) (A) (A) (A) (A) (A) (A) (A) (A) (A)
                 (A) (A) (A) (A) (A) (A) (A) (A) (A) (A) (A) (A)
                 (A) (A) (A) (A) (A) (A) (A) (A) (A) (A) (A) (A)
                 (A) (A) (A) (A) (A) (A) (A) (A) (A) (A) (A) (A)
                 (A) (A) (A) (A) (A) (A) (A) (A) (A) (A) (A) (A)
                 (A) (A) (A) (A) (A) (A) (A) (A) (A) (A) (A) (A)
                 (A) (A) (A) (A) (A) (A) (A) (A) (A) (A) (A) (A)
                 (A) (A) (A) (A) (A) (A) (A) (A) (A) (A) (A) (A)
                 (A) (A) (A) (A) (A) (A) (A) (A) (A) (A) (A) (A)
                 (A) (A) (A) (A) (A) (A) (A) (A) (A) (A) (A) (A)
                 (A) (A) (A) (A) (A) (A) (A) (A) (A) (A) (A) (A)
                 (A) (A) (A) (A) (A) (A) (A) (A) (A) (A) (A) (A)
                 (A) (A) (A) (A) (A) (A) (A) (A) (A) (A) (A) (A)
                 (A) (A) (A) (A) (A) (A) (A) (A) (A) (A) (A) (A)
                 (A) (A) (A) (A) (A) (A) (A) (A) (A) (A) (A) (A)
                 (A) (A) (A) (A) (A) (A) (A) (A) (A) (A) (A) (A)
                 (A) (A) (A) (A) (A) (A) (A) (A) (A) (A) (A) (A)
                 (A) (A) (A) (A) (A) (A) (A) (A) (A) (A) (A) (A)
                 (A) (A) (A) (A) (A) (A) (A) (A) (A) (A) (A) (A)
                 (A) (A) (A) (A) (A) (A) (A) (A) (A) (A) (A) (A)
                 (A) (A) (A) (A) (A) (A) (A) (A) (A) (A) (A) (A)
                 (A) (A) (A) (A) (A) (A) (A) (A) (A) (A) (A) (A)
                 (A) (A) (A) (A) (A) (A) (A) (A) (A) (A) (A) (A)
                 (A) (A) (A) (A) (A) (A) (A) (A) (A) (A) (A) (A)
                 (A) (A) (A) (A) (A) (A) (A) (A) (A) (A) (A) (A)
                 (A) (A) (A) (A) (A) (A) (A) (A) (A) (A) (A) (A)
                 (A) (A) (A) (A) (A) (A) (A) (A) (A) (A) (A) (A)
                 (A) (A) (A) (A) (A) (A) (A) (A) (A) (A) (A) (A)
                 (A) (A) (A) (A) (A) (A) (A) (A) (A) (A) (A) (A)
                 (A) (A) (A) (A) (A) (A) (A) (A) (A) (A) (A) (A)
                 (A) (A) (A) (A) (A) (A) (A) (A) (A) (A) (A) (A)
                 (A) (A) (A) (A) (A) (A) (A) (A) (A) (A) (A) (A)
                 (A) (A) (A) (A) (A) (A) (A) (A) (A) (A) (A) (A)
                 (A) (A) (A) (A) (A) (A) (A) (A) (A) (A) (A) (A)
                 (A) (A) (A) (A) (A) (A) (A) (A) (A) (A) (A) (A)
                 (A) (A) (A) (A) (A) (A) (A) (A) (A) (A) (A) (A)
                 (A) (A) (A) (A) (A) (A) (A) (A) (A) (A) (A) (A)
                 (A) (A) (A) (A) (A) (A) (A) (A) (A) (A) (A) (A)
                 (A) (A) (A) (A) (A) (A) (A) (A) (A) (A) (A) (A)
                 (A) (A) (A) (A) (A) (A) (A) (A) (A) (A) (A) (A)
                 (A) (A) (A) (A) (A) (A) (A) (A) (A) (A) (A) (A)
                 (A) (A) (A) (A) (A) (A) (A) (A) (A) (A) (A) (A)
                 (A) (A) (A) (A) (A) (A) (A) (A) (A) (A) (A) (A)
                 (A) (A) (A) (A) (A) (A) (A)
 The electronic state is 19-A.
 Alpha  occ. eigenvalues -- -254.82426-254.82257-254.82171-254.81846 -88.05009
 Alpha  occ. eigenvalues --  -88.04992 -88.04958 -88.04929 -88.04754 -88.04741
 Alpha  occ. eigenvalues --  -88.04589 -29.58442 -29.58255 -29.58170 -29.57778
 Alpha  occ. eigenvalues --  -25.51946 -25.51812 -25.51738 -25.51659 -25.51594
 Alpha  occ. eigenvalues --  -25.51517 -25.51501 -25.51405 -25.51368 -25.51307
 Alpha  occ. eigenvalues --  -25.51073 -25.50889 -13.98432 -13.94701  -9.90250
 Alpha  occ. eigenvalues --   -9.90118  -9.90021  -9.89969  -9.88235  -9.87877
 Alpha  occ. eigenvalues --   -9.87613  -9.87024  -9.86879  -9.86564  -9.86439
 Alpha  occ. eigenvalues --   -7.63054  -7.63039  -7.63033  -7.63021  -7.63014
 Alpha  occ. eigenvalues --   -7.62985  -7.62833  -5.65010  -5.64973  -5.64911
 Alpha  occ. eigenvalues --   -5.64890  -5.64889  -5.64884  -5.64884  -5.64868
 Alpha  occ. eigenvalues --   -5.64866  -5.64863  -5.64851  -5.64839  -5.64833
 Alpha  occ. eigenvalues --   -5.64824  -5.64807  -5.64806  -5.64773  -5.64685
 Alpha  occ. eigenvalues --   -5.64644  -5.64635  -5.64490  -3.35221  -3.34952
 Alpha  occ. eigenvalues --   -3.34859  -3.34460  -2.17022  -2.16741  -2.16631
 Alpha  occ. eigenvalues --   -2.16568  -2.16470  -2.16341  -2.16283  -2.16063
 Alpha  occ. eigenvalues --   -2.15946  -2.15823  -2.15731  -2.15290  -0.89470
 Alpha  occ. eigenvalues --   -0.73990  -0.70936  -0.70887  -0.70702  -0.69501
 Alpha  occ. eigenvalues --   -0.63825  -0.62427  -0.60793  -0.60629  -0.60475
 Alpha  occ. eigenvalues --   -0.60108  -0.60036  -0.59845  -0.56147  -0.51420
 Alpha  occ. eigenvalues --   -0.51125  -0.51023  -0.49792  -0.47293  -0.43291
 Alpha  occ. eigenvalues --   -0.41649  -0.41339  -0.41319  -0.39532  -0.37680
 Alpha  occ. eigenvalues --   -0.37557  -0.37460  -0.37069  -0.36124  -0.35824
 Alpha  occ. eigenvalues --   -0.34839  -0.33383  -0.33136  -0.32845  -0.32588
 Alpha  occ. eigenvalues --   -0.32374  -0.32212  -0.32169  -0.31929  -0.31771
 Alpha  occ. eigenvalues --   -0.31612  -0.31489  -0.31417  -0.31008  -0.30814
 Alpha  occ. eigenvalues --   -0.30021  -0.29813  -0.29575  -0.29286  -0.29207
 Alpha  occ. eigenvalues --   -0.29120  -0.29001  -0.28806  -0.28450  -0.28429
 Alpha  occ. eigenvalues --   -0.26951  -0.26895  -0.26458  -0.26340  -0.25983
 Alpha  occ. eigenvalues --   -0.25202  -0.25166  -0.24843  -0.24585  -0.23785
 Alpha  occ. eigenvalues --   -0.23397  -0.23062  -0.22895  -0.21452  -0.20646
 Alpha  occ. eigenvalues --   -0.19798  -0.19330  -0.19106  -0.18154  -0.17739
 Alpha  occ. eigenvalues --   -0.17238  -0.16945  -0.16805  -0.16381  -0.16226
 Alpha  occ. eigenvalues --   -0.15962  -0.14177  -0.13891  -0.13741
 Alpha virt. eigenvalues --    0.00459   0.01405   0.01886   0.02462   0.02762
 Alpha virt. eigenvalues --    0.02943   0.03873   0.04182   0.04648   0.05503
 Alpha virt. eigenvalues --    0.05621   0.06220   0.06705   0.07060   0.07260
 Alpha virt. eigenvalues --    0.07490   0.07591   0.08199   0.08361   0.08691
 Alpha virt. eigenvalues --    0.08858   0.09118   0.09386   0.09545   0.09722
 Alpha virt. eigenvalues --    0.09827   0.10237   0.10652   0.10876   0.11005
 Alpha virt. eigenvalues --    0.11369   0.11517   0.11816   0.11995   0.12260
 Alpha virt. eigenvalues --    0.12434   0.12837   0.13621   0.13774   0.13971
 Alpha virt. eigenvalues --    0.14432   0.14479   0.14966   0.15115   0.15554
 Alpha virt. eigenvalues --    0.16052   0.16425   0.16967   0.17201   0.17481
 Alpha virt. eigenvalues --    0.17648   0.17803   0.18351   0.18375   0.18859
 Alpha virt. eigenvalues --    0.18978   0.19722   0.20064   0.20084   0.20202
 Alpha virt. eigenvalues --    0.20996   0.21149   0.21563   0.21853   0.21940
 Alpha virt. eigenvalues --    0.22614   0.22702   0.22989   0.23296   0.23364
 Alpha virt. eigenvalues --    0.23729   0.24111   0.24359   0.24664   0.25062
 Alpha virt. eigenvalues --    0.25183   0.25555   0.25971   0.26133   0.26286
 Alpha virt. eigenvalues --    0.26878   0.27581   0.27955   0.28223   0.28830
 Alpha virt. eigenvalues --    0.29175   0.29310   0.29606   0.30542   0.31008
 Alpha virt. eigenvalues --    0.31277   0.31495   0.32306   0.32407   0.32736
 Alpha virt. eigenvalues --    0.33145   0.33818   0.34387   0.34860   0.35178
 Alpha virt. eigenvalues --    0.35454   0.35958   0.36263   0.36378   0.36937
 Alpha virt. eigenvalues --    0.37134   0.37474   0.37613   0.38398   0.38501
 Alpha virt. eigenvalues --    0.38715   0.39030   0.39305   0.39578   0.39858
[...]
     9   Atom        0.035394     -0.012465     -0.022929
    10   Atom        0.209483     -0.059760     -0.149723
    11   Atom        0.025729     -0.012337     -0.013392
    12   Atom       -0.353204      0.423963     -0.070759
    13   Atom        0.003973      0.005518     -0.009491
    14   Atom       -0.000911      0.024466     -0.023554
    15   Atom        0.324733     -0.149883     -0.174850
    16   Atom        0.024646      0.015385     -0.040031
    17   Atom       -0.604638     -0.001134      0.605772
    18   Atom       -0.121947     -0.006654      0.128601
    19   Atom        0.032711      0.018917     -0.051628
    20   Atom        0.009509     -0.136464      0.126955
    21   Atom        0.021778      0.102862     -0.124640
    22   Atom        0.012472     -0.007230     -0.005242
    23   Atom        0.011751     -0.005902     -0.005849
    24   Atom        0.039206     -0.028837     -0.010369
    25   Atom        0.020558     -0.027891      0.007332
    26   Atom        0.014503      0.013274     -0.027777
    27   Atom        0.013782      0.011054     -0.024836
    28   Atom        0.006013     -0.006766      0.000753
    29   Atom        0.030600     -0.020473     -0.010127
    30   Atom       -0.003252      0.004822     -0.001570
    31   Atom        0.019851      0.000100     -0.019951
    32   Atom       -0.013375      0.033218     -0.019843
    33   Atom        0.009451     -0.003324     -0.006127
    34   Atom        0.006722     -0.003049     -0.003672
    35   Atom        0.008695     -0.004156     -0.004539
    36   Atom        0.008823     -0.002861     -0.005962
    37   Atom       -0.001464      0.017395     -0.015930
    38   Atom        0.003008      0.006390     -0.009398
    39   Atom       -0.005228      0.013310     -0.008082
    40   Atom       -0.003196      0.013990     -0.010793
    41   Atom       -0.008439      0.012543     -0.004103
    42   Atom       -0.010929      0.020630     -0.009701
    43   Atom       -0.009525      0.032445     -0.022920
    44   Atom        0.003631      0.006871     -0.010502
    45   Atom        0.001326      0.004797     -0.006123
    46   Atom        0.007788     -0.002665     -0.005124
 --------------------------------------------------------
                        XY            XZ            YZ
 --------------------------------------------------------
     1   Atom       -0.371785     -0.100395     -0.096244
     2   Atom       -0.022632      0.129676     -0.151912
     3   Atom       -0.375019     -0.090665     -0.091889
     4   Atom       -0.022211     -0.114169      0.065964
     5   Atom        0.002256     -0.002965     -0.000214
     6   Atom       -0.001312      0.001234      0.009231
     7   Atom       -0.010741      0.023691      0.011319
     8   Atom        0.010011     -0.023364     -0.005081
     9   Atom       -0.011380      0.043143      0.003822
    10   Atom        0.023146      0.054639      0.030021
    11   Atom       -0.039568      0.016806     -0.018023
    12   Atom        0.414159      0.313803     -0.063018
    13   Atom       -0.021653     -0.012304      0.012691
    14   Atom       -0.048357     -0.011475      0.006822
    15   Atom        0.413929     -0.022428      0.430858
    16   Atom        0.045119     -0.004356     -0.002933
    17   Atom        0.125142      0.266913     -0.055815
    18   Atom       -0.024633     -0.068820     -0.018708
    19   Atom        0.126400      0.144362      0.049406
    20   Atom       -0.024111      0.011497     -0.025944
    21   Atom        0.053777      0.015045      0.086297
    22   Atom        0.002257     -0.005136     -0.000724
    23   Atom       -0.000884     -0.001255      0.000005
    24   Atom        0.012153     -0.028851     -0.005710
    25   Atom       -0.005421      0.035986     -0.007639
    26   Atom        0.040444     -0.022730     -0.013908
    27   Atom        0.032850      0.011138      0.007449
    28   Atom       -0.016271      0.016888     -0.013284
    29   Atom       -0.022369      0.025985     -0.016845
    30   Atom       -0.011064     -0.007797      0.011380
    31   Atom       -0.040316     -0.005472      0.005290
    32   Atom       -0.028473     -0.012149      0.014017
    33   Atom        0.005407      0.000329      0.000283
    34   Atom        0.002567     -0.000603     -0.000143
    35   Atom        0.003583      0.002155      0.000603
    36   Atom        0.006117     -0.000364     -0.000308
    37   Atom        0.023121     -0.004729     -0.006291
    38   Atom        0.012973     -0.002937     -0.002764
    39   Atom        0.012424     -0.004750     -0.009233
    40   Atom        0.012932     -0.000096      0.001094
    41   Atom       -0.029930      0.012042     -0.007901
    42   Atom       -0.016433      0.006340     -0.013610
    43   Atom       -0.048496      0.007177     -0.012001
    44   Atom       -0.021309      0.005488     -0.006360
    45   Atom       -0.012455     -0.004646      0.004574
    46   Atom       -0.012115     -0.010230      0.006197
 --------------------------------------------------------


 ---------------------------------------------------------------------------------
              Anisotropic Spin Dipole Couplings in Principal Axis System
 ---------------------------------------------------------------------------------

       Atom             a.u.   MegaHertz   Gauss  10(-4) cm-1        Axes

              Baa    -0.4290    -7.427    -2.650    -2.477  0.6188  0.7276  0.2960
     1 Fe(57) Bbb     0.0596     1.032     0.368     0.344 -0.1551 -0.2562  0.9541
              Bcc     0.3694     6.395     2.282     2.133  0.7701 -0.6363 -0.0457
 
              Baa    -0.2878    -4.982    -1.778    -1.662 -0.3150  0.3089  0.8974
     2 Fe(57) Bbb     0.0625     1.083     0.386     0.361  0.8401  0.5307  0.1121
              Bcc     0.2252     3.900     1.391     1.301 -0.4417  0.7892 -0.4267
 
              Baa    -0.4774    -8.265    -2.949    -2.757  0.5162  0.8249  0.2304
     3 Fe(57) Bbb     0.0818     1.417     0.506     0.473 -0.0433 -0.2435  0.9689
              Bcc     0.3956     6.848     2.444     2.284  0.8554 -0.5101 -0.0900
 
              Baa    -0.3230    -5.591    -1.995    -1.865  0.2165 -0.1346  0.9670
     4 Fe(57) Bbb     0.1086     1.881     0.671     0.627  0.3895  0.9201  0.0409
              Bcc     0.2143     3.710     1.324     1.238  0.8952 -0.3678 -0.2517
 
              Baa    -0.0085    -1.147    -0.409    -0.383  0.1279 -0.0749  0.9890
     5 C(13)  Bbb    -0.0077    -1.037    -0.370    -0.346 -0.0847  0.9927  0.0862
              Bcc     0.0163     2.185     0.780     0.729  0.9882  0.0948 -0.1206
 
              Baa    -0.0287    -3.851    -1.374    -1.284 -0.0330 -0.2366  0.9711
     6 C(13)  Bbb     0.0114     1.536     0.548     0.512  0.1720  0.9558  0.2387
              Bcc     0.0172     2.315     0.826     0.772  0.9846 -0.1749 -0.0091
 
              Baa    -0.0473    -1.823    -0.650    -0.608 -0.3244 -0.2494  0.9124
     7 N(14)  Bbb     0.0101     0.390     0.139     0.130  0.1541  0.9378  0.3112
              Bcc     0.0372     1.433     0.511     0.478  0.9333 -0.2416  0.2658
 
              Baa    -0.0453    -6.075    -2.168    -2.026 -0.0467  0.9803  0.1921
     8 C(13)  Bbb    -0.0300    -4.032    -1.439    -1.345  0.2432 -0.1754  0.9540
              Bcc     0.0753    10.107     3.606     3.371  0.9689  0.0912 -0.2302
 
              Baa    -0.0480    -6.443    -2.299    -2.149 -0.4716 -0.2421  0.8479
     9 C(13)  Bbb    -0.0113    -1.510    -0.539    -0.504 -0.0128  0.9633  0.2680
              Bcc     0.0593     7.953     2.838     2.653  0.8817 -0.1155  0.4574
 
              Baa    -0.1646    -6.347    -2.265    -2.117 -0.1250 -0.2476  0.9608
    10 N(14)  Bbb    -0.0557    -2.149    -0.767    -0.717 -0.1318  0.9639  0.2313
              Bcc     0.2203     8.496     3.032     2.834  0.9834  0.0977  0.1531
 
              Baa    -0.0393    -5.267    -1.879    -1.757  0.4360  0.8462  0.3064
    11 C(13)  Bbb    -0.0193    -2.588    -0.923    -0.863 -0.4274 -0.1049  0.8979
              Bcc     0.0585     7.855     2.803     2.620  0.7920 -0.5225  0.3159
 
              Baa    -0.6913   -28.343   -10.113    -9.454  0.8275 -0.3328 -0.4522
    12 S(33)  Bbb     0.0805     3.301     1.178     1.101  0.3697 -0.2834  0.8849
              Bcc     0.6108    25.042     8.936     8.353  0.4227  0.8994  0.1115
 
              Baa    -0.0169    -2.272    -0.811    -0.758  0.7566  0.6290  0.1784
    13 C(13)  Bbb    -0.0167    -2.244    -0.801    -0.749  0.1197 -0.4015  0.9080
              Bcc     0.0337     4.516     1.611     1.506 -0.6428  0.6657  0.3791
 
              Baa    -0.0399    -5.348    -1.908    -1.784  0.7743  0.5486  0.3155
    14 C(13)  Bbb    -0.0237    -3.179    -1.134    -1.060 -0.1683 -0.3020  0.9383
              Bcc     0.0635     8.527     3.043     2.844 -0.6101  0.7796  0.1414
 
              Baa    -0.6926   -28.395   -10.132    -9.472 -0.3084  0.7246 -0.6164
    15 S(33)  Bbb     0.0688     2.822     1.007     0.941 -0.5597  0.3857  0.7335
              Bcc     0.6237    25.573     9.125     8.530  0.7692  0.5712  0.2866
 
              Baa    -0.0403    -5.411    -1.931    -1.805  0.0695 -0.0037  0.9976
    16 C(13)  Bbb    -0.0253    -3.395    -1.212    -1.133 -0.6671  0.7433  0.0493
              Bcc     0.0656     8.807     3.142     2.938  0.7417  0.6689 -0.0491
 
              Baa    -0.6871   -28.169   -10.051    -9.396  0.9595 -0.1918 -0.2064
    17 S(33)  Bbb     0.0238     0.975     0.348     0.325  0.1968  0.9804  0.0038
              Bcc     0.6633    27.194     9.704     9.071  0.2016 -0.0442  0.9785
 
              Baa    -0.1455    -5.965    -2.128    -1.990  0.9466  0.2018  0.2515
    18 S(33)  Bbb    -0.0017    -0.071    -0.025    -0.024 -0.2152  0.9762  0.0265
              Bcc     0.1472     6.036     2.154     2.013 -0.2401 -0.0792  0.9675
 
              Baa    -0.1697    -6.958    -2.483    -2.321 -0.6631  0.2606  0.7017
    19 S(33)  Bbb    -0.0555    -2.276    -0.812    -0.759 -0.2591  0.7996 -0.5418
              Bcc     0.2252     9.234     3.295     3.080  0.7022  0.5411  0.4627
 
              Baa    -0.1425    -5.841    -2.084    -1.948  0.1496  0.9848  0.0885
    20 S(33)  Bbb     0.0114     0.467     0.167     0.156  0.9821 -0.1376 -0.1286
              Bcc     0.1311     5.374     1.918     1.793  0.1145 -0.1061  0.9877
 
              Baa    -0.1537    -6.302    -2.249    -2.102  0.0175 -0.3220  0.9466
    21 S(33)  Bbb    -0.0015    -0.061    -0.022    -0.020  0.9225 -0.3600 -0.1396
              Bcc     0.1552     6.363     2.271     2.123  0.3857  0.8756  0.2908
 
              Baa    -0.0075    -4.005    -1.429    -1.336 -0.0728  0.9860  0.1500
    22 H(1)   Bbb    -0.0066    -3.526    -1.258    -1.176  0.2716 -0.1251  0.9542
              Bcc     0.0141     7.532     2.687     2.512  0.9596  0.1102 -0.2587
 
              Baa    -0.0060    -3.201    -1.142    -1.068  0.0843  0.7309  0.6772
    23 H(1)   Bbb    -0.0059    -3.140    -1.120    -1.047  0.0180 -0.6807  0.7324
              Bcc     0.0119     6.341     2.263     2.115  0.9963 -0.0495 -0.0705
 
              Baa    -0.0310   -16.540    -5.902    -5.517 -0.1378  0.9872  0.0806
    24 H(1)   Bbb    -0.0236   -12.601    -4.496    -4.203  0.4198 -0.0155  0.9075
              Bcc     0.0546    29.140    10.398     9.720  0.8971  0.1589 -0.4123
 
              Baa    -0.0297   -15.860    -5.659    -5.290 -0.1226  0.9417  0.3132
    25 H(1)   Bbb    -0.0218   -11.654    -4.158    -3.887 -0.6370 -0.3167  0.7028
              Bcc     0.0516    27.514     9.818     9.178  0.7611 -0.1133  0.6387
 
              Baa    -0.0382   -20.378    -7.271    -6.797  0.4859 -0.1491  0.8612
    26 H(1)   Bbb    -0.0237   -12.640    -4.510    -4.216 -0.5268  0.7362  0.4247
              Bcc     0.0619    33.019    11.782    11.014  0.6974  0.6601 -0.2792
 
              Baa    -0.0279   -14.908    -5.320    -4.973 -0.3256  0.0946  0.9408
    27 H(1)   Bbb    -0.0198   -10.542    -3.761    -3.516 -0.6196  0.7302 -0.2878
              Bcc     0.0477    25.450     9.081     8.489  0.7142  0.6766  0.1792
 
              Baa    -0.0182    -9.720    -3.468    -3.242  0.4229  0.8749  0.2361
    28 H(1)   Bbb    -0.0137    -7.293    -2.602    -2.433 -0.6093  0.0816  0.7887
              Bcc     0.0319    17.013     6.071     5.675  0.6707 -0.4774  0.5676
 
              Baa    -0.0331   -17.678    -6.308    -5.897  0.0823  0.8461  0.5266
    29 H(1)   Bbb    -0.0204   -10.875    -3.880    -3.627 -0.5497 -0.4023  0.7322
              Bcc     0.0535    28.552    10.188     9.524  0.8313 -0.3497  0.4320
 
              Baa    -0.0110    -5.872    -2.095    -1.959  0.7809  0.6168 -0.0986
    30 H(1)   Bbb    -0.0100    -5.330    -1.902    -1.778  0.3907 -0.3593  0.8475
              Bcc     0.0210    11.202     3.997     3.737 -0.4873  0.7004  0.5216
 
              Baa    -0.0316   -16.854    -6.014    -5.622  0.6106  0.7887 -0.0714
    31 H(1)   Bbb    -0.0207   -11.038    -3.939    -3.682  0.1261 -0.0078  0.9920
              Bcc     0.0523    27.892     9.953     9.304  0.7819 -0.6147 -0.1042
 
              Baa    -0.0306   -16.328    -5.826    -5.447  0.7747  0.2150  0.5946
    32 H(1)   Bbb    -0.0206   -11.002    -3.926    -3.670 -0.4643 -0.4449  0.7658
              Bcc     0.0512    27.330     9.752     9.116 -0.4292  0.8694  0.2448
 
              Baa    -0.0062    -0.827    -0.295    -0.276  0.0389 -0.1721  0.9843
    33 C(13)  Bbb    -0.0053    -0.708    -0.253    -0.236 -0.3427  0.9230  0.1749
              Bcc     0.0114     1.535     0.548     0.512  0.9386  0.3442  0.0231
 
              Baa    -0.0037    -1.978    -0.706    -0.660  0.1040 -0.1936  0.9755
    34 H(1)   Bbb    -0.0037    -1.964    -0.701    -0.655 -0.2225  0.9515  0.2126
              Bcc     0.0074     3.943     1.407     1.315  0.9694  0.2391 -0.0559
 
              Baa    -0.0051    -2.719    -0.970    -0.907 -0.2189  0.9570 -0.1904
    35 H(1)   Bbb    -0.0049    -2.602    -0.928    -0.868 -0.1933  0.1488  0.9698
              Bcc     0.0100     5.320     1.898     1.775  0.9564  0.2491  0.1524
 
              Baa    -0.0060    -3.207    -1.144    -1.070 -0.0768  0.2438  0.9668
    36 H(1)   Bbb    -0.0054    -2.903    -1.036    -0.968 -0.3867  0.8865 -0.2542
              Bcc     0.0115     6.110     2.180     2.038  0.9190  0.3933 -0.0262
 
              Baa    -0.0175    -2.349    -0.838    -0.783  0.5946 -0.2566  0.7620
    37 C(13)  Bbb    -0.0167    -2.236    -0.798    -0.746 -0.5844  0.5129  0.6288
              Bcc     0.0342     4.585     1.636     1.529  0.5521  0.8192 -0.1550
 
              Baa    -0.0101    -5.370    -1.916    -1.791  0.2573 -0.0407  0.9655
    38 H(1)   Bbb    -0.0083    -4.427    -1.580    -1.477  0.7109 -0.6688 -0.2176
              Bcc     0.0184     9.797     3.496     3.268  0.6546  0.7423 -0.1431
 
              Baa    -0.0116    -6.197    -2.211    -2.067  0.6064 -0.0077  0.7951
    39 H(1)   Bbb    -0.0114    -6.079    -2.169    -2.028  0.6713 -0.5309 -0.5171
              Bcc     0.0230    12.277     4.381     4.095  0.4261  0.8474 -0.3167
 
              Baa    -0.0112    -5.959    -2.126    -1.988  0.4300 -0.2586  0.8650
    40 H(1)   Bbb    -0.0098    -5.219    -1.862    -1.741  0.7697 -0.3957 -0.5009
              Bcc     0.0210    11.178     3.989     3.729  0.4718  0.8812  0.0289
 
              Baa    -0.0308    -4.135    -1.476    -1.379  0.8217  0.5282 -0.2142
    41 C(13)  Bbb    -0.0073    -0.974    -0.347    -0.325  0.0019  0.3732  0.9278
              Bcc     0.0381     5.109     1.823     1.704 -0.5699  0.7627 -0.3056
 
              Baa    -0.0180    -9.607    -3.428    -3.204  0.9278  0.3433 -0.1458
    42 H(1)   Bbb    -0.0149    -7.956    -2.839    -2.654  0.0123  0.3625  0.9319
              Bcc     0.0329    17.563     6.267     5.858 -0.3728  0.8664 -0.3322
 
              Baa    -0.0414   -22.091    -7.882    -7.369  0.8327  0.5526  0.0355
    43 H(1)   Bbb    -0.0251   -13.382    -4.775    -4.464 -0.1146  0.1093  0.9874
              Bcc     0.0665    35.473    12.658    11.833 -0.5417  0.8262 -0.1544
 
              Baa    -0.0161    -8.613    -3.073    -2.873  0.7214  0.6885  0.0745
    44 H(1)   Bbb    -0.0123    -6.557    -2.340    -2.187 -0.1986  0.1026  0.9747
              Bcc     0.0284    15.170     5.413     5.060 -0.6635  0.7179 -0.2108
 
              Baa    -0.0096    -5.149    -1.837    -1.717  0.7705  0.5818  0.2605
    45 H(1)   Bbb    -0.0078    -4.152    -1.482    -1.385 -0.0337 -0.3708  0.9281
              Bcc     0.0174     9.301     3.319     3.102 -0.6366  0.7239  0.2661
 
              Baa    -0.0110    -5.869    -2.094    -1.958  0.6360  0.4686  0.6131
    46 H(1)   Bbb    -0.0102    -5.436    -1.940    -1.813  0.1099  0.7314 -0.6730
              Bcc     0.0212    11.304     4.034     3.771  0.7638 -0.4954 -0.4137
 

 ---------------------------------------------------------------------------------

 1\1\GINC-R2I3N8\FOpt\UBP86\def2TZVP/TZVPFit\C11H22Fe4N2S7(2-,19)\VBHAR
 ADW\16-Sep-2019\0\\# opt=modredundant ubp86/def2tzvp/tzvpfit empirical
 dispersion=GD3 geom=connectivity scf=tight scrf=(pcm,solvent=2-NitroPr
 opane)\\Title Card Required\\-2,19\Fe,9.6676766144,41.904991771,17.587
 870832\Fe,8.05300583,40.7557146676,19.65818342\Fe,6.9920715643,41.6524
 929455,17.1791318875\Fe,7.9290304289,43.5462616719,19.0879020771\C,3.4
 10000407,42.5269702238,12.9830047742\C,4.3624783323,41.8769339557,13.9
 410435019\N,4.597465461,40.50645269,13.9345084373\C,5.1176512193,42.45
 86866227,14.9449249181\C,5.4747928013,40.3098069803,14.922611553\N,5.8
 337425693,41.4557789042,15.5783190213\C,8.1820115782,44.9630264871,21.
 9470219267\S,7.8477922411,45.522044961,20.2155573925\C,7.1509914076,39
 .4789946987,24.0379849778\C,7.2970107814,40.2729975781,22.7149817719\S
 ,7.9268130889,39.2249988741,21.3307427257\C,12.7169845333,41.382941574
 2,18.0230488924\S,11.6811871609,41.7659333761,16.5357854802\S,9.816846
 6961,42.3386670702,19.8994838511\S,8.2662603584,43.6606802343,16.80067
 02056\S,6.0738818637,42.028564715,19.3101683177\S,8.4507563158,39.8303
 347995,17.5422283283\H,3.4975245428,43.6208135476,13.0824872599\H,3.70
 63364602,42.2823245314,11.9473147616\H,5.211232777,43.4964871174,15.25
 48320138\H,5.889149166,39.3421651464,15.2020396209\H,12.15719145,40.68
 31101642,18.6591473565\H,12.8360219164,42.3145073224,18.5935254233\H,8
 .3290268305,45.8665085103,22.5567450277\H,9.1203470941,44.3900291895,2
 1.935086562\H,6.4461032282,38.6436066138,23.9166104046\H,7.9931185673,
 41.1137608174,22.845930801\H,6.3299212873,40.6940028056,22.4049223737\
 C,1.9449447851,42.102138495,13.1944494935\H,1.2811680314,42.5776253259
 ,12.4559611038\H,1.8405601532,41.0114104791,13.0979531948\H,1.59856708
 01,42.3852064452,14.2004187655\C,14.0855817603,40.7909355996,17.638253
 5718\H,14.6774268953,40.5877358565,18.5453467531\H,13.9638276207,39.84
 73409217,17.0864984499\H,14.653399741,41.4884384315,17.0047483902\C,7.
 031134657,44.1006040834,22.4977780017\H,6.0828833852,44.6575228558,22.
 4872988324\H,6.9027832013,43.1993430487,21.8811185467\H,7.243015263,43
 .7892783949,23.5340855529\H,6.7729941193,40.141809462,24.8323350849\H,
 8.1206344232,39.0701890281,24.3573358788\\Version=ES64L-G16RevB.01\Sta
 te=19-A\HF=-8386.4193649\S2=90.055589\S2-1=0.\S2A=90.000287\RMSD=5.436
 e-09\RMSF=1.668e-03\Dipole=0.2198271,0.6433204,3.1095958\Quadrupole=2.
 7785464,-0.3786887,-2.3998577,-7.9284094,-9.7201818,-5.6770166\PG=C01 
 [X(C11H22Fe4N2S7)]\\@


 BLESSED ARE THOSE WHO NOUGHT EXPECT,
 FOR THEY SHALL NOT BE DISAPPOINTED..  WALCOT - ODE TO PITT
 Job cpu time:       4 days 16 hours 38 minutes 27.9 seconds.
 Elapsed time:       0 days  3 hours 11 minutes  9.1 seconds.
 File lengths (MBytes):  RWF=   1522 Int=      0 D2E=      0 Chk=    106 Scr=      1
 Normal termination of Gaussian 16 at Mon Sep 16 19:46:14 2019.
