 Entering Gaussian System, Link 0=g16
 Initial command:
 /nopt/nrel/apps/gaussian/g16B/g16/l1.exe "/dev/shm/Gau-54298.inp" -scrdir="/dev/shm/"
 Default is to use a total of  36 processors:
                               36 via shared-memory
                                1 via Linda
 Entering Link 1 = /nopt/nrel/apps/gaussian/g16B/g16/l1.exe PID=     54299.
  
 Copyright (c) 1988-2017, Gaussian, Inc.  All Rights Reserved.
  
 This is part of the Gaussian(R) 16 program.  It is based on
 the Gaussian(R) 09 system (copyright 2009, Gaussian, Inc.),
 the Gaussian(R) 03 system (copyright 2003, Gaussian, Inc.),
 the Gaussian(R) 98 system (copyright 1998, Gaussian, Inc.),
 the Gaussian(R) 94 system (copyright 1995, Gaussian, Inc.),
 the Gaussian 92(TM) system (copyright 1992, Gaussian, Inc.),
 the Gaussian 90(TM) system (copyright 1990, Gaussian, Inc.),
 the Gaussian 88(TM) system (copyright 1988, Gaussian, Inc.),
 the Gaussian 86(TM) system (copyright 1986, Carnegie Mellon
 University), and the Gaussian 82(TM) system (copyright 1983,
 Carnegie Mellon University). Gaussian is a federally registered
 trademark of Gaussian, Inc.
  
 This software contains proprietary and confidential information,
 including trade secrets, belonging to Gaussian, Inc.
  
 This software is provided under written license and may be
 used, copied, transmitted, or stored only in accord with that
 written license.
  
 The following legend is applicable only to US Government
 contracts under FAR:
  
                    RESTRICTED RIGHTS LEGEND
  
 Use, reproduction and disclosure by the US Government is
 subject to restrictions as set forth in subparagraphs (a)
 and (c) of the Commercial Computer Software - Restricted
 Rights clause in FAR 52.227-19.
  
 Gaussian, Inc.
 340 Quinnipiac St., Bldg. 40, Wallingford CT 06492
  
  
 ---------------------------------------------------------------
 Warning -- This program may not be used in any manner that
 competes with the business of Gaussian, Inc. or will provide
 assistance to any competitor of Gaussian, Inc.  The licensee
 of this program is prohibited from giving any competitor of
 Gaussian, Inc. access to this program.  By using this program,
 the user acknowledges that Gaussian, Inc. is engaged in the
 business of creating and licensing software in the field of
 computational chemistry and represents and warrants to the
 licensee that it is not a competitor of Gaussian, Inc. and that
 it will not use this program in any manner prohibited above.
 ---------------------------------------------------------------
  

 Cite this work as:
 Gaussian 16, Revision B.01,
 M. J. Frisch, G. W. Trucks, H. B. Schlegel, G. E. Scuseria, 
 M. A. Robb, J. R. Cheeseman, G. Scalmani, V. Barone, 
 G. A. Petersson, H. Nakatsuji, X. Li, M. Caricato, A. V. Marenich, 
 J. Bloino, B. G. Janesko, R. Gomperts, B. Mennucci, H. P. Hratchian, 
 J. V. Ortiz, A. F. Izmaylov, J. L. Sonnenberg, D. Williams-Young, 
 F. Ding, F. Lipparini, F. Egidi, J. Goings, B. Peng, A. Petrone, 
 T. Henderson, D. Ranasinghe, V. G. Zakrzewski, J. Gao, N. Rega, 
 G. Zheng, W. Liang, M. Hada, M. Ehara, K. Toyota, R. Fukuda, 
 J. Hasegawa, M. Ishida, T. Nakajima, Y. Honda, O. Kitao, H. Nakai, 
 T. Vreven, K. Throssell, J. A. Montgomery, Jr., J. E. Peralta, 
 F. Ogliaro, M. J. Bearpark, J. J. Heyd, E. N. Brothers, K. N. Kudin, 
 V. N. Staroverov, T. A. Keith, R. Kobayashi, J. Normand, 
 K. Raghavachari, A. P. Rendell, J. C. Burant, S. S. Iyengar, 
 J. Tomasi, M. Cossi, J. M. Millam, M. Klene, C. Adamo, R. Cammi, 
 J. W. Ochterski, R. L. Martin, K. Morokuma, O. Farkas, 
 J. B. Foresman, and D. J. Fox, Gaussian, Inc., Wallingford CT, 2016.
 
 ******************************************
 Gaussian 16:  ES64L-G16RevB.01 20-Dec-2017
                10-Oct-2019 
 ******************************************
 %RWF=/dev/shm/,5GB,/tmp/scratch/1519515/,-1
 %NoSave
 %Chk=/dev/shm/acyl-ts_mp.chk
 Default route: CacheSize=180224 MaxDisk=256GB
 ----------------------------------------------------------------------
 # scf=(xqc,maxconventionalcycles=400) opt=(TS,CalcFC,noeigentest,maxcy
 cles=200,modredundant) freq=noraman nosymm geom=connectivity cphf=grid
 =fine m062x/def2svp SCRF=(Solvent=MethylPropanoate,Read)
 ----------------------------------------------------------------------
 1/4=180224,5=1,6=200,10=4,11=1,18=120,26=3,38=1,40=2,57=2/1,3;
 2/4=180224,9=110,12=2,15=1,17=6,18=5,40=1/2;
 3/4=180224,5=43,7=101,11=2,25=1,30=1,70=2203,71=2,72=136,74=-55,140=1/1,2,3;
 4/4=180224/1;
 5/4=180224,5=2,8=3,13=1,38=5,53=136,85=400/2,8;
 8/4=180224,6=4,10=90,11=11/1;
 11/4=180224,6=1,8=1,9=11,15=111,16=1,31=1/1,2,10;
 10/4=180224,6=1,13=1,31=1,60=4/2;
 6/4=180224,7=2,8=2,9=2,10=2,28=1/1;
 7/4=180224,10=1,18=20,25=1,30=1/1,2,3,16;
 1/4=180224,5=1,6=200,10=4,11=1,18=20,26=3/3(2);
 2/4=180224,9=110,15=1/2;
 99/4=180224/99;
 2/4=180224,9=110,15=1/2;
 3/4=180224,5=43,7=101,11=2,25=1,30=1,70=2205,71=1,72=136,74=-55/1,2,3;
 4/4=180224,5=5,16=3,69=1/1;
 5/4=180224,5=2,8=3,13=1,38=5,53=136,85=400/2,8;
 7/4=180224,30=1/1,2,3,16;
 1/4=180224,5=1,6=200,11=1,18=20,26=3/3(-5);
 2/4=180224,9=110,15=1/2;
 6/4=180224,7=2,8=2,9=2,10=2,19=2,28=1/1;
 99/4=180224,9=1/99;
 ------------
 from US seed
 ------------
 Symbolic Z-matrix:
 Charge = -1 Multiplicity = 1
 N                    -1    42.846    36.305    36.333 
 H                    0     41.942    36.585    36.648 
 C                    -1    42.942    34.934    35.702 
 H                    0     43.832    34.442    36.064 
 C                    0     41.597    34.309    35.97 
 H                    0     41.465    34.25     37.071 
 H                    0     40.798    34.988    35.602 
 C                    -1    43.143    35.018    34.172 
 O                    -1    42.42098   35.78515   33.48372 
 N                    -1    44.616    42.805    40.229 
 H                    0     45.308    42.299    39.72 
 C                    -1    43.288    42.902    39.714 
 H                    0     42.731    43.503    40.417 
 C                    0     43.333    43.58     38.301 
 H                    0     43.574    44.644    38.438 
 H                    0     44.164    43.122    37.67 
 C                    0     42.095    43.462    37.388 
 C                    0     40.837    43.967    37.553 
 H                    0     40.423    44.591    38.276 
 N                    0     39.967    43.446    36.586 
 H                    0     38.96     43.624    36.444 
 C                    0     40.722    42.632    35.705 
 C                    0     42.041    42.538    36.216 
 C                    0     42.979    41.929    35.418 
 H                    0     44.058    41.91     35.688 
 C                    0     42.611    41.249    34.258 
 H                    0     43.332    40.696    33.604 
 C                    0     40.321    41.899    34.566 
 H                    0     39.298    41.863    34.385 
 C                    0     41.258    41.198    33.895 
 H                    0     40.819    40.496    33.201 
 C                    -1    42.671    41.526    39.641 
 O                    0     43.347    40.536    39.403 
 N                    -1    41.357    41.54     40.039 
 H                    0     40.844    42.44     40.441 
 C                    -1    40.451    40.39     40.071 
 H                    0     39.587    40.842    40.604 
 C                    0     39.956    39.877    38.699 
 H                    0     39.575    40.735    38.048 
 H                    0     40.808    39.412    38.159 
 O                    0     38.891    38.891    38.891 
 H                    0     37.912    39.799    37.299 
 C                    -1    41.015    39.274    40.938 
 O                    0     40.995    39.418    42.165 
 N                    -1    41.456    38.157    40.361 
 H                    0     41.292    38.096    39.296 
 C                    -1    42.098    37.085    41.008 
 H                    0     41.43861   36.68975   41.75223 
 C                    0     42.497    35.957    40.06 
 H                    0     41.763    35.831    39.277 
 H                    0     43.455    36.054    39.571 
 C                    0     42.486    34.56     40.771 
 H                    0     41.562    34.386    41.304 
 H                    0     43.212    34.521    41.569 
 S                    0     42.728    33.222    39.541 
 C                    0     41.08     32.387    39.584 
 H                    0     40.812    31.901    40.412 
 H                    0     40.274    33.092    39.446 
 H                    0     41.056    31.726    38.692 
 C                    -1    36.134    38.493    45.437 
 H                    0     35.37412   38.90123   46.07011 
 C                    0     35.507    38.072    44.082 
 H                    0     34.954    38.977    43.75 
 H                    0     34.72     37.315    44.284 
 C                    0     36.458    37.638    43.087 
 C                    0     37.002    38.496    42.182 
 H                    0     36.574    39.52     42.131 
 N                    0     37.983    37.851    41.491 
 H                    0     38.578    38.259    40.646 
 C                    0     37.971    36.527    41.917 
 C                    0     36.918    36.331    42.84 
 C                    0     36.529    35.11     43.341 
 H                    0     35.733    35.065    44.069 
 C                    0     37.331    34.007    42.959 
 H                    0     37.075    32.951    43.194 
 C                    0     38.834    35.478    41.574 
 H                    0     39.641    35.523    40.812 
 C                    0     38.467    34.217    42.141 
 H                    0     39.085    33.368    41.778 
 C                    -1    29.739    43.955    37.188 
 H                    0     29.945    43.686    36.13 
 C                    0     30.928    44.073    38.124 
 H                    0     30.592    44.204    39.218 
 H                    0     31.43     45.034    37.781 
 C                    0     32.067    43.031    37.872 
 O                    0     32.035    42.265    36.813 
 O                    0     33.109    43.152    38.678 
 C                    -1    34.913    44.309    35.569 
 H                    0     34.878    44.638    36.512 
 C                    0     34.808    42.808    35.528 
 H                    0     33.776    42.528    35.816 
 H                    0     34.807    42.46     34.512 
 N                    0     35.282    41.594    37.712 
 H                    0     34.484    42.025    38.154 
 C                    0     35.738    42.079    36.473 
 C                    0     36.227    40.723    38.196 
 H                    0     36.26     40.203    39.172 
 N                    0     37.154    40.508    37.303 
 C                    0     36.911    41.382    36.256 
 H                    0     37.622    41.28     35.425 
 C                    -1    36.325    44.74     35.051 
 O                    -1    37.361    44.504    35.624 
 C                    0     39.375    38.576    35.378 
 O                    0     40.008    37.926    33.277 
 C                    0     38.955    37.747    34.202 
 O                    0     45.408    39.667    29.145 
 C                    0     39.73     37.99     31.932 
 O                    0     44.044    40.55     27.578 
 C                    0     40.884    38.352    31.015 
 O                    0     38.588    37.783    31.441 
 C                    0     42.194    38.379    31.524 
 C                    0     43.262    38.936    30.759 
 O                    0     34.228    34.454    40.189 
 C                    0     43.065    39.386    29.434 
 O                    0     40.533    37.419    37.745 
 C                    0     41.748    39.263    28.965 
 O                    0     38.514    38.389    36.52 
 C                    0     40.639    38.781    29.691 
 O                    0     34.764    32.612    38.911 
 C                    -1    44.247    39.89     28.712 
 C                    -1    35.03     33.818    39.334 
 C                    0     36.182    34.684    38.866 
 C                    0     35.94     36.138    38.888 
 C                    0     36.933    37.004    38.56 
 C                    0     38.225    36.56     38.238 
 C                    0     38.432    35.161    38.059 
 C                    0     37.434    34.224    38.38 
 C                    0     39.304    37.559    37.932 
 H                    0     39.28     39.612    34.987 
 H                    0     40.425    38.327    35.707 
 H                    0     38.914    36.614    34.473 
 H                    0     37.997    38.021    33.753 
 H                    0     42.307    38.098    32.607 
 H                    0     44.215    38.995    31.151 
 H                    0     41.465    39.581    27.941 
 H                    0     39.667    38.92     29.279 
 H                    0     35.059    36.497    39.295 
 H                    0     36.578    38.087    38.519 
 H                    0     39.362    34.824    37.617 
 H                    0     37.632    33.146    38.281 
 H                    0     29.19615   43.10988   37.55676 
 H                    0     29.28909   44.9253   37.15651 
 H                    0     33.49553   33.97262   40.58061 
 H                    0     44.76447   40.94004   27.07761 
 H                    0     41.44496   33.31756   35.59741 
 H                    0     34.1363   44.69594   34.94297 
 H                    0     36.89019   39.23051   45.26627 
 H                    0     36.57017   37.63765   45.90926 
 H                    0     42.97863   37.45423   41.49077 
 H                    0     43.89609   34.42386   33.69792 
 H                    0     36.41566   45.28079   34.13218 
 H                    0     44.8264   43.62288   40.76454 
 H                    0     43.66939   36.86036   36.44956 
 
 Add virtual bond connecting atoms C128       and O41        Dist= 3.20D+00.
 Add virtual bond connecting atoms O117       and H42        Dist= 3.25D+00.
 Add virtual bond connecting atoms C128       and O117       Dist= 3.44D+00.
 Add virtual bond connecting atoms H94        and O87        Dist= 3.50D+00.
 Add virtual bond connecting atoms H69        and O41        Dist= 3.57D+00.
 Add virtual bond connecting atoms O115       and H2         Dist= 3.72D+00.
 The following ModRedundant input section has been read:
 B      41      42 F                                                           
 B      42     117 F                                                           
 B     117     128 F                                                           
 B      41     128 F                                                           
 

 GradGradGradGradGradGradGradGradGradGradGradGradGradGradGradGradGradGrad
 Berny optimization.
 Initialization pass.
                           ----------------------------
                           !    Initial Parameters    !
                           ! (Angstroms and Degrees)  !
 --------------------------                            --------------------------
 ! Name  Definition              Value          Derivative Info.                !
 --------------------------------------------------------------------------------
 ! X1    R(1,-1)                42.846          frozen, calculate D2E/DX2 analyt!
 ! Y1    R(1,-2)                36.305          frozen, calculate D2E/DX2 analyt!
 ! Z1    R(1,-3)                36.333          frozen, calculate D2E/DX2 analyt!
 ! X3    R(3,-1)                42.942          frozen, calculate D2E/DX2 analyt!
 ! Y3    R(3,-2)                34.934          frozen, calculate D2E/DX2 analyt!
 ! Z3    R(3,-3)                35.702          frozen, calculate D2E/DX2 analyt!
 ! X8    R(8,-1)                43.143          frozen, calculate D2E/DX2 analyt!
 ! Y8    R(8,-2)                35.018          frozen, calculate D2E/DX2 analyt!
 ! Z8    R(8,-3)                34.172          frozen, calculate D2E/DX2 analyt!
 ! X9    R(9,-1)                42.421          frozen, calculate D2E/DX2 analyt!
 ! Y9    R(9,-2)                35.7852         frozen, calculate D2E/DX2 analyt!
 ! Z9    R(9,-3)                33.4837         frozen, calculate D2E/DX2 analyt!
 ! X10   R(10,-1)               44.616          frozen, calculate D2E/DX2 analyt!
 ! Y10   R(10,-2)               42.805          frozen, calculate D2E/DX2 analyt!
 ! Z10   R(10,-3)               40.229          frozen, calculate D2E/DX2 analyt!
 ! X12   R(12,-1)               43.288          frozen, calculate D2E/DX2 analyt!
 ! Y12   R(12,-2)               42.902          frozen, calculate D2E/DX2 analyt!
 ! Z12   R(12,-3)               39.714          frozen, calculate D2E/DX2 analyt!
 ! X32   R(32,-1)               42.671          frozen, calculate D2E/DX2 analyt!
 ! Y32   R(32,-2)               41.526          frozen, calculate D2E/DX2 analyt!
 ! Z32   R(32,-3)               39.641          frozen, calculate D2E/DX2 analyt!
 ! X34   R(34,-1)               41.357          frozen, calculate D2E/DX2 analyt!
 ! Y34   R(34,-2)               41.54           frozen, calculate D2E/DX2 analyt!
 ! Z34   R(34,-3)               40.039          frozen, calculate D2E/DX2 analyt!
 ! X36   R(36,-1)               40.451          frozen, calculate D2E/DX2 analyt!
 ! Y36   R(36,-2)               40.39           frozen, calculate D2E/DX2 analyt!
 ! Z36   R(36,-3)               40.071          frozen, calculate D2E/DX2 analyt!
 ! X43   R(43,-1)               41.015          frozen, calculate D2E/DX2 analyt!
 ! Y43   R(43,-2)               39.274          frozen, calculate D2E/DX2 analyt!
 ! Z43   R(43,-3)               40.938          frozen, calculate D2E/DX2 analyt!
 ! X45   R(45,-1)               41.456          frozen, calculate D2E/DX2 analyt!
 ! Y45   R(45,-2)               38.157          frozen, calculate D2E/DX2 analyt!
 ! Z45   R(45,-3)               40.361          frozen, calculate D2E/DX2 analyt!
 ! X47   R(47,-1)               42.098          frozen, calculate D2E/DX2 analyt!
 ! Y47   R(47,-2)               37.085          frozen, calculate D2E/DX2 analyt!
 ! Z47   R(47,-3)               41.008          frozen, calculate D2E/DX2 analyt!
 ! X60   R(60,-1)               36.134          frozen, calculate D2E/DX2 analyt!
 ! Y60   R(60,-2)               38.493          frozen, calculate D2E/DX2 analyt!
 ! Z60   R(60,-3)               45.437          frozen, calculate D2E/DX2 analyt!
 ! X80   R(80,-1)               29.739          frozen, calculate D2E/DX2 analyt!
 ! Y80   R(80,-2)               43.955          frozen, calculate D2E/DX2 analyt!
 ! Z80   R(80,-3)               37.188          frozen, calculate D2E/DX2 analyt!
 ! X88   R(88,-1)               34.913          frozen, calculate D2E/DX2 analyt!
 ! Y88   R(88,-2)               44.309          frozen, calculate D2E/DX2 analyt!
 ! Z88   R(88,-3)               35.569          frozen, calculate D2E/DX2 analyt!
 ! X101  R(101,-1)              36.325          frozen, calculate D2E/DX2 analyt!
 ! Y101  R(101,-2)              44.74           frozen, calculate D2E/DX2 analyt!
 ! Z101  R(101,-3)              35.051          frozen, calculate D2E/DX2 analyt!
 ! X102  R(102,-1)              37.361          frozen, calculate D2E/DX2 analyt!
 ! Y102  R(102,-2)              44.504          frozen, calculate D2E/DX2 analyt!
 ! Z102  R(102,-3)              35.624          frozen, calculate D2E/DX2 analyt!
 ! X120  R(120,-1)              44.247          frozen, calculate D2E/DX2 analyt!
 ! Y120  R(120,-2)              39.89           frozen, calculate D2E/DX2 analyt!
 ! Z120  R(120,-3)              28.712          frozen, calculate D2E/DX2 analyt!
 ! X121  R(121,-1)              35.03           frozen, calculate D2E/DX2 analyt!
 ! Y121  R(121,-2)              33.818          frozen, calculate D2E/DX2 analyt!
 ! Z121  R(121,-3)              39.334          frozen, calculate D2E/DX2 analyt!
 ! R1    R(1,2)                  0.9974         calculate D2E/DX2 analytically  !
 ! R2    R(1,153)                1.0            calculate D2E/DX2 analytically  !
 ! R3    R(2,115)                1.9708         calculate D2E/DX2 analytically  !
 ! R4    R(3,4)                  1.0794         calculate D2E/DX2 analytically  !
 ! R5    R(3,5)                  1.5071         calculate D2E/DX2 analytically  !
 ! R6    R(5,6)                  1.1105         calculate D2E/DX2 analytically  !
 ! R7    R(5,7)                  1.1112         calculate D2E/DX2 analytically  !
 ! R8    R(5,145)                1.07           calculate D2E/DX2 analytically  !
 ! R9    R(8,150)                1.07           calculate D2E/DX2 analytically  !
 ! R10   R(10,11)                0.997          calculate D2E/DX2 analytically  !
 ! R11   R(10,152)               1.0            calculate D2E/DX2 analytically  !
 ! R12   R(12,13)                1.0797         calculate D2E/DX2 analytically  !
 ! R13   R(12,14)                1.5679         calculate D2E/DX2 analytically  !
 ! R14   R(14,15)                1.0995         calculate D2E/DX2 analytically  !
 ! R15   R(14,16)                1.1395         calculate D2E/DX2 analytically  !
 ! R16   R(14,17)                1.5428         calculate D2E/DX2 analytically  !
 ! R17   R(17,18)                1.3656         calculate D2E/DX2 analytically  !
 ! R18   R(17,23)                1.4934         calculate D2E/DX2 analytically  !
 ! R19   R(18,19)                1.0409         calculate D2E/DX2 analytically  !
 ! R20   R(18,20)                1.4012         calculate D2E/DX2 analytically  !
 ! R21   R(20,21)                1.0324         calculate D2E/DX2 analytically  !
 ! R22   R(20,22)                1.4173         calculate D2E/DX2 analytically  !
 ! R23   R(22,23)                1.4176         calculate D2E/DX2 analytically  !
 ! R24   R(22,28)                1.4126         calculate D2E/DX2 analytically  !
 ! R25   R(23,24)                1.3739         calculate D2E/DX2 analytically  !
 ! R26   R(24,25)                1.1124         calculate D2E/DX2 analytically  !
 ! R27   R(24,26)                1.3941         calculate D2E/DX2 analytically  !
 ! R28   R(26,27)                1.1195         calculate D2E/DX2 analytically  !
 ! R29   R(26,30)                1.4018         calculate D2E/DX2 analytically  !
 ! R30   R(28,29)                1.0395         calculate D2E/DX2 analytically  !
 ! R31   R(28,30)                1.3489         calculate D2E/DX2 analytically  !
 ! R32   R(30,31)                1.0804         calculate D2E/DX2 analytically  !
 ! R33   R(32,33)                1.2222         calculate D2E/DX2 analytically  !
 ! R34   R(34,35)                1.1112         calculate D2E/DX2 analytically  !
 ! R35   R(36,37)                1.1113         calculate D2E/DX2 analytically  !
 ! R36   R(36,38)                1.5461         calculate D2E/DX2 analytically  !
 ! R37   R(38,39)                1.1424         calculate D2E/DX2 analytically  !
 ! R38   R(38,40)                1.1107         calculate D2E/DX2 analytically  !
 ! R39   R(38,41)                1.464          calculate D2E/DX2 analytically  !
 ! R40   R(41,42)                2.0778         frozen, calculate D2E/DX2 analyt!
 ! R41   R(41,69)                1.8914         calculate D2E/DX2 analytically  !
 ! R42   R(41,128)               1.6925         frozen, calculate D2E/DX2 analyt!
 ! R43   R(42,98)                1.0379         calculate D2E/DX2 analytically  !
 ! R44   R(42,117)               1.7197         frozen, calculate D2E/DX2 analyt!
 ! R45   R(43,44)                1.2356         calculate D2E/DX2 analytically  !
 ! R46   R(45,46)                1.0793         calculate D2E/DX2 analytically  !
 ! R47   R(47,48)                1.07           calculate D2E/DX2 analytically  !
 ! R48   R(47,49)                1.5265         calculate D2E/DX2 analytically  !
 ! R49   R(47,149)               1.07           calculate D2E/DX2 analytically  !
 ! R50   R(49,50)                1.0806         calculate D2E/DX2 analytically  !
 ! R51   R(49,51)                1.08           calculate D2E/DX2 analytically  !
 ! R52   R(49,52)                1.5676         calculate D2E/DX2 analytically  !
 ! R53   R(52,53)                1.0808         calculate D2E/DX2 analytically  !
 ! R54   R(52,54)                1.0795         calculate D2E/DX2 analytically  !
 ! R55   R(52,55)                1.8335         calculate D2E/DX2 analytically  !
 ! R56   R(55,56)                1.848          calculate D2E/DX2 analytically  !
 ! R57   R(56,57)                0.9968         calculate D2E/DX2 analytically  !
 ! R58   R(56,58)                1.0797         calculate D2E/DX2 analytically  !
 ! R59   R(56,59)                1.1105         calculate D2E/DX2 analytically  !
 ! R60   R(60,61)                1.07           calculate D2E/DX2 analytically  !
 ! R61   R(60,62)                1.5513         calculate D2E/DX2 analytically  !
 ! R62   R(60,147)               1.07           calculate D2E/DX2 analytically  !
 ! R63   R(60,148)               1.07           calculate D2E/DX2 analytically  !
 ! R64   R(62,63)                1.1113         calculate D2E/DX2 analytically  !
 ! R65   R(62,64)                1.1105         calculate D2E/DX2 analytically  !
 ! R66   R(62,65)                1.4432         calculate D2E/DX2 analytically  !
 ! R67   R(65,66)                1.3606         calculate D2E/DX2 analytically  !
 ! R68   R(65,71)                1.4074         calculate D2E/DX2 analytically  !
 ! R69   R(66,67)                1.111          calculate D2E/DX2 analytically  !
 ! R70   R(66,68)                1.3623         calculate D2E/DX2 analytically  !
 ! R71   R(68,69)                1.1111         calculate D2E/DX2 analytically  !
 ! R72   R(68,70)                1.3909         calculate D2E/DX2 analytically  !
 ! R73   R(70,71)                1.4139         calculate D2E/DX2 analytically  !
 ! R74   R(70,76)                1.401          calculate D2E/DX2 analytically  !
 ! R75   R(71,72)                1.3759         calculate D2E/DX2 analytically  !
 ! R76   R(72,73)                1.0796         calculate D2E/DX2 analytically  !
 ! R77   R(72,74)                1.4162         calculate D2E/DX2 analytically  !
 ! R78   R(74,75)                1.1117         calculate D2E/DX2 analytically  !
 ! R79   R(74,78)                1.4155         calculate D2E/DX2 analytically  !
 ! R80   R(76,77)                1.1108         calculate D2E/DX2 analytically  !
 ! R81   R(76,78)                1.4305         calculate D2E/DX2 analytically  !
 ! R82   R(78,79)                1.1111         calculate D2E/DX2 analytically  !
 ! R83   R(80,81)                1.1109         calculate D2E/DX2 analytically  !
 ! R84   R(80,82)                1.5178         calculate D2E/DX2 analytically  !
 ! R85   R(80,141)               1.07           calculate D2E/DX2 analytically  !
 ! R86   R(80,142)               1.07           calculate D2E/DX2 analytically  !
 ! R87   R(82,83)                1.1519         calculate D2E/DX2 analytically  !
 ! R88   R(82,84)                1.1372         calculate D2E/DX2 analytically  !
 ! R89   R(82,85)                1.5642         calculate D2E/DX2 analytically  !
 ! R90   R(85,86)                1.3074         calculate D2E/DX2 analytically  !
 ! R91   R(85,87)                1.3229         calculate D2E/DX2 analytically  !
 ! R92   R(87,94)                1.8535         calculate D2E/DX2 analytically  !
 ! R93   R(88,89)                0.9994         calculate D2E/DX2 analytically  !
 ! R94   R(88,90)                1.5052         calculate D2E/DX2 analytically  !
 ! R95   R(88,146)               1.07           calculate D2E/DX2 analytically  !
 ! R96   R(90,91)                1.1074         calculate D2E/DX2 analytically  !
 ! R97   R(90,92)                1.0739         calculate D2E/DX2 analytically  !
 ! R98   R(90,95)                1.5131         calculate D2E/DX2 analytically  !
 ! R99   R(93,94)                1.0089         calculate D2E/DX2 analytically  !
 ! R100  R(93,95)                1.4065         calculate D2E/DX2 analytically  !
 ! R101  R(93,96)                1.3733         calculate D2E/DX2 analytically  !
 ! R102  R(95,99)                1.3816         calculate D2E/DX2 analytically  !
 ! R103  R(96,97)                1.1064         calculate D2E/DX2 analytically  !
 ! R104  R(96,98)                1.305          calculate D2E/DX2 analytically  !
 ! R105  R(98,99)                1.3853         calculate D2E/DX2 analytically  !
 ! R106  R(99,100)               1.0984         calculate D2E/DX2 analytically  !
 ! R107  R(101,151)              1.07           calculate D2E/DX2 analytically  !
 ! R108  R(103,105)              1.4989         calculate D2E/DX2 analytically  !
 ! R109  R(103,117)              1.4424         calculate D2E/DX2 analytically  !
 ! R110  R(103,129)              1.1114         calculate D2E/DX2 analytically  !
 ! R111  R(103,130)              1.1282         calculate D2E/DX2 analytically  !
 ! R112  R(104,105)              1.413          calculate D2E/DX2 analytically  !
 ! R113  R(104,107)              1.3749         calculate D2E/DX2 analytically  !
 ! R114  R(105,131)              1.1657         calculate D2E/DX2 analytically  !
 ! R115  R(105,132)              1.0929         calculate D2E/DX2 analytically  !
 ! R116  R(106,120)              1.259          calculate D2E/DX2 analytically  !
 ! R117  R(107,109)              1.5178         calculate D2E/DX2 analytically  !
 ! R118  R(107,110)              1.2602         calculate D2E/DX2 analytically  !
 ! R119  R(108,120)              1.3277         calculate D2E/DX2 analytically  !
 ! R120  R(108,144)              0.96           calculate D2E/DX2 analytically  !
 ! R121  R(109,111)              1.4057         calculate D2E/DX2 analytically  !
 ! R122  R(109,118)              1.4132         calculate D2E/DX2 analytically  !
 ! R123  R(111,112)              1.4269         calculate D2E/DX2 analytically  !
 ! R124  R(111,133)              1.1246         calculate D2E/DX2 analytically  !
 ! R125  R(112,114)              1.4131         calculate D2E/DX2 analytically  !
 ! R126  R(112,134)              1.0322         calculate D2E/DX2 analytically  !
 ! R127  R(113,121)              1.3337         calculate D2E/DX2 analytically  !
 ! R128  R(113,143)              0.96           calculate D2E/DX2 analytically  !
 ! R129  R(114,116)              1.4034         calculate D2E/DX2 analytically  !
 ! R130  R(114,120)              1.4739         calculate D2E/DX2 analytically  !
 ! R131  R(115,128)              1.251          calculate D2E/DX2 analytically  !
 ! R132  R(116,118)              1.4104         calculate D2E/DX2 analytically  !
 ! R133  R(116,135)              1.109          calculate D2E/DX2 analytically  !
 ! R134  R(117,128)              1.8184         frozen, calculate D2E/DX2 analyt!
 ! R135  R(118,136)              1.0648         calculate D2E/DX2 analytically  !
 ! R136  R(119,121)              1.3054         calculate D2E/DX2 analytically  !
 ! R137  R(121,122)              1.5153         calculate D2E/DX2 analytically  !
 ! R138  R(122,123)              1.4742         calculate D2E/DX2 analytically  !
 ! R139  R(122,127)              1.4196         calculate D2E/DX2 analytically  !
 ! R140  R(123,124)              1.3578         calculate D2E/DX2 analytically  !
 ! R141  R(123,137)              1.0347         calculate D2E/DX2 analytically  !
 ! R142  R(124,125)              1.4036         calculate D2E/DX2 analytically  !
 ! R143  R(124,138)              1.1404         calculate D2E/DX2 analytically  !
 ! R144  R(125,126)              1.4255         calculate D2E/DX2 analytically  !
 ! R145  R(125,128)              1.502          calculate D2E/DX2 analytically  !
 ! R146  R(126,127)              1.4061         calculate D2E/DX2 analytically  !
 ! R147  R(126,139)              1.0834         calculate D2E/DX2 analytically  !
 ! R148  R(127,140)              1.1005         calculate D2E/DX2 analytically  !
 ! A1    A(2,1,3)              116.347          calculate D2E/DX2 analytically  !
 ! A2    A(2,1,153)            123.6116         calculate D2E/DX2 analytically  !
 ! A3    A(3,1,153)            119.9898         calculate D2E/DX2 analytically  !
 ! A4    A(1,2,115)            160.483          calculate D2E/DX2 analytically  !
 ! A5    A(1,3,4)              109.003          calculate D2E/DX2 analytically  !
 ! A6    A(1,3,5)              104.1879         calculate D2E/DX2 analytically  !
 ! A7    A(4,3,5)              119.1534         calculate D2E/DX2 analytically  !
 ! A8    A(4,3,8)              104.4507         calculate D2E/DX2 analytically  !
 ! A9    A(5,3,8)              108.3399         calculate D2E/DX2 analytically  !
 ! A10   A(3,5,6)              107.7234         calculate D2E/DX2 analytically  !
 ! A11   A(3,5,7)              109.2315         calculate D2E/DX2 analytically  !
 ! A12   A(3,5,145)            116.6878         calculate D2E/DX2 analytically  !
 ! A13   A(6,5,7)              105.9821         calculate D2E/DX2 analytically  !
 ! A14   A(6,5,145)            106.2085         calculate D2E/DX2 analytically  !
 ! A15   A(7,5,145)            110.407          calculate D2E/DX2 analytically  !
 ! A16   A(3,8,150)            120.0            calculate D2E/DX2 analytically  !
 ! A17   A(9,8,150)            120.0            calculate D2E/DX2 analytically  !
 ! A18   A(11,10,12)           119.7328         calculate D2E/DX2 analytically  !
 ! A19   A(11,10,152)          122.8521         calculate D2E/DX2 analytically  !
 ! A20   A(12,10,152)          109.4712         calculate D2E/DX2 analytically  !
 ! A21   A(10,12,13)           106.4291         calculate D2E/DX2 analytically  !
 ! A22   A(10,12,14)           109.1339         calculate D2E/DX2 analytically  !
 ! A23   A(13,12,14)           111.1555         calculate D2E/DX2 analytically  !
 ! A24   A(13,12,32)           109.1465         calculate D2E/DX2 analytically  !
 ! A25   A(14,12,32)           111.2396         calculate D2E/DX2 analytically  !
 ! A26   A(12,14,15)           108.2075         calculate D2E/DX2 analytically  !
 ! A27   A(12,14,16)           110.2531         calculate D2E/DX2 analytically  !
 ! A28   A(12,14,17)           118.5043         calculate D2E/DX2 analytically  !
 ! A29   A(15,14,16)           107.3432         calculate D2E/DX2 analytically  !
 ! A30   A(15,14,17)           108.8831         calculate D2E/DX2 analytically  !
 ! A31   A(16,14,17)           103.1059         calculate D2E/DX2 analytically  !
 ! A32   A(14,17,18)           129.7505         calculate D2E/DX2 analytically  !
 ! A33   A(14,17,23)           122.7358         calculate D2E/DX2 analytically  !
 ! A34   A(18,17,23)           106.877          calculate D2E/DX2 analytically  !
 ! A35   A(17,18,19)           132.2222         calculate D2E/DX2 analytically  !
 ! A36   A(17,18,20)           110.5538         calculate D2E/DX2 analytically  !
 ! A37   A(19,18,20)           117.0836         calculate D2E/DX2 analytically  !
 ! A38   A(18,20,21)           129.5246         calculate D2E/DX2 analytically  !
 ! A39   A(18,20,22)           108.166          calculate D2E/DX2 analytically  !
 ! A40   A(21,20,22)           122.2155         calculate D2E/DX2 analytically  !
 ! A41   A(20,22,23)           108.0383         calculate D2E/DX2 analytically  !
 ! A42   A(20,22,28)           130.3915         calculate D2E/DX2 analytically  !
 ! A43   A(23,22,28)           121.3563         calculate D2E/DX2 analytically  !
 ! A44   A(17,23,22)           105.9916         calculate D2E/DX2 analytically  !
 ! A45   A(17,23,24)           134.8623         calculate D2E/DX2 analytically  !
 ! A46   A(22,23,24)           117.0815         calculate D2E/DX2 analytically  !
 ! A47   A(23,24,25)           121.9256         calculate D2E/DX2 analytically  !
 ! A48   A(23,24,26)           121.2858         calculate D2E/DX2 analytically  !
 ! A49   A(25,24,26)           116.7226         calculate D2E/DX2 analytically  !
 ! A50   A(24,26,27)           123.8501         calculate D2E/DX2 analytically  !
 ! A51   A(24,26,30)           119.2102         calculate D2E/DX2 analytically  !
 ! A52   A(27,26,30)           116.8952         calculate D2E/DX2 analytically  !
 ! A53   A(22,28,29)           115.9594         calculate D2E/DX2 analytically  !
 ! A54   A(22,28,30)           118.2658         calculate D2E/DX2 analytically  !
 ! A55   A(29,28,30)           125.3789         calculate D2E/DX2 analytically  !
 ! A56   A(26,30,28)           121.5158         calculate D2E/DX2 analytically  !
 ! A57   A(26,30,31)           125.6054         calculate D2E/DX2 analytically  !
 ! A58   A(28,30,31)           112.0217         calculate D2E/DX2 analytically  !
 ! A59   A(12,32,33)           121.442          calculate D2E/DX2 analytically  !
 ! A60   A(33,32,34)           126.4443         calculate D2E/DX2 analytically  !
 ! A61   A(32,34,35)           123.7066         calculate D2E/DX2 analytically  !
 ! A62   A(35,34,36)           110.0308         calculate D2E/DX2 analytically  !
 ! A63   A(34,36,37)            99.9094         calculate D2E/DX2 analytically  !
 ! A64   A(34,36,38)           116.056          calculate D2E/DX2 analytically  !
 ! A65   A(37,36,38)           108.1589         calculate D2E/DX2 analytically  !
 ! A66   A(37,36,43)           108.2534         calculate D2E/DX2 analytically  !
 ! A67   A(38,36,43)           112.3918         calculate D2E/DX2 analytically  !
 ! A68   A(36,38,39)           111.2994         calculate D2E/DX2 analytically  !
 ! A69   A(36,38,40)           108.9495         calculate D2E/DX2 analytically  !
 ! A70   A(36,38,41)           109.8758         calculate D2E/DX2 analytically  !
 ! A71   A(39,38,40)           107.0493         calculate D2E/DX2 analytically  !
 ! A72   A(39,38,41)           109.7518         calculate D2E/DX2 analytically  !
 ! A73   A(40,38,41)           109.8654         calculate D2E/DX2 analytically  !
 ! A74   A(38,41,69)           117.8474         calculate D2E/DX2 analytically  !
 ! A75   A(38,41,128)          106.1543         calculate D2E/DX2 analytically  !
 ! A76   A(69,41,128)          107.648          calculate D2E/DX2 analytically  !
 ! A77   A(98,42,117)          144.8339         calculate D2E/DX2 analytically  !
 ! A78   A(36,43,44)           118.3178         calculate D2E/DX2 analytically  !
 ! A79   A(44,43,45)           122.2175         calculate D2E/DX2 analytically  !
 ! A80   A(43,45,46)           115.1149         calculate D2E/DX2 analytically  !
 ! A81   A(46,45,47)           118.6851         calculate D2E/DX2 analytically  !
 ! A82   A(45,47,48)           108.6669         calculate D2E/DX2 analytically  !
 ! A83   A(45,47,49)           113.3694         calculate D2E/DX2 analytically  !
 ! A84   A(45,47,149)          108.6669         calculate D2E/DX2 analytically  !
 ! A85   A(48,47,49)           108.6669         calculate D2E/DX2 analytically  !
 ! A86   A(48,47,149)          108.7134         calculate D2E/DX2 analytically  !
 ! A87   A(49,47,149)          108.6669         calculate D2E/DX2 analytically  !
 ! A88   A(47,49,50)           111.0144         calculate D2E/DX2 analytically  !
 ! A89   A(47,49,51)           116.5313         calculate D2E/DX2 analytically  !
 ! A90   A(47,49,52)           112.0256         calculate D2E/DX2 analytically  !
 ! A91   A(50,49,51)           106.5542         calculate D2E/DX2 analytically  !
 ! A92   A(50,49,52)           102.7074         calculate D2E/DX2 analytically  !
 ! A93   A(51,49,52)           106.9566         calculate D2E/DX2 analytically  !
 ! A94   A(49,52,53)           111.9101         calculate D2E/DX2 analytically  !
 ! A95   A(49,52,54)           111.2697         calculate D2E/DX2 analytically  !
 ! A96   A(49,52,55)           110.1908         calculate D2E/DX2 analytically  !
 ! A97   A(53,52,54)           101.8052         calculate D2E/DX2 analytically  !
 ! A98   A(53,52,55)           109.0374         calculate D2E/DX2 analytically  !
 ! A99   A(54,52,55)           112.3813         calculate D2E/DX2 analytically  !
 ! A100  A(52,55,56)           101.3278         calculate D2E/DX2 analytically  !
 ! A101  A(55,56,57)           118.6463         calculate D2E/DX2 analytically  !
 ! A102  A(55,56,58)           111.5751         calculate D2E/DX2 analytically  !
 ! A103  A(55,56,59)           105.6369         calculate D2E/DX2 analytically  !
 ! A104  A(57,56,58)           102.9339         calculate D2E/DX2 analytically  !
 ! A105  A(57,56,59)           111.7901         calculate D2E/DX2 analytically  !
 ! A106  A(58,56,59)           105.6566         calculate D2E/DX2 analytically  !
 ! A107  A(61,60,62)           109.4712         calculate D2E/DX2 analytically  !
 ! A108  A(61,60,147)          109.4712         calculate D2E/DX2 analytically  !
 ! A109  A(61,60,148)          109.4712         calculate D2E/DX2 analytically  !
 ! A110  A(62,60,147)          109.4712         calculate D2E/DX2 analytically  !
 ! A111  A(62,60,148)          109.4712         calculate D2E/DX2 analytically  !
 ! A112  A(147,60,148)         109.4712         calculate D2E/DX2 analytically  !
 ! A113  A(60,62,63)           103.9494         calculate D2E/DX2 analytically  !
 ! A114  A(60,62,64)           108.2134         calculate D2E/DX2 analytically  !
 ! A115  A(60,62,65)           114.6764         calculate D2E/DX2 analytically  !
 ! A116  A(63,62,64)           104.8808         calculate D2E/DX2 analytically  !
 ! A117  A(63,62,65)           111.5199         calculate D2E/DX2 analytically  !
 ! A118  A(64,62,65)           112.7935         calculate D2E/DX2 analytically  !
 ! A119  A(62,65,66)           122.1698         calculate D2E/DX2 analytically  !
 ! A120  A(62,65,71)           127.998          calculate D2E/DX2 analytically  !
 ! A121  A(66,65,71)           109.7677         calculate D2E/DX2 analytically  !
 ! A122  A(65,66,67)           117.241          calculate D2E/DX2 analytically  !
 ! A123  A(65,66,68)           109.071          calculate D2E/DX2 analytically  !
 ! A124  A(67,66,68)           133.67           calculate D2E/DX2 analytically  !
 ! A125  A(66,68,69)           126.6926         calculate D2E/DX2 analytically  !
 ! A126  A(66,68,70)           106.8056         calculate D2E/DX2 analytically  !
 ! A127  A(69,68,70)           125.9512         calculate D2E/DX2 analytically  !
 ! A128  A(41,69,68)           156.4897         calculate D2E/DX2 analytically  !
 ! A129  A(68,70,71)           109.7744         calculate D2E/DX2 analytically  !
 ! A130  A(68,70,76)           129.2301         calculate D2E/DX2 analytically  !
 ! A131  A(71,70,76)           120.9826         calculate D2E/DX2 analytically  !
 ! A132  A(65,71,70)           103.2525         calculate D2E/DX2 analytically  !
 ! A133  A(65,71,72)           131.8957         calculate D2E/DX2 analytically  !
 ! A134  A(70,71,72)           124.8383         calculate D2E/DX2 analytically  !
 ! A135  A(71,72,73)           119.4035         calculate D2E/DX2 analytically  !
 ! A136  A(71,72,74)           115.6465         calculate D2E/DX2 analytically  !
 ! A137  A(73,72,74)           124.5364         calculate D2E/DX2 analytically  !
 ! A138  A(72,74,75)           123.5301         calculate D2E/DX2 analytically  !
 ! A139  A(72,74,78)           119.6559         calculate D2E/DX2 analytically  !
 ! A140  A(75,74,78)           116.6076         calculate D2E/DX2 analytically  !
 ! A141  A(70,76,77)           125.8115         calculate D2E/DX2 analytically  !
 ! A142  A(70,76,78)           113.8885         calculate D2E/DX2 analytically  !
 ! A143  A(77,76,78)           119.6036         calculate D2E/DX2 analytically  !
 ! A144  A(74,78,76)           124.4524         calculate D2E/DX2 analytically  !
 ! A145  A(74,78,79)           121.4541         calculate D2E/DX2 analytically  !
 ! A146  A(76,78,79)           113.6651         calculate D2E/DX2 analytically  !
 ! A147  A(81,80,82)           117.4428         calculate D2E/DX2 analytically  !
 ! A148  A(81,80,141)          103.3582         calculate D2E/DX2 analytically  !
 ! A149  A(81,80,142)          105.6355         calculate D2E/DX2 analytically  !
 ! A150  A(82,80,141)          104.2592         calculate D2E/DX2 analytically  !
 ! A151  A(82,80,142)          106.0835         calculate D2E/DX2 analytically  !
 ! A152  A(141,80,142)         120.868          calculate D2E/DX2 analytically  !
 ! A153  A(80,82,83)           111.4703         calculate D2E/DX2 analytically  !
 ! A154  A(80,82,84)           103.0327         calculate D2E/DX2 analytically  !
 ! A155  A(80,82,85)           114.79           calculate D2E/DX2 analytically  !
 ! A156  A(83,82,84)           108.6097         calculate D2E/DX2 analytically  !
 ! A157  A(83,82,85)           116.1789         calculate D2E/DX2 analytically  !
 ! A158  A(84,82,85)           101.1231         calculate D2E/DX2 analytically  !
 ! A159  A(82,85,86)           120.1979         calculate D2E/DX2 analytically  !
 ! A160  A(82,85,87)           114.4865         calculate D2E/DX2 analytically  !
 ! A161  A(86,85,87)           124.4987         calculate D2E/DX2 analytically  !
 ! A162  A(85,87,94)           110.8835         calculate D2E/DX2 analytically  !
 ! A163  A(89,88,90)           110.5819         calculate D2E/DX2 analytically  !
 ! A164  A(89,88,101)          104.6747         calculate D2E/DX2 analytically  !
 ! A165  A(89,88,146)          114.0547         calculate D2E/DX2 analytically  !
 ! A166  A(90,88,101)          109.1863         calculate D2E/DX2 analytically  !
 ! A167  A(90,88,146)          107.0997         calculate D2E/DX2 analytically  !
 ! A168  A(101,88,146)         111.2097         calculate D2E/DX2 analytically  !
 ! A169  A(88,90,91)           108.0625         calculate D2E/DX2 analytically  !
 ! A170  A(88,90,92)           110.4239         calculate D2E/DX2 analytically  !
 ! A171  A(88,90,95)           114.8701         calculate D2E/DX2 analytically  !
 ! A172  A(91,90,92)            99.3947         calculate D2E/DX2 analytically  !
 ! A173  A(91,90,95)           106.7707         calculate D2E/DX2 analytically  !
 ! A174  A(92,90,95)           115.805          calculate D2E/DX2 analytically  !
 ! A175  A(94,93,95)           119.6722         calculate D2E/DX2 analytically  !
 ! A176  A(94,93,96)           131.3617         calculate D2E/DX2 analytically  !
 ! A177  A(95,93,96)           107.8226         calculate D2E/DX2 analytically  !
 ! A178  A(90,95,93)           121.134          calculate D2E/DX2 analytically  !
 ! A179  A(90,95,99)           131.8214         calculate D2E/DX2 analytically  !
 ! A180  A(93,95,99)           103.8661         calculate D2E/DX2 analytically  !
 ! A181  A(93,96,97)           129.0154         calculate D2E/DX2 analytically  !
 ! A182  A(93,96,98)           110.6178         calculate D2E/DX2 analytically  !
 ! A183  A(97,96,98)           120.3338         calculate D2E/DX2 analytically  !
 ! A184  A(42,98,96)           129.3427         calculate D2E/DX2 analytically  !
 ! A185  A(42,98,99)           123.7906         calculate D2E/DX2 analytically  !
 ! A186  A(96,98,99)           106.776          calculate D2E/DX2 analytically  !
 ! A187  A(95,99,98)           110.3955         calculate D2E/DX2 analytically  !
 ! A188  A(95,99,100)          135.6633         calculate D2E/DX2 analytically  !
 ! A189  A(98,99,100)          113.5567         calculate D2E/DX2 analytically  !
 ! A190  A(88,101,151)         120.0            calculate D2E/DX2 analytically  !
 ! A191  A(102,101,151)        115.7016         calculate D2E/DX2 analytically  !
 ! A192  A(105,103,117)        112.4716         calculate D2E/DX2 analytically  !
 ! A193  A(105,103,129)        102.4498         calculate D2E/DX2 analytically  !
 ! A194  A(105,103,130)        111.5635         calculate D2E/DX2 analytically  !
 ! A195  A(117,103,129)        110.3878         calculate D2E/DX2 analytically  !
 ! A196  A(117,103,130)        107.2215         calculate D2E/DX2 analytically  !
 ! A197  A(129,103,130)        112.8235         calculate D2E/DX2 analytically  !
 ! A198  A(105,104,107)        119.7106         calculate D2E/DX2 analytically  !
 ! A199  A(103,105,104)        103.5764         calculate D2E/DX2 analytically  !
 ! A200  A(103,105,131)        111.4094         calculate D2E/DX2 analytically  !
 ! A201  A(103,105,132)        115.4228         calculate D2E/DX2 analytically  !
 ! A202  A(104,105,131)        107.5501         calculate D2E/DX2 analytically  !
 ! A203  A(104,105,132)        110.6426         calculate D2E/DX2 analytically  !
 ! A204  A(131,105,132)        107.9604         calculate D2E/DX2 analytically  !
 ! A205  A(104,107,109)        116.6408         calculate D2E/DX2 analytically  !
 ! A206  A(104,107,110)        123.8297         calculate D2E/DX2 analytically  !
 ! A207  A(109,107,110)        119.524          calculate D2E/DX2 analytically  !
 ! A208  A(120,108,144)        122.1694         calculate D2E/DX2 analytically  !
 ! A209  A(107,109,111)        119.629          calculate D2E/DX2 analytically  !
 ! A210  A(107,109,118)        120.4402         calculate D2E/DX2 analytically  !
 ! A211  A(111,109,118)        119.6695         calculate D2E/DX2 analytically  !
 ! A212  A(109,111,112)        120.7232         calculate D2E/DX2 analytically  !
 ! A213  A(109,111,133)        115.949          calculate D2E/DX2 analytically  !
 ! A214  A(112,111,133)        122.5912         calculate D2E/DX2 analytically  !
 ! A215  A(111,112,114)        121.5101         calculate D2E/DX2 analytically  !
 ! A216  A(111,112,134)        120.6482         calculate D2E/DX2 analytically  !
 ! A217  A(114,112,134)        117.8147         calculate D2E/DX2 analytically  !
 ! A218  A(121,113,143)        118.7645         calculate D2E/DX2 analytically  !
 ! A219  A(112,114,116)        114.5985         calculate D2E/DX2 analytically  !
 ! A220  A(112,114,120)        117.1548         calculate D2E/DX2 analytically  !
 ! A221  A(116,114,120)        128.231          calculate D2E/DX2 analytically  !
 ! A222  A(2,115,128)          146.3983         calculate D2E/DX2 analytically  !
 ! A223  A(114,116,118)        126.5702         calculate D2E/DX2 analytically  !
 ! A224  A(114,116,135)        121.529          calculate D2E/DX2 analytically  !
 ! A225  A(118,116,135)        111.8789         calculate D2E/DX2 analytically  !
 ! A226  A(42,117,103)         117.4721         calculate D2E/DX2 analytically  !
 ! A227  A(42,117,128)         100.054          calculate D2E/DX2 analytically  !
 ! A228  A(103,117,128)        114.4959         calculate D2E/DX2 analytically  !
 ! A229  A(109,118,116)        116.7236         calculate D2E/DX2 analytically  !
 ! A230  A(109,118,136)        124.0827         calculate D2E/DX2 analytically  !
 ! A231  A(116,118,136)        118.2926         calculate D2E/DX2 analytically  !
 ! A232  A(106,120,108)        121.5193         calculate D2E/DX2 analytically  !
 ! A233  A(106,120,114)        120.6955         calculate D2E/DX2 analytically  !
 ! A234  A(108,120,114)        117.7592         calculate D2E/DX2 analytically  !
 ! A235  A(113,121,119)        121.719          calculate D2E/DX2 analytically  !
 ! A236  A(113,121,122)        112.4968         calculate D2E/DX2 analytically  !
 ! A237  A(119,121,122)        125.6491         calculate D2E/DX2 analytically  !
 ! A238  A(121,122,123)        115.7394         calculate D2E/DX2 analytically  !
 ! A239  A(121,122,127)        126.2307         calculate D2E/DX2 analytically  !
 ! A240  A(123,122,127)        118.001          calculate D2E/DX2 analytically  !
 ! A241  A(122,123,124)        120.3589         calculate D2E/DX2 analytically  !
 ! A242  A(122,123,137)        119.1987         calculate D2E/DX2 analytically  !
 ! A243  A(124,123,137)        119.7627         calculate D2E/DX2 analytically  !
 ! A244  A(123,124,125)        121.793          calculate D2E/DX2 analytically  !
 ! A245  A(123,124,138)        112.75           calculate D2E/DX2 analytically  !
 ! A246  A(125,124,138)        125.3582         calculate D2E/DX2 analytically  !
 ! A247  A(124,125,126)        118.2239         calculate D2E/DX2 analytically  !
 ! A248  A(124,125,128)        119.8423         calculate D2E/DX2 analytically  !
 ! A249  A(126,125,128)        121.5242         calculate D2E/DX2 analytically  !
 ! A250  A(125,126,127)        121.4846         calculate D2E/DX2 analytically  !
 ! A251  A(125,126,139)        118.7596         calculate D2E/DX2 analytically  !
 ! A252  A(127,126,139)        119.6776         calculate D2E/DX2 analytically  !
 ! A253  A(122,127,126)        119.2224         calculate D2E/DX2 analytically  !
 ! A254  A(122,127,140)        120.4564         calculate D2E/DX2 analytically  !
 ! A255  A(126,127,140)        120.3006         calculate D2E/DX2 analytically  !
 ! A256  A(41,128,115)         114.3622         calculate D2E/DX2 analytically  !
 ! A257  A(41,128,117)          88.5529         calculate D2E/DX2 analytically  !
 ! A258  A(41,128,125)         103.4574         calculate D2E/DX2 analytically  !
 ! A259  A(115,128,117)        111.2112         calculate D2E/DX2 analytically  !
 ! A260  A(115,128,125)        131.4357         calculate D2E/DX2 analytically  !
 ! A261  A(117,128,125)         98.6088         calculate D2E/DX2 analytically  !
 ! A262  L(87,94,93,60,-1)     191.7574         calculate D2E/DX2 analytically  !
 ! A263  L(87,94,93,60,-2)     187.5942         calculate D2E/DX2 analytically  !
 ! D1    D(3,1,2,115)          144.2449         calculate D2E/DX2 analytically  !
 ! D2    D(153,1,2,115)        -33.1354         calculate D2E/DX2 analytically  !
 ! D3    D(2,1,3,4)           -137.5119         calculate D2E/DX2 analytically  !
 ! D4    D(2,1,3,5)             -9.3049         calculate D2E/DX2 analytically  !
 ! D5    D(2,1,3,8)            107.5026         calculate D2E/DX2 analytically  !
 ! D6    D(153,1,3,4)           39.9692         calculate D2E/DX2 analytically  !
 ! D7    D(153,1,3,5)          168.1763         calculate D2E/DX2 analytically  !
 ! D8    D(153,1,3,8)          -75.0162         calculate D2E/DX2 analytically  !
 ! D9    D(1,2,115,128)       -174.3022         calculate D2E/DX2 analytically  !
 ! D10   D(1,3,5,6)            -61.0017         calculate D2E/DX2 analytically  !
 ! D11   D(1,3,5,7)             53.6833         calculate D2E/DX2 analytically  !
 ! D12   D(1,3,5,145)          179.7474         calculate D2E/DX2 analytically  !
 ! D13   D(4,3,5,6)             60.7073         calculate D2E/DX2 analytically  !
 ! D14   D(4,3,5,7)            175.3923         calculate D2E/DX2 analytically  !
 ! D15   D(4,3,5,145)          -58.5436         calculate D2E/DX2 analytically  !
 ! D16   D(8,3,5,6)            179.7819         calculate D2E/DX2 analytically  !
 ! D17   D(8,3,5,7)            -65.5331         calculate D2E/DX2 analytically  !
 ! D18   D(8,3,5,145)           60.5309         calculate D2E/DX2 analytically  !
 ! D19   D(1,3,8,150)          132.8718         calculate D2E/DX2 analytically  !
 ! D20   D(4,3,8,9)           -164.8747         calculate D2E/DX2 analytically  !
 ! D21   D(4,3,8,150)           15.1253         calculate D2E/DX2 analytically  !
 ! D22   D(5,3,8,9)             67.1436         calculate D2E/DX2 analytically  !
 ! D23   D(5,3,8,150)         -112.8564         calculate D2E/DX2 analytically  !
 ! D24   D(11,10,12,13)       -178.9893         calculate D2E/DX2 analytically  !
 ! D25   D(11,10,12,14)        -58.9517         calculate D2E/DX2 analytically  !
 ! D26   D(11,10,12,32)         63.1009         calculate D2E/DX2 analytically  !
 ! D27   D(152,10,12,13)       -29.1586         calculate D2E/DX2 analytically  !
 ! D28   D(152,10,12,14)        90.879          calculate D2E/DX2 analytically  !
 ! D29   D(152,10,12,32)      -147.0683         calculate D2E/DX2 analytically  !
 ! D30   D(10,12,14,15)        -71.4505         calculate D2E/DX2 analytically  !
 ! D31   D(10,12,14,16)         45.6695         calculate D2E/DX2 analytically  !
 ! D32   D(10,12,14,17)        164.0556         calculate D2E/DX2 analytically  !
 ! D33   D(13,12,14,15)         45.6313         calculate D2E/DX2 analytically  !
 ! D34   D(13,12,14,16)        162.7513         calculate D2E/DX2 analytically  !
 ! D35   D(13,12,14,17)        -78.8626         calculate D2E/DX2 analytically  !
 ! D36   D(32,12,14,15)        167.4832         calculate D2E/DX2 analytically  !
 ! D37   D(32,12,14,16)        -75.3968         calculate D2E/DX2 analytically  !
 ! D38   D(32,12,14,17)         42.9893         calculate D2E/DX2 analytically  !
 ! D39   D(10,12,32,33)        -32.9518         calculate D2E/DX2 analytically  !
 ! D40   D(13,12,32,33)       -149.1545         calculate D2E/DX2 analytically  !
 ! D41   D(13,12,32,34)         22.9757         calculate D2E/DX2 analytically  !
 ! D42   D(14,12,32,33)         87.8334         calculate D2E/DX2 analytically  !
 ! D43   D(14,12,32,34)       -100.0365         calculate D2E/DX2 analytically  !
 ! D44   D(12,14,17,18)         65.4634         calculate D2E/DX2 analytically  !
 ! D45   D(12,14,17,23)       -104.1412         calculate D2E/DX2 analytically  !
 ! D46   D(15,14,17,18)        -58.6985         calculate D2E/DX2 analytically  !
 ! D47   D(15,14,17,23)        131.6969         calculate D2E/DX2 analytically  !
 ! D48   D(16,14,17,18)       -172.4713         calculate D2E/DX2 analytically  !
 ! D49   D(16,14,17,23)         17.9241         calculate D2E/DX2 analytically  !
 ! D50   D(14,17,18,19)          4.6861         calculate D2E/DX2 analytically  !
 ! D51   D(14,17,18,20)       -170.7692         calculate D2E/DX2 analytically  !
 ! D52   D(23,17,18,19)        175.5597         calculate D2E/DX2 analytically  !
 ! D53   D(23,17,18,20)          0.1044         calculate D2E/DX2 analytically  !
 ! D54   D(14,17,23,22)        175.2812         calculate D2E/DX2 analytically  !
 ! D55   D(14,17,23,24)        -22.287          calculate D2E/DX2 analytically  !
 ! D56   D(18,17,23,22)          3.6169         calculate D2E/DX2 analytically  !
 ! D57   D(18,17,23,24)        166.0487         calculate D2E/DX2 analytically  !
 ! D58   D(17,18,20,21)        179.6931         calculate D2E/DX2 analytically  !
 ! D59   D(17,18,20,22)         -3.831          calculate D2E/DX2 analytically  !
 ! D60   D(19,18,20,21)          3.472          calculate D2E/DX2 analytically  !
 ! D61   D(19,18,20,22)        179.9478         calculate D2E/DX2 analytically  !
 ! D62   D(18,20,22,23)          6.1103         calculate D2E/DX2 analytically  !
 ! D63   D(18,20,22,28)       -179.2636         calculate D2E/DX2 analytically  !
 ! D64   D(21,20,22,23)       -177.1023         calculate D2E/DX2 analytically  !
 ! D65   D(21,20,22,28)         -2.4763         calculate D2E/DX2 analytically  !
 ! D66   D(20,22,23,17)         -5.901          calculate D2E/DX2 analytically  !
 ! D67   D(20,22,23,24)       -171.9972         calculate D2E/DX2 analytically  !
 ! D68   D(28,22,23,17)        178.8906         calculate D2E/DX2 analytically  !
 ! D69   D(28,22,23,24)         12.7943         calculate D2E/DX2 analytically  !
 ! D70   D(20,22,28,29)         -6.9427         calculate D2E/DX2 analytically  !
 ! D71   D(20,22,28,30)        179.888          calculate D2E/DX2 analytically  !
 ! D72   D(23,22,28,29)        167.0714         calculate D2E/DX2 analytically  !
 ! D73   D(23,22,28,30)         -6.0978         calculate D2E/DX2 analytically  !
 ! D74   D(17,23,24,25)         12.1957         calculate D2E/DX2 analytically  !
 ! D75   D(17,23,24,26)       -170.8549         calculate D2E/DX2 analytically  !
 ! D76   D(22,23,24,25)        173.1761         calculate D2E/DX2 analytically  !
 ! D77   D(22,23,24,26)         -9.8744         calculate D2E/DX2 analytically  !
 ! D78   D(23,24,26,27)       -176.9004         calculate D2E/DX2 analytically  !
 ! D79   D(23,24,26,30)          0.5951         calculate D2E/DX2 analytically  !
 ! D80   D(25,24,26,27)          0.201          calculate D2E/DX2 analytically  !
 ! D81   D(25,24,26,30)        177.6965         calculate D2E/DX2 analytically  !
 ! D82   D(24,26,30,28)          6.615          calculate D2E/DX2 analytically  !
 ! D83   D(24,26,30,31)       -161.9223         calculate D2E/DX2 analytically  !
 ! D84   D(27,26,30,28)       -175.7172         calculate D2E/DX2 analytically  !
 ! D85   D(27,26,30,31)         15.7455         calculate D2E/DX2 analytically  !
 ! D86   D(22,28,30,26)         -3.7629         calculate D2E/DX2 analytically  !
 ! D87   D(22,28,30,31)        166.1996         calculate D2E/DX2 analytically  !
 ! D88   D(29,28,30,26)       -176.2265         calculate D2E/DX2 analytically  !
 ! D89   D(29,28,30,31)         -6.264          calculate D2E/DX2 analytically  !
 ! D90   D(12,32,34,35)         -4.5887         calculate D2E/DX2 analytically  !
 ! D91   D(33,32,34,35)        167.0614         calculate D2E/DX2 analytically  !
 ! D92   D(33,32,34,36)         -9.4666         calculate D2E/DX2 analytically  !
 ! D93   D(32,34,36,37)        171.1805         calculate D2E/DX2 analytically  !
 ! D94   D(32,34,36,38)        -72.8698         calculate D2E/DX2 analytically  !
 ! D95   D(35,34,36,37)         -5.7456         calculate D2E/DX2 analytically  !
 ! D96   D(35,34,36,38)        110.2041         calculate D2E/DX2 analytically  !
 ! D97   D(35,34,36,43)       -119.8192         calculate D2E/DX2 analytically  !
 ! D98   D(34,36,38,39)        -48.4212         calculate D2E/DX2 analytically  !
 ! D99   D(34,36,38,40)         69.3913         calculate D2E/DX2 analytically  !
 ! D100  D(34,36,38,41)       -170.2001         calculate D2E/DX2 analytically  !
 ! D101  D(37,36,38,39)         62.7999         calculate D2E/DX2 analytically  !
 ! D102  D(37,36,38,40)       -179.3876         calculate D2E/DX2 analytically  !
 ! D103  D(37,36,38,41)        -58.979          calculate D2E/DX2 analytically  !
 ! D104  D(43,36,38,39)       -177.751          calculate D2E/DX2 analytically  !
 ! D105  D(43,36,38,40)        -59.9385         calculate D2E/DX2 analytically  !
 ! D106  D(43,36,38,41)         60.4701         calculate D2E/DX2 analytically  !
 ! D107  D(34,36,43,44)         73.7319         calculate D2E/DX2 analytically  !
 ! D108  D(37,36,43,44)        -34.9956         calculate D2E/DX2 analytically  !
 ! D109  D(37,36,43,45)        142.0373         calculate D2E/DX2 analytically  !
 ! D110  D(38,36,43,44)       -154.3895         calculate D2E/DX2 analytically  !
 ! D111  D(38,36,43,45)         22.6433         calculate D2E/DX2 analytically  !
 ! D112  D(36,38,41,69)        -10.2184         calculate D2E/DX2 analytically  !
 ! D113  D(36,38,41,128)      -130.8821         calculate D2E/DX2 analytically  !
 ! D114  D(39,38,41,69)       -132.9161         calculate D2E/DX2 analytically  !
 ! D115  D(39,38,41,128)       106.4203         calculate D2E/DX2 analytically  !
 ! D116  D(40,38,41,69)        109.6342         calculate D2E/DX2 analytically  !
 ! D117  D(40,38,41,128)       -11.0295         calculate D2E/DX2 analytically  !
 ! D118  D(38,41,69,68)        150.927          calculate D2E/DX2 analytically  !
 ! D119  D(128,41,69,68)       -89.1869         calculate D2E/DX2 analytically  !
 ! D120  D(38,41,128,115)       27.8464         calculate D2E/DX2 analytically  !
 ! D121  D(38,41,128,117)      -84.8507         calculate D2E/DX2 analytically  !
 ! D122  D(38,41,128,125)      176.643          calculate D2E/DX2 analytically  !
 ! D123  D(69,41,128,115)      -99.2022         calculate D2E/DX2 analytically  !
 ! D124  D(69,41,128,117)      148.1007         calculate D2E/DX2 analytically  !
 ! D125  D(69,41,128,125)       49.5944         calculate D2E/DX2 analytically  !
 ! D126  D(117,42,98,96)       113.2009         calculate D2E/DX2 analytically  !
 ! D127  D(117,42,98,99)       -62.8631         calculate D2E/DX2 analytically  !
 ! D128  D(98,42,117,103)       87.0067         calculate D2E/DX2 analytically  !
 ! D129  D(98,42,117,128)     -148.4658         calculate D2E/DX2 analytically  !
 ! D130  D(36,43,45,46)         -5.3458         calculate D2E/DX2 analytically  !
 ! D131  D(44,43,45,46)        171.5666         calculate D2E/DX2 analytically  !
 ! D132  D(44,43,45,47)         -8.4442         calculate D2E/DX2 analytically  !
 ! D133  D(43,45,47,48)         59.8015         calculate D2E/DX2 analytically  !
 ! D134  D(43,45,47,49)       -179.2672         calculate D2E/DX2 analytically  !
 ! D135  D(43,45,47,149)       -58.3359         calculate D2E/DX2 analytically  !
 ! D136  D(46,45,47,48)       -120.2097         calculate D2E/DX2 analytically  !
 ! D137  D(46,45,47,49)          0.7216         calculate D2E/DX2 analytically  !
 ! D138  D(46,45,47,149)       121.6529         calculate D2E/DX2 analytically  !
 ! D139  D(45,47,49,50)        -35.6304         calculate D2E/DX2 analytically  !
 ! D140  D(45,47,49,51)         86.5742         calculate D2E/DX2 analytically  !
 ! D141  D(45,47,49,52)       -149.8104         calculate D2E/DX2 analytically  !
 ! D142  D(48,47,49,50)         85.3009         calculate D2E/DX2 analytically  !
 ! D143  D(48,47,49,51)       -152.4945         calculate D2E/DX2 analytically  !
 ! D144  D(48,47,49,52)        -28.8791         calculate D2E/DX2 analytically  !
 ! D145  D(149,47,49,50)      -156.5617         calculate D2E/DX2 analytically  !
 ! D146  D(149,47,49,51)       -34.3571         calculate D2E/DX2 analytically  !
 ! D147  D(149,47,49,52)        89.2582         calculate D2E/DX2 analytically  !
 ! D148  D(47,49,52,53)         50.1863         calculate D2E/DX2 analytically  !
 ! D149  D(47,49,52,54)        -62.9674         calculate D2E/DX2 analytically  !
 ! D150  D(47,49,52,55)        171.6869         calculate D2E/DX2 analytically  !
 ! D151  D(50,49,52,53)        -69.008          calculate D2E/DX2 analytically  !
 ! D152  D(50,49,52,54)        177.8383         calculate D2E/DX2 analytically  !
 ! D153  D(50,49,52,55)         52.4926         calculate D2E/DX2 analytically  !
 ! D154  D(51,49,52,53)        179.023          calculate D2E/DX2 analytically  !
 ! D155  D(51,49,52,54)         65.8693         calculate D2E/DX2 analytically  !
 ! D156  D(51,49,52,55)        -59.4764         calculate D2E/DX2 analytically  !
 ! D157  D(49,52,55,56)       -112.4684         calculate D2E/DX2 analytically  !
 ! D158  D(53,52,55,56)         10.726          calculate D2E/DX2 analytically  !
 ! D159  D(54,52,55,56)        122.821          calculate D2E/DX2 analytically  !
 ! D160  D(52,55,56,57)        -67.3702         calculate D2E/DX2 analytically  !
 ! D161  D(52,55,56,58)         51.988          calculate D2E/DX2 analytically  !
 ! D162  D(52,55,56,59)        166.3209         calculate D2E/DX2 analytically  !
 ! D163  D(61,60,62,63)         51.6549         calculate D2E/DX2 analytically  !
 ! D164  D(61,60,62,64)        -59.4637         calculate D2E/DX2 analytically  !
 ! D165  D(61,60,62,65)        173.6657         calculate D2E/DX2 analytically  !
 ! D166  D(147,60,62,63)       -68.3451         calculate D2E/DX2 analytically  !
 ! D167  D(147,60,62,64)      -179.4637         calculate D2E/DX2 analytically  !
 ! D168  D(147,60,62,65)        53.6657         calculate D2E/DX2 analytically  !
 ! D169  D(148,60,62,63)       171.6549         calculate D2E/DX2 analytically  !
 ! D170  D(148,60,62,64)        60.5363         calculate D2E/DX2 analytically  !
 ! D171  D(148,60,62,65)       -66.3343         calculate D2E/DX2 analytically  !
 ! D172  D(60,62,65,66)        -91.9351         calculate D2E/DX2 analytically  !
 ! D173  D(60,62,65,71)         91.296          calculate D2E/DX2 analytically  !
 ! D174  D(63,62,65,66)         25.8617         calculate D2E/DX2 analytically  !
 ! D175  D(63,62,65,71)       -150.9073         calculate D2E/DX2 analytically  !
 ! D176  D(64,62,65,66)        143.5807         calculate D2E/DX2 analytically  !
 ! D177  D(64,62,65,71)        -33.1882         calculate D2E/DX2 analytically  !
 ! D178  D(62,65,66,67)         -9.1157         calculate D2E/DX2 analytically  !
 ! D179  D(62,65,66,68)        172.2162         calculate D2E/DX2 analytically  !
 ! D180  D(71,65,66,67)        168.1791         calculate D2E/DX2 analytically  !
 ! D181  D(71,65,66,68)        -10.489          calculate D2E/DX2 analytically  !
 ! D182  D(62,65,71,70)       -171.1951         calculate D2E/DX2 analytically  !
 ! D183  D(62,65,71,72)          7.4839         calculate D2E/DX2 analytically  !
 ! D184  D(66,65,71,70)         11.7109         calculate D2E/DX2 analytically  !
 ! D185  D(66,65,71,72)       -169.6101         calculate D2E/DX2 analytically  !
 ! D186  D(65,66,68,69)        176.3707         calculate D2E/DX2 analytically  !
 ! D187  D(65,66,68,70)          4.5206         calculate D2E/DX2 analytically  !
 ! D188  D(67,66,68,69)         -1.9921         calculate D2E/DX2 analytically  !
 ! D189  D(67,66,68,70)       -173.8422         calculate D2E/DX2 analytically  !
 ! D190  D(66,68,69,41)        -68.6778         calculate D2E/DX2 analytically  !
 ! D191  D(70,68,69,41)        101.6715         calculate D2E/DX2 analytically  !
 ! D192  D(66,68,70,71)          3.0167         calculate D2E/DX2 analytically  !
 ! D193  D(66,68,70,76)       -175.664          calculate D2E/DX2 analytically  !
 ! D194  D(69,68,70,71)       -168.9111         calculate D2E/DX2 analytically  !
 ! D195  D(69,68,70,76)         12.4082         calculate D2E/DX2 analytically  !
 ! D196  D(68,70,71,65)         -8.8914         calculate D2E/DX2 analytically  !
 ! D197  D(68,70,71,72)        172.3066         calculate D2E/DX2 analytically  !
 ! D198  D(76,70,71,65)        169.9166         calculate D2E/DX2 analytically  !
 ! D199  D(76,70,71,72)         -8.8854         calculate D2E/DX2 analytically  !
 ! D200  D(68,70,76,77)         -5.7738         calculate D2E/DX2 analytically  !
 ! D201  D(68,70,76,78)       -176.1061         calculate D2E/DX2 analytically  !
 ! D202  D(71,70,76,77)        175.6743         calculate D2E/DX2 analytically  !
 ! D203  D(71,70,76,78)          5.342          calculate D2E/DX2 analytically  !
 ! D204  D(65,71,72,73)         -0.4938         calculate D2E/DX2 analytically  !
 ! D205  D(65,71,72,74)       -173.4465         calculate D2E/DX2 analytically  !
 ! D206  D(70,71,72,73)        177.9396         calculate D2E/DX2 analytically  !
 ! D207  D(70,71,72,74)          4.9868         calculate D2E/DX2 analytically  !
 ! D208  D(71,72,74,75)       -173.0388         calculate D2E/DX2 analytically  !
 ! D209  D(71,72,74,78)          1.559          calculate D2E/DX2 analytically  !
 ! D210  D(73,72,74,75)         14.4164         calculate D2E/DX2 analytically  !
 ! D211  D(73,72,74,78)       -170.9859         calculate D2E/DX2 analytically  !
 ! D212  D(72,74,78,76)         -4.6147         calculate D2E/DX2 analytically  !
 ! D213  D(72,74,78,79)       -176.6198         calculate D2E/DX2 analytically  !
 ! D214  D(75,74,78,76)        170.3495         calculate D2E/DX2 analytically  !
 ! D215  D(75,74,78,79)         -1.6555         calculate D2E/DX2 analytically  !
 ! D216  D(70,76,78,74)          1.0245         calculate D2E/DX2 analytically  !
 ! D217  D(70,76,78,79)        173.5814         calculate D2E/DX2 analytically  !
 ! D218  D(77,76,78,74)       -169.9641         calculate D2E/DX2 analytically  !
 ! D219  D(77,76,78,79)          2.5928         calculate D2E/DX2 analytically  !
 ! D220  D(81,80,82,83)       -171.7891         calculate D2E/DX2 analytically  !
 ! D221  D(81,80,82,84)         71.9141         calculate D2E/DX2 analytically  !
 ! D222  D(81,80,82,85)        -37.0528         calculate D2E/DX2 analytically  !
 ! D223  D(141,80,82,83)       -58.1745         calculate D2E/DX2 analytically  !
 ! D224  D(141,80,82,84)      -174.4713         calculate D2E/DX2 analytically  !
 ! D225  D(141,80,82,85)        76.5618         calculate D2E/DX2 analytically  !
 ! D226  D(142,80,82,83)        70.4497         calculate D2E/DX2 analytically  !
 ! D227  D(142,80,82,84)       -45.8471         calculate D2E/DX2 analytically  !
 ! D228  D(142,80,82,85)      -154.814          calculate D2E/DX2 analytically  !
 ! D229  D(80,82,85,86)          8.9279         calculate D2E/DX2 analytically  !
 ! D230  D(80,82,85,87)        179.0365         calculate D2E/DX2 analytically  !
 ! D231  D(83,82,85,86)        141.4833         calculate D2E/DX2 analytically  !
 ! D232  D(83,82,85,87)        -48.408          calculate D2E/DX2 analytically  !
 ! D233  D(84,82,85,86)       -101.1903         calculate D2E/DX2 analytically  !
 ! D234  D(84,82,85,87)         68.9184         calculate D2E/DX2 analytically  !
 ! D235  D(82,85,87,94)       -172.5385         calculate D2E/DX2 analytically  !
 ! D236  D(86,85,87,94)         -2.917          calculate D2E/DX2 analytically  !
 ! D237  D(85,87,93,95)         64.7865         calculate D2E/DX2 analytically  !
 ! D238  D(85,87,93,96)       -135.3445         calculate D2E/DX2 analytically  !
 ! D239  D(89,88,90,91)         70.042          calculate D2E/DX2 analytically  !
 ! D240  D(89,88,90,92)        177.7793         calculate D2E/DX2 analytically  !
 ! D241  D(89,88,90,95)        -49.0162         calculate D2E/DX2 analytically  !
 ! D242  D(101,88,90,91)      -175.301          calculate D2E/DX2 analytically  !
 ! D243  D(101,88,90,92)       -67.5636         calculate D2E/DX2 analytically  !
 ! D244  D(101,88,90,95)        65.6408         calculate D2E/DX2 analytically  !
 ! D245  D(146,88,90,91)       -54.782          calculate D2E/DX2 analytically  !
 ! D246  D(146,88,90,92)        52.9553         calculate D2E/DX2 analytically  !
 ! D247  D(146,88,90,95)      -173.8402         calculate D2E/DX2 analytically  !
 ! D248  D(89,88,101,102)       51.6161         calculate D2E/DX2 analytically  !
 ! D249  D(89,88,101,151)     -128.3839         calculate D2E/DX2 analytically  !
 ! D250  D(90,88,101,102)      -66.8017         calculate D2E/DX2 analytically  !
 ! D251  D(90,88,101,151)      113.1983         calculate D2E/DX2 analytically  !
 ! D252  D(146,88,101,102)     175.2299         calculate D2E/DX2 analytically  !
 ! D253  D(146,88,101,151)      -4.7701         calculate D2E/DX2 analytically  !
 ! D254  D(88,90,95,93)         99.2649         calculate D2E/DX2 analytically  !
 ! D255  D(88,90,95,99)       -104.3601         calculate D2E/DX2 analytically  !
 ! D256  D(91,90,95,93)        -20.512          calculate D2E/DX2 analytically  !
 ! D257  D(91,90,95,99)        135.863          calculate D2E/DX2 analytically  !
 ! D258  D(92,90,95,93)       -130.0898         calculate D2E/DX2 analytically  !
 ! D259  D(92,90,95,99)         26.2852         calculate D2E/DX2 analytically  !
 ! D260  D(94,93,95,90)        -24.9505         calculate D2E/DX2 analytically  !
 ! D261  D(94,93,95,99)        172.965          calculate D2E/DX2 analytically  !
 ! D262  D(96,93,95,90)        165.9213         calculate D2E/DX2 analytically  !
 ! D263  D(96,93,95,99)          3.8368         calculate D2E/DX2 analytically  !
 ! D264  D(94,93,96,97)          7.5589         calculate D2E/DX2 analytically  !
 ! D265  D(94,93,96,98)       -174.559          calculate D2E/DX2 analytically  !
 ! D266  D(95,93,96,97)        174.9471         calculate D2E/DX2 analytically  !
 ! D267  D(95,93,96,98)         -7.1708         calculate D2E/DX2 analytically  !
 ! D268  D(90,95,99,98)       -158.8439         calculate D2E/DX2 analytically  !
 ! D269  D(90,95,99,100)        13.3041         calculate D2E/DX2 analytically  !
 ! D270  D(93,95,99,98)          0.4655         calculate D2E/DX2 analytically  !
 ! D271  D(93,95,99,100)       172.6135         calculate D2E/DX2 analytically  !
 ! D272  D(93,96,98,42)       -169.2824         calculate D2E/DX2 analytically  !
 ! D273  D(93,96,98,99)          7.3017         calculate D2E/DX2 analytically  !
 ! D274  D(97,96,98,42)          8.8111         calculate D2E/DX2 analytically  !
 ! D275  D(97,96,98,99)       -174.6047         calculate D2E/DX2 analytically  !
 ! D276  D(42,98,99,95)        172.0272         calculate D2E/DX2 analytically  !
 ! D277  D(42,98,99,100)        -1.9942         calculate D2E/DX2 analytically  !
 ! D278  D(96,98,99,95)         -4.7943         calculate D2E/DX2 analytically  !
 ! D279  D(96,98,99,100)      -178.8158         calculate D2E/DX2 analytically  !
 ! D280  D(117,103,105,104)   -172.1709         calculate D2E/DX2 analytically  !
 ! D281  D(117,103,105,131)    -56.8376         calculate D2E/DX2 analytically  !
 ! D282  D(117,103,105,132)     66.7419         calculate D2E/DX2 analytically  !
 ! D283  D(129,103,105,104)     69.3136         calculate D2E/DX2 analytically  !
 ! D284  D(129,103,105,131)   -175.3531         calculate D2E/DX2 analytically  !
 ! D285  D(129,103,105,132)    -51.7736         calculate D2E/DX2 analytically  !
 ! D286  D(130,103,105,104)    -51.6422         calculate D2E/DX2 analytically  !
 ! D287  D(130,103,105,131)     63.6911         calculate D2E/DX2 analytically  !
 ! D288  D(130,103,105,132)   -172.7294         calculate D2E/DX2 analytically  !
 ! D289  D(105,103,117,42)    -130.685          calculate D2E/DX2 analytically  !
 ! D290  D(105,103,117,128)    112.3699         calculate D2E/DX2 analytically  !
 ! D291  D(129,103,117,42)     -16.9431         calculate D2E/DX2 analytically  !
 ! D292  D(129,103,117,128)   -133.8882         calculate D2E/DX2 analytically  !
 ! D293  D(130,103,117,42)     106.3169         calculate D2E/DX2 analytically  !
 ! D294  D(130,103,117,128)    -10.6282         calculate D2E/DX2 analytically  !
 ! D295  D(107,104,105,103)   -143.8912         calculate D2E/DX2 analytically  !
 ! D296  D(107,104,105,131)     98.0598         calculate D2E/DX2 analytically  !
 ! D297  D(107,104,105,132)    -19.6339         calculate D2E/DX2 analytically  !
 ! D298  D(105,104,107,109)    172.7511         calculate D2E/DX2 analytically  !
 ! D299  D(105,104,107,110)     -6.39           calculate D2E/DX2 analytically  !
 ! D300  D(104,107,109,111)     10.7046         calculate D2E/DX2 analytically  !
 ! D301  D(104,107,109,118)   -163.4039         calculate D2E/DX2 analytically  !
 ! D302  D(110,107,109,111)   -170.1154         calculate D2E/DX2 analytically  !
 ! D303  D(110,107,109,118)     15.7762         calculate D2E/DX2 analytically  !
 ! D304  D(144,108,120,106)     -4.6936         calculate D2E/DX2 analytically  !
 ! D305  D(144,108,120,114)    177.1506         calculate D2E/DX2 analytically  !
 ! D306  D(107,109,111,112)   -168.9988         calculate D2E/DX2 analytically  !
 ! D307  D(107,109,111,133)      1.4177         calculate D2E/DX2 analytically  !
 ! D308  D(118,109,111,112)      5.1555         calculate D2E/DX2 analytically  !
 ! D309  D(118,109,111,133)    175.572          calculate D2E/DX2 analytically  !
 ! D310  D(107,109,118,116)    171.9639         calculate D2E/DX2 analytically  !
 ! D311  D(107,109,118,136)      3.0435         calculate D2E/DX2 analytically  !
 ! D312  D(111,109,118,116)     -2.1422         calculate D2E/DX2 analytically  !
 ! D313  D(111,109,118,136)   -171.0626         calculate D2E/DX2 analytically  !
 ! D314  D(109,111,112,114)     -4.7797         calculate D2E/DX2 analytically  !
 ! D315  D(109,111,112,134)    177.1528         calculate D2E/DX2 analytically  !
 ! D316  D(133,111,112,114)   -174.5451         calculate D2E/DX2 analytically  !
 ! D317  D(133,111,112,134)      7.3874         calculate D2E/DX2 analytically  !
 ! D318  D(111,112,114,116)      1.2837         calculate D2E/DX2 analytically  !
 ! D319  D(111,112,114,120)   -177.3943         calculate D2E/DX2 analytically  !
 ! D320  D(134,112,114,116)    179.404          calculate D2E/DX2 analytically  !
 ! D321  D(134,112,114,120)      0.726          calculate D2E/DX2 analytically  !
[...]
     Eigenvalues ---    0.02351   0.02443   0.02459   0.02494   0.02513
     Eigenvalues ---    0.02604   0.02650   0.02703   0.02769   0.02817
     Eigenvalues ---    0.02855   0.02895   0.02918   0.02959   0.02987
     Eigenvalues ---    0.03069   0.03192   0.03219   0.03239   0.03340
     Eigenvalues ---    0.03461   0.03507   0.03564   0.03747   0.03803
     Eigenvalues ---    0.03860   0.03908   0.03930   0.04009   0.04097
     Eigenvalues ---    0.04132   0.04138   0.04177   0.04301   0.04326
     Eigenvalues ---    0.04351   0.04399   0.04470   0.04487   0.04520
     Eigenvalues ---    0.04523   0.04545   0.04562   0.04659   0.04707
     Eigenvalues ---    0.04764   0.04781   0.04861   0.04936   0.04958
     Eigenvalues ---    0.05175   0.05206   0.05294   0.05309   0.05444
     Eigenvalues ---    0.05530   0.05583   0.05697   0.05868   0.05941
     Eigenvalues ---    0.06007   0.06073   0.06410   0.06482   0.06575
     Eigenvalues ---    0.06718   0.06823   0.06916   0.06978   0.07249
     Eigenvalues ---    0.07334   0.07369   0.07590   0.07646   0.07911
     Eigenvalues ---    0.08001   0.08075   0.08132   0.08257   0.08326
     Eigenvalues ---    0.08599   0.08776   0.08839   0.09167   0.09207
     Eigenvalues ---    0.09481   0.09563   0.09738   0.09880   0.09910
     Eigenvalues ---    0.10014   0.10093   0.10131   0.10333   0.10339
     Eigenvalues ---    0.10385   0.10474   0.10512   0.10584   0.10597
     Eigenvalues ---    0.10622   0.10779   0.10848   0.10878   0.10910
     Eigenvalues ---    0.11015   0.11071   0.11155   0.11207   0.11360
     Eigenvalues ---    0.11506   0.11549   0.11646   0.11668   0.11705
     Eigenvalues ---    0.11835   0.11921   0.12103   0.12197   0.12291
     Eigenvalues ---    0.12295   0.12448   0.12684   0.12816   0.13028
     Eigenvalues ---    0.13328   0.13394   0.13570   0.13603   0.14017
     Eigenvalues ---    0.14169   0.14449   0.14598   0.14645   0.14812
     Eigenvalues ---    0.14959   0.15024   0.15283   0.15512   0.15560
     Eigenvalues ---    0.15650   0.15780   0.15892   0.16082   0.16380
     Eigenvalues ---    0.16576   0.17279   0.17420   0.17625   0.17692
     Eigenvalues ---    0.17858   0.18042   0.18652   0.18690   0.18718
     Eigenvalues ---    0.18742   0.18763   0.19023   0.19252   0.19325
     Eigenvalues ---    0.19338   0.19464   0.20059   0.20162   0.20299
     Eigenvalues ---    0.20334   0.20546   0.20704   0.20785   0.21466
     Eigenvalues ---    0.21698   0.22191   0.22266   0.22530   0.22654
     Eigenvalues ---    0.22795   0.22913   0.23114   0.23247   0.23430
     Eigenvalues ---    0.23542   0.23910   0.24145   0.24209   0.24341
     Eigenvalues ---    0.24705   0.25116   0.25332   0.25505   0.25603
     Eigenvalues ---    0.25928   0.26270   0.26498   0.26825   0.27048
     Eigenvalues ---    0.27168   0.27260   0.27289   0.27461   0.27657
     Eigenvalues ---    0.27840   0.28051   0.28905   0.29098   0.29381
     Eigenvalues ---    0.29637   0.30059   0.30713   0.31001   0.31047
     Eigenvalues ---    0.31104   0.31441   0.31519   0.31871   0.31971
     Eigenvalues ---    0.32043   0.32106   0.32177   0.32266   0.32284
     Eigenvalues ---    0.32316   0.32400   0.32527   0.32596   0.32652
     Eigenvalues ---    0.32688   0.32796   0.32889   0.32920   0.33102
     Eigenvalues ---    0.33188   0.33586   0.33853   0.34025   0.34260
     Eigenvalues ---    0.34280   0.34346   0.34724   0.34869   0.34928
     Eigenvalues ---    0.35251   0.35394   0.35704   0.35908   0.36288
     Eigenvalues ---    0.36601   0.36876   0.36999   0.37817   0.38019
     Eigenvalues ---    0.38244   0.38266   0.38385   0.38448   0.38543
     Eigenvalues ---    0.38709   0.38844   0.38885   0.38919   0.38960
     Eigenvalues ---    0.39008   0.39195   0.39497   0.39537   0.39861
     Eigenvalues ---    0.40190   0.40281   0.40463   0.40521   0.40628
     Eigenvalues ---    0.40844   0.40858   0.40918   0.40944   0.41059
     Eigenvalues ---    0.41067   0.41081   0.41142   0.41184   0.41618
     Eigenvalues ---    0.41695   0.41953   0.42624   0.42987   0.43386
     Eigenvalues ---    0.43509   0.44201   0.44404   0.44578   0.45496
     Eigenvalues ---    0.45521   0.45787   0.46121   0.46525   0.46644
     Eigenvalues ---    0.47051   0.47749   0.47946   0.48870   0.48985
     Eigenvalues ---    0.49165   0.49309   0.50575   0.51244   0.51411
     Eigenvalues ---    0.51845   0.52811   0.53028   0.53197   0.53365
     Eigenvalues ---    0.54206   0.54844   0.55227   0.56186   0.56346
     Eigenvalues ---    0.58021   0.60580   0.61540   0.61717   0.61855
     Eigenvalues ---    0.65038   0.68749   0.71922   0.77439   0.81453
     Eigenvalues ---    0.87261   1.44135   3.410971000.000001000.00000
     Eigenvalues --- 1000.000001000.000001000.000001000.000001000.00000
     Eigenvalues --- 1000.000001000.000001000.000001000.000001000.00000
     Eigenvalues --- 1000.000001000.000001000.000001000.000001000.00000
     Eigenvalues --- 1000.000001000.000001000.000001000.000001000.00000
     Eigenvalues --- 1000.000001000.000001000.000001000.000001000.00000
     Eigenvalues --- 1000.000001000.000001000.000001000.000001000.00000
     Eigenvalues --- 1000.000001000.000001000.000001000.000001000.00000
     Eigenvalues --- 1000.000001000.000001000.000001000.000001000.00000
     Eigenvalues --- 1000.000001000.000001000.000001000.000001000.00000
     Eigenvalues --- 1000.000001000.000001000.000001000.000001000.00000
     Eigenvalues --- 1000.000001000.000001000.000001000.000001000.00000
     Eigenvalues --- 1000.000001000.000001000.000001000.000001000.00000
     Eigenvalues --- 1000.000001000.000001000.000001000.000001000.00000
     Eigenvalues --- 1000.000001000.000001000.000001000.000001000.00000
     Eigenvalues --- 1000.000001000.000001000.000001000.000001000.00000
     Eigenvalues --- 1000.000001000.000001000.000001000.000001000.00000
     Eigenvalues --- 1000.000001000.000001000.000001000.000001000.00000
     Eigenvalues --- 1000.000001000.000001000.000001000.000001000.00000
     Eigenvalues --- 1000.000001000.000001000.000001000.000001000.00000
     Eigenvalues --- 1000.000001000.000001000.000001000.000001000.00000
     Eigenvalues --- 1000.000001000.000001000.000001000.000001000.00000
     Eigenvalues --- 1000.000001000.000001000.000001000.000001000.00000
     Eigenvalues --- 1000.000001000.000001000.000001000.000001000.00000
     Eigenvalues --- 1000.000001000.000001000.000001000.000001000.00000
     Eigenvalues --- 1000.000001000.000001000.000001000.000001000.00000
     Eigenvalues --- 1000.000001000.000001000.000001000.000001000.00000
     Eigenvalues --- 1000.000001000.000001000.000001000.000001000.00000
     Eigenvalues --- 1000.000001000.000001000.000001000.000001000.00000
     Eigenvalues --- 1000.000001000.000001000.000001000.000001000.00000
     Eigenvalues --- 1000.000001000.000001000.000001000.000001000.00000
     Eigenvalues --- 1000.000001000.000001000.000001000.000001000.00000
     Eigenvalues --- 1000.000001000.000001000.000001000.000001000.00000
     Eigenvalues --- 1000.000001000.000001000.000001000.000001000.00000
     Eigenvalues --- 1000.000001000.000001000.000001000.000001000.00000
     Eigenvalues --- 1000.000001000.000001000.000001000.000001000.00000
     Eigenvalues --- 1000.000001000.000001000.000001000.000001000.00000
     Eigenvalues --- 1000.000001000.000001000.000001000.000001000.00000
     Eigenvalues --- 1000.000001000.000001000.000001000.000001000.00000
     Eigenvalues --- 1000.000001000.000001000.000001000.000001000.00000
     Eigenvalues --- 1000.000001000.000001000.000001000.000001000.00000
     Eigenvalues --- 1000.000001000.000001000.000001000.000001000.00000
     Eigenvalues --- 1000.000001000.000001000.000001000.000001000.00000
     Eigenvalues --- 1000.000001000.000001000.000001000.000001000.00000
     Eigenvalues --- 1000.000001000.000001000.000001000.000001000.00000
     Eigenvalues --- 1000.000001000.000001000.000001000.000001000.00000
     Eigenvalues --- 1000.000001000.000001000.000001000.000001000.00000
     Eigenvalues --- 1000.000001000.000001000.000001000.000001000.00000
     Eigenvalues --- 1000.000001000.000001000.000001000.000001000.00000
     Eigenvalues --- 1000.000001000.000001000.000001000.000001000.00000
     Eigenvalues --- 1000.000001000.000001000.000001000.000001000.00000
     Eigenvalues --- 1000.000001000.000001000.000001000.000001000.00000
     Eigenvalues --- 1000.000001000.000001000.000001000.000001000.00000
     Eigenvalues --- 1000.000001000.000001000.000001000.000001000.00000
     Eigenvalues --- 1000.000001000.000001000.000001000.000001000.00000
     Eigenvalues --- 1000.000001000.000001000.000001000.000001000.00000
     Eigenvalues --- 1000.000001000.000001000.000001000.000001000.00000
     Eigenvalues --- 1000.000001000.000001000.000001000.000001000.00000
     Eigenvalues --- 1000.000001000.000001000.000001000.000001000.00000
     Eigenvalues --- 1000.000001000.000001000.000001000.000001000.00000
     Eigenvalues --- 1000.000001000.000001000.000001000.000001000.00000
     Eigenvalues --- 1000.000001000.000001000.000001000.000001000.00000
     Eigenvalues --- 1000.000001000.000001000.000001000.000001000.00000
     Eigenvalues --- 1000.000001000.000001000.000001000.000001000.00000
     Eigenvalues --- 1000.000001000.000001000.000001000.000001000.00000
     Eigenvalues --- 1000.000001000.000001000.000001000.000001000.00000
     Eigenvalues --- 1000.000001000.000001000.000001000.000001000.00000
     Eigenvalues --- 1000.000001000.000001000.000001000.000001000.00000
     Eigenvalues --- 1000.000001000.000001000.000001000.000001000.00000
     Eigenvalues --- 1000.000001000.000001000.000001000.000001000.00000
     Eigenvalues --- 1000.000001000.000001000.000001000.000001000.00000
     Eigenvalues --- 1000.000001000.000001000.000001000.000001000.00000
     Eigenvalues --- 1000.000001000.000001000.000001000.000001000.00000
     Eigenvalues --- 1000.000001000.000001000.000001000.000001000.00000
     Eigenvalues --- 1000.000001000.000001000.000001000.000001000.00000
     Eigenvalues --- 1000.000001000.000001000.000001000.000001000.00000
     Eigenvalues --- 1000.000001000.000001000.000001000.000001000.00000
     Eigenvalues --- 1000.000001000.000001000.000001000.000001000.00000
     Eigenvalues --- 1000.000001000.000001000.000001000.000001000.00000
     Eigenvalues --- 1000.000001000.000001000.000001000.000001000.00000
     Eigenvalues --- 1000.000001000.000001000.000001000.000001000.00000
     Eigenvalues --- 1000.000001000.000001000.000001000.000001000.00000
     Eigenvalues --- 1000.000001000.000001000.000001000.000001000.00000
     Eigenvalues --- 1000.000001000.000001000.000001000.000001000.00000
     Eigenvalues --- 1000.000001000.000001000.000001000.000001000.00000
     Eigenvalues --- 1000.000001000.000001000.000001000.000001000.00000
     Eigenvalues --- 1000.000001000.000001000.000001000.000001000.00000
     Eigenvalues --- 1000.000001000.000001000.000001000.000001000.00000
     Eigenvalues --- 1000.000001000.000001000.000001000.000001000.00000
     Eigenvalues --- 1000.000001000.000001000.000001000.000001000.00000
     Eigenvalues --- 1000.00000
 Eigenvectors required to have negative eigenvalues:
                          A28       R36       R18       D43       D32
   1                    0.44211  -0.26808   0.26506  -0.26269  -0.22725
                          A31       A22       R13       D42       A26
   1                   -0.22594  -0.21514   0.21333  -0.18934  -0.16621
 RFO step:  Lambda0=4.219662757D-05 Lambda=-1.21689690D-02.
 Linear search not attempted -- option 19 set.
 Maximum step size (   0.300) exceeded in Quadratic search.
    -- Step size scaled by   0.607
 Iteration  1 RMS(Cart)=  0.10114852 RMS(Int)=  0.00430149
 Iteration  2 RMS(Cart)=  0.00873506 RMS(Int)=  0.00029266
 Iteration  3 RMS(Cart)=  0.00007484 RMS(Int)=  0.00029188
 New curvilinear step failed, DQL= 9.87D-05 SP=-5.73D-05.
 ITry= 1 IFail=1 DXMaxC= 8.86D-01 DCOld= 1.00D+10 DXMaxT= 3.00D-01 DXLimC= 3.00D+00 Rises=F
 Iteration  1 RMS(Cart)=  0.09147794 RMS(Int)=  0.00351092
 Iteration  2 RMS(Cart)=  0.00702049 RMS(Int)=  0.00023683
 Iteration  3 RMS(Cart)=  0.00004622 RMS(Int)=  0.00023644
 New curvilinear step failed, DQL= 8.84D-05 SP=-7.23D-05.
 ITry= 2 IFail=1 DXMaxC= 8.03D-01 DCOld= 1.00D+10 DXMaxT= 3.00D-01 DXLimC= 3.00D+00 Rises=F
 Iteration  1 RMS(Cart)=  0.08166804 RMS(Int)=  0.00279317
 Iteration  2 RMS(Cart)=  0.00550708 RMS(Int)=  0.00018700
 Iteration  3 RMS(Cart)=  0.00002669 RMS(Int)=  0.00018683
 New curvilinear step failed, DQL= 7.85D-05 SP=-3.92D-05.
 ITry= 3 IFail=1 DXMaxC= 7.18D-01 DCOld= 1.00D+10 DXMaxT= 3.00D-01 DXLimC= 3.00D+00 Rises=F
 Iteration  1 RMS(Cart)=  0.07173286 RMS(Int)=  0.00215152
 Iteration  2 RMS(Cart)=  0.00418844 RMS(Int)=  0.00014311
 Iteration  3 RMS(Cart)=  0.00001404 RMS(Int)=  0.00014304
 New curvilinear step failed, DQL= 6.86D-05 SP=-4.14D-05.
 ITry= 4 IFail=1 DXMaxC= 6.32D-01 DCOld= 1.00D+10 DXMaxT= 3.00D-01 DXLimC= 3.00D+00 Rises=F
 Iteration  1 RMS(Cart)=  0.06168724 RMS(Int)=  0.00158898
 Iteration  2 RMS(Cart)=  0.00305876 RMS(Int)=  0.00010511
 Iteration  3 RMS(Cart)=  0.00000645 RMS(Int)=  0.00010509
 New curvilinear step failed, DQL= 5.82D-05 SP=-1.57D-05.
 ITry= 5 IFail=1 DXMaxC= 5.45D-01 DCOld= 1.00D+10 DXMaxT= 3.00D-01 DXLimC= 3.00D+00 Rises=F
 Iteration  1 RMS(Cart)=  0.05154673 RMS(Int)=  0.00110828
 Iteration  2 RMS(Cart)=  0.00211277 RMS(Int)=  0.00007298
 Iteration  3 RMS(Cart)=  0.00000250 RMS(Int)=  0.00007297
 Iteration  4 RMS(Cart)=  0.00000434 RMS(Int)=  0.00007299
 Iteration  5 RMS(Cart)=  0.00000000 RMS(Int)=  0.00007299
 Iteration  1 RMS(Cart)=  0.00004967 RMS(Int)=  0.00006105
 Iteration  2 RMS(Cart)=  0.00003280 RMS(Int)=  0.00006234
 Iteration  3 RMS(Cart)=  0.00002466 RMS(Int)=  0.00006464
 Iteration  4 RMS(Cart)=  0.00001982 RMS(Int)=  0.00006728
 Iteration  5 RMS(Cart)=  0.00001660 RMS(Int)=  0.00006999
 Iteration  6 RMS(Cart)=  0.00001429 RMS(Int)=  0.00007265
 Iteration  7 RMS(Cart)=  0.00001257 RMS(Int)=  0.00007522
 Iteration  8 RMS(Cart)=  0.00001122 RMS(Int)=  0.00007768
 Iteration  9 RMS(Cart)=  0.00001014 RMS(Int)=  0.00008003
 Iteration 10 RMS(Cart)=  0.00000925 RMS(Int)=  0.00008228
 Iteration 11 RMS(Cart)=  0.00000851 RMS(Int)=  0.00008442
 Iteration 12 RMS(Cart)=  0.00000788 RMS(Int)=  0.00008646
 Iteration 13 RMS(Cart)=  0.00000734 RMS(Int)=  0.00008842
 Iteration 14 RMS(Cart)=  0.00000688 RMS(Int)=  0.00009029
 Iteration 15 RMS(Cart)=  0.00000647 RMS(Int)=  0.00009209
 Iteration 16 RMS(Cart)=  0.00000610 RMS(Int)=  0.00009381
 Iteration 17 RMS(Cart)=  0.00000578 RMS(Int)=  0.00009547
 Iteration 18 RMS(Cart)=  0.00000549 RMS(Int)=  0.00009706
 Iteration 19 RMS(Cart)=  0.00000523 RMS(Int)=  0.00009860
 Iteration 20 RMS(Cart)=  0.00000499 RMS(Int)=  0.00010009
 Iteration 21 RMS(Cart)=  0.00000477 RMS(Int)=  0.00010153
 Iteration 22 RMS(Cart)=  0.00000458 RMS(Int)=  0.00010292
 Iteration 23 RMS(Cart)=  0.00000440 RMS(Int)=  0.00010426
 Iteration 24 RMS(Cart)=  0.00000423 RMS(Int)=  0.00010557
 Iteration 25 RMS(Cart)=  0.00000408 RMS(Int)=  0.00010683
 Iteration 26 RMS(Cart)=  0.00000393 RMS(Int)=  0.00010807
 Iteration 27 RMS(Cart)=  0.00000380 RMS(Int)=  0.00010926
 Iteration 28 RMS(Cart)=  0.00000368 RMS(Int)=  0.00011043
 Iteration 29 RMS(Cart)=  0.00000356 RMS(Int)=  0.00011156
 Iteration 30 RMS(Cart)=  0.00000345 RMS(Int)=  0.00011267
 Iteration 31 RMS(Cart)=  0.00000335 RMS(Int)=  0.00011374
 Iteration 32 RMS(Cart)=  0.00000325 RMS(Int)=  0.00011480
 Iteration 33 RMS(Cart)=  0.00000316 RMS(Int)=  0.00011582
 Iteration 34 RMS(Cart)=  0.00000308 RMS(Int)=  0.00011683
 Iteration 35 RMS(Cart)=  0.00000300 RMS(Int)=  0.00011781
 Iteration 36 RMS(Cart)=  0.00000292 RMS(Int)=  0.00011877
 Iteration 37 RMS(Cart)=  0.00000285 RMS(Int)=  0.00011971
 Iteration 38 RMS(Cart)=  0.00000278 RMS(Int)=  0.00012063
 Iteration 39 RMS(Cart)=  0.00000271 RMS(Int)=  0.00012153
 Iteration 40 RMS(Cart)=  0.00000265 RMS(Int)=  0.00012241
 Iteration 41 RMS(Cart)=  0.00000259 RMS(Int)=  0.00012328
 Iteration 42 RMS(Cart)=  0.00000253 RMS(Int)=  0.00012413
 Iteration 43 RMS(Cart)=  0.00000248 RMS(Int)=  0.00012496
 Iteration 44 RMS(Cart)=  0.00000243 RMS(Int)=  0.00012578
 Iteration 45 RMS(Cart)=  0.00000238 RMS(Int)=  0.00012658
 Iteration 46 RMS(Cart)=  0.00000233 RMS(Int)=  0.00012737
 Iteration 47 RMS(Cart)=  0.00000229 RMS(Int)=  0.00012814
 Iteration 48 RMS(Cart)=  0.00000224 RMS(Int)=  0.00012891
 Iteration 49 RMS(Cart)=  0.00000220 RMS(Int)=  0.00012966
 Iteration 50 RMS(Cart)=  0.00000216 RMS(Int)=  0.00013039
 Iteration 51 RMS(Cart)=  0.00000212 RMS(Int)=  0.00013112
 Iteration 52 RMS(Cart)=  0.00000208 RMS(Int)=  0.00013183
 Iteration 53 RMS(Cart)=  0.00000205 RMS(Int)=  0.00013253
 Iteration 54 RMS(Cart)=  0.00000201 RMS(Int)=  0.00013323
 Iteration 55 RMS(Cart)=  0.00000198 RMS(Int)=  0.00013391
 Iteration 56 RMS(Cart)=  0.00000195 RMS(Int)=  0.00013458
 Iteration 57 RMS(Cart)=  0.00000191 RMS(Int)=  0.00013524
 Iteration 58 RMS(Cart)=  0.00000188 RMS(Int)=  0.00013589
 Iteration 59 RMS(Cart)=  0.00000185 RMS(Int)=  0.00013654
 Iteration 60 RMS(Cart)=  0.00000183 RMS(Int)=  0.00013717
 Iteration 61 RMS(Cart)=  0.00000180 RMS(Int)=  0.00013780
 Iteration 62 RMS(Cart)=  0.00000177 RMS(Int)=  0.00013841
 Iteration 63 RMS(Cart)=  0.00000175 RMS(Int)=  0.00013902
 Iteration 64 RMS(Cart)=  0.00000172 RMS(Int)=  0.00013962
 Iteration 65 RMS(Cart)=  0.00000170 RMS(Int)=  0.00014022
 Iteration 66 RMS(Cart)=  0.00000167 RMS(Int)=  0.00014080
 Iteration 67 RMS(Cart)=  0.00000165 RMS(Int)=  0.00014138
 Iteration 68 RMS(Cart)=  0.00000163 RMS(Int)=  0.00014195
 Iteration 69 RMS(Cart)=  0.00000161 RMS(Int)=  0.00014252
 Iteration 70 RMS(Cart)=  0.00000158 RMS(Int)=  0.00014308
 Iteration 71 RMS(Cart)=  0.00000156 RMS(Int)=  0.00014363
 Iteration 72 RMS(Cart)=  0.00000154 RMS(Int)=  0.00014417
 Iteration 73 RMS(Cart)=  0.00000152 RMS(Int)=  0.00014471
 Iteration 74 RMS(Cart)=  0.00000151 RMS(Int)=  0.00014524
 Iteration 75 RMS(Cart)=  0.00000149 RMS(Int)=  0.00014577
 Iteration 76 RMS(Cart)=  0.00000147 RMS(Int)=  0.00014629
 Iteration 77 RMS(Cart)=  0.00000145 RMS(Int)=  0.00014680
 Iteration 78 RMS(Cart)=  0.00000143 RMS(Int)=  0.00014731
 Iteration 79 RMS(Cart)=  0.00000142 RMS(Int)=  0.00014781
 Iteration 80 RMS(Cart)=  0.00000140 RMS(Int)=  0.00014831
 Iteration 81 RMS(Cart)=  0.00000139 RMS(Int)=  0.00014881
 Iteration 82 RMS(Cart)=  0.00000137 RMS(Int)=  0.00014929
 Iteration 83 RMS(Cart)=  0.00000135 RMS(Int)=  0.00014978
 Iteration 84 RMS(Cart)=  0.00000134 RMS(Int)=  0.00015025
 Iteration 85 RMS(Cart)=  0.00000133 RMS(Int)=  0.00015073
 Iteration 86 RMS(Cart)=  0.00000131 RMS(Int)=  0.00015120
 Iteration 87 RMS(Cart)=  0.00000130 RMS(Int)=  0.00015166
 Iteration 88 RMS(Cart)=  0.00000128 RMS(Int)=  0.00015212
 Iteration 89 RMS(Cart)=  0.00000127 RMS(Int)=  0.00015257
 Iteration 90 RMS(Cart)=  0.00000126 RMS(Int)=  0.00015302
 Iteration 91 RMS(Cart)=  0.00000124 RMS(Int)=  0.00015347
 Iteration 92 RMS(Cart)=  0.00000123 RMS(Int)=  0.00015391
 Iteration 93 RMS(Cart)=  0.00000122 RMS(Int)=  0.00015435
 Iteration 94 RMS(Cart)=  0.00000121 RMS(Int)=  0.00015478
 Iteration 95 RMS(Cart)=  0.00000120 RMS(Int)=  0.00015521
 Iteration 96 RMS(Cart)=  0.00000118 RMS(Int)=  0.00015564
 Iteration 97 RMS(Cart)=  0.00000117 RMS(Int)=  0.00015606
 Iteration 98 RMS(Cart)=  0.00000116 RMS(Int)=  0.00015648
 Iteration 99 RMS(Cart)=  0.00000115 RMS(Int)=  0.00015690
 Iteration100 RMS(Cart)=  0.00000114 RMS(Int)=  0.00015731
 New curvilinear step not converged.
 Error imposing constraints
 Error termination via Lnk1e in /nopt/nrel/apps/gaussian/g16B/g16/l103.exe at Fri Oct 11 02:27:11 2019.
 Job cpu time:      11 days  1 hours 37 minutes 26.4 seconds.
 Elapsed time:       0 days  7 hours 28 minutes 23.0 seconds.
 File lengths (MBytes):  RWF=  34443 Int=      0 D2E=      0 Chk=    230 Scr=      1
