 Entering Gaussian System, Link 0=g16
 Initial command:
 /nopt/nrel/apps/gaussian/g16B/g16/l1.exe "/dev/shm/Gau-301637.inp" -scrdir="/dev/shm/"
 Default is to use a total of  36 processors:
                               36 via shared-memory
                                1 via Linda
 Entering Link 1 = /nopt/nrel/apps/gaussian/g16B/g16/l1.exe PID=    301639.
  
 Copyright (c) 1988-2017, Gaussian, Inc.  All Rights Reserved.
  
 This is part of the Gaussian(R) 16 program.  It is based on
 the Gaussian(R) 09 system (copyright 2009, Gaussian, Inc.),
 the Gaussian(R) 03 system (copyright 2003, Gaussian, Inc.),
 the Gaussian(R) 98 system (copyright 1998, Gaussian, Inc.),
 the Gaussian(R) 94 system (copyright 1995, Gaussian, Inc.),
 the Gaussian 92(TM) system (copyright 1992, Gaussian, Inc.),
 the Gaussian 90(TM) system (copyright 1990, Gaussian, Inc.),
 the Gaussian 88(TM) system (copyright 1988, Gaussian, Inc.),
 the Gaussian 86(TM) system (copyright 1986, Carnegie Mellon
 University), and the Gaussian 82(TM) system (copyright 1983,
 Carnegie Mellon University). Gaussian is a federally registered
 trademark of Gaussian, Inc.
  
 This software contains proprietary and confidential information,
 including trade secrets, belonging to Gaussian, Inc.
  
 This software is provided under written license and may be
 used, copied, transmitted, or stored only in accord with that
 written license.
  
 The following legend is applicable only to US Government
 contracts under FAR:
  
                    RESTRICTED RIGHTS LEGEND
  
 Use, reproduction and disclosure by the US Government is
 subject to restrictions as set forth in subparagraphs (a)
 and (c) of the Commercial Computer Software - Restricted
 Rights clause in FAR 52.227-19.
  
 Gaussian, Inc.
 340 Quinnipiac St., Bldg. 40, Wallingford CT 06492
  
  
 ---------------------------------------------------------------
 Warning -- This program may not be used in any manner that
 competes with the business of Gaussian, Inc. or will provide
 assistance to any competitor of Gaussian, Inc.  The licensee
 of this program is prohibited from giving any competitor of
 Gaussian, Inc. access to this program.  By using this program,
 the user acknowledges that Gaussian, Inc. is engaged in the
 business of creating and licensing software in the field of
 computational chemistry and represents and warrants to the
 licensee that it is not a competitor of Gaussian, Inc. and that
 it will not use this program in any manner prohibited above.
 ---------------------------------------------------------------
  

 Cite this work as:
 Gaussian 16, Revision B.01,
 M. J. Frisch, G. W. Trucks, H. B. Schlegel, G. E. Scuseria, 
 M. A. Robb, J. R. Cheeseman, G. Scalmani, V. Barone, 
 G. A. Petersson, H. Nakatsuji, X. Li, M. Caricato, A. V. Marenich, 
 J. Bloino, B. G. Janesko, R. Gomperts, B. Mennucci, H. P. Hratchian, 
 J. V. Ortiz, A. F. Izmaylov, J. L. Sonnenberg, D. Williams-Young, 
 F. Ding, F. Lipparini, F. Egidi, J. Goings, B. Peng, A. Petrone, 
 T. Henderson, D. Ranasinghe, V. G. Zakrzewski, J. Gao, N. Rega, 
 G. Zheng, W. Liang, M. Hada, M. Ehara, K. Toyota, R. Fukuda, 
 J. Hasegawa, M. Ishida, T. Nakajima, Y. Honda, O. Kitao, H. Nakai, 
 T. Vreven, K. Throssell, J. A. Montgomery, Jr., J. E. Peralta, 
 F. Ogliaro, M. J. Bearpark, J. J. Heyd, E. N. Brothers, K. N. Kudin, 
 V. N. Staroverov, T. A. Keith, R. Kobayashi, J. Normand, 
 K. Raghavachari, A. P. Rendell, J. C. Burant, S. S. Iyengar, 
 J. Tomasi, M. Cossi, J. M. Millam, M. Klene, C. Adamo, R. Cammi, 
 J. W. Ochterski, R. L. Martin, K. Morokuma, O. Farkas, 
 J. B. Foresman, and D. J. Fox, Gaussian, Inc., Wallingford CT, 2016.
 
 ******************************************
 Gaussian 16:  ES64L-G16RevB.01 20-Dec-2017
                 7-Jul-2019 
 ******************************************
 %RWF=/dev/shm/,5GB,/tmp/scratch/963067/,-1
 %NoSave
 %OldChk=nylon66_dimer_49_69_f2.chk
 %Chk=/dev/shm/nylon66_dimer_49_69_f2_fb.chk
 Copying data from "nylon66_dimer_49_69_f2.chk" to current chk file "/dev/shm/nylon66_dimer_49_69_f2_fb.chk"
 IOpt=  2 FromEx=T IUOpen= 4 IOptOp= 5 NList=   0 IFRang= 0 IUIn= 4 IUOut= 2.
 Default route: CacheSize=180224 MaxDisk=256GB
 ----------------------------------------------------------------------
 # geom=allcheck guess=read m062x/Def2TZVP nosymm scf=xqc opt=ReadFC fr
 eq=NoRaman SCRF=(Solvent=FluoroBenzene)
 ----------------------------------------------------------------------
 1/4=180224,10=3,18=20,19=15,26=3,29=7,38=1/1,3;
 2/4=180224,9=110,12=2,15=1,40=1/2;
 3/4=180224,5=44,7=101,11=2,14=-4,25=1,30=1,70=2201,71=1,72=121,74=-55,116=-2/1,2,3;
 4/4=180224,5=1/1;
 5/4=180224,5=2,8=3,13=1,38=6,53=121/2,8;
 6/4=180224,7=2,8=2,9=2,10=2,28=1/1;
 7/4=180224,30=1/1,2,3,16;
 1/4=180224,18=20,19=15,26=3/3(2);
 2/4=180224,9=110,15=1/2;
 99/4=180224/99;
 2/4=180224,9=110,15=1/2;
 3/4=180224,5=44,7=101,11=2,14=-2,25=1,30=1,70=2205,71=1,72=121,74=-55/1,2,3;
 4/4=180224,5=5,16=3,69=1/1;
 5/4=180224,5=2,8=3,13=1,38=5,53=121/2,8;
 7/4=180224,30=1/1,2,3,16;
 1/4=180224,18=20,19=15,26=3/3(-5);
 2/4=180224,9=110,15=1/2;
 6/4=180224,7=2,8=2,9=2,10=2,19=2,28=1/1;
 99/4=180224,9=1/99;
 Structure from the checkpoint file:  "/dev/shm/nylon66_dimer_49_69_f2_fb.chk"
 ----------------------------------------------------------------------
 radical calculation of fragment 2 from fragment pair [49, 69] and nylo
 n66_dimer.com
 ----------------------------------------------------------------------
 Charge =  0 Multiplicity = 2
 Redundant internal coordinates found in file.  (old form).
 C,0,-0.1964980046,0.3693756347,1.3816375785
 C,0,0.7973818721,0.8736101213,2.4171174278
 C,0,0.1287210746,1.1991573625,3.7407940771
 C,0,0.272439958,2.4896162259,5.8165955032
 C,0,0.7549535991,1.5044547441,6.8740469968
 C,0,0.2141767839,1.8393086344,8.2573607444
 O,0,-0.8746417059,0.627478144,4.1203523588
 N,0,0.7346638664,2.1625356694,4.4804571357
 H,0,1.597067528,2.556617941,4.1465068343
 C,0,0.4865282269,-0.0515693887,0.0879280047
 C,0,-0.5104429861,-0.5559244588,-0.9409577995
 C,0,0.1414234692,-0.9772286563,-2.2288154166
 C,0,0.6458797859,0.2298590401,11.7763322327
 C,0,0.1493974805,1.205242038,10.7146840433
 C,0,0.6937872006,0.8721145765,9.3324630992
 O,0,1.3148536742,-0.9333656245,-2.4703663736
 O,0,-0.7615022163,-1.4270423905,-3.1220884643
 H,0,-0.2729036978,-1.6782337298,-3.9190400198
 H,0,-0.7520622419,-0.4656102398,1.8122737028
 H,0,-0.932927677,1.1521737011,1.1784065233
 H,0,1.5453411305,0.0996092662,2.6186238729
 H,0,1.3399337395,1.7452114478,2.0419919529
 H,0,-0.8181268865,2.494451742,5.7917770999
 H,0,0.6067285845,3.501147305,6.0538287688
 H,0,0.4334523049,0.5023828488,6.579168344
 H,0,1.8492943822,1.5012663703,6.8934843981
 H,0,-0.8802855574,1.8338025311,8.2274736928
 H,0,0.510414273,2.857260034,8.532818877
 H,0,1.2210999146,-0.8352076425,0.2890456166
 H,0,1.0475466569,0.7844574619,-0.3369232305
 H,0,-1.0769897434,-1.4113028227,-0.5630195105
 H,0,-1.2552905643,0.2067379051,-1.1847594835
 H,0,0.325956762,-0.7869534349,11.5413147222
 H,0,1.7367789325,0.2416367085,11.7980601343
 H,0,-0.9448752087,1.1938233771,10.6964601517
 H,0,0.4586138398,2.2118589088,11.0065616309
 H,0,0.4011446149,-0.1465939323,9.0558359515
 H,0,1.7881894636,0.8809832289,9.3643918234
 C,0,0.1474901007,2.9206892126,17.3964942197
 C,0,0.759489797,4.0158247409,18.2535227859
 C,0,0.2036610971,4.0213701299,19.6670899043
 C,0,0.049660468,5.2714548855,21.7676433446
 C,0,1.0516822101,4.6125864929,22.7076519913
 C,0,0.6136928186,4.6971940616,24.1634673897
 O,0,-0.3888850409,3.0727970216,20.1418960767
 N,0,0.4223628021,5.1628781502,20.3695808289
 H,0,0.9784817708,5.8877294853,19.9495553074
 C,0,0.7400760612,2.8957928803,15.993513341
 C,0,0.1699274101,1.8332623391,15.1337368822
 C,0,0.7712575065,1.5468367369,13.8378131027
 C,0,2.1687333705,3.477105367,27.5325916508
 C,0,1.16744184,4.1218102444,26.5788633978
 C,0,1.6060848994,4.0503006544,25.1217927854
 O,0,1.7542967584,2.1519253147,13.4286956725
 N,0,0.1812479474,0.5531325562,13.109591927
 H,0,-0.6745080188,0.1476817387,13.4463331722
 H,0,0.2996800455,1.9595076917,17.889689043
 H,0,-0.9342180037,3.0667527614,17.3434063519
 H,0,1.8427707363,3.8726396851,18.3264678592
 H,0,0.606521742,4.997375955,17.7960380803
 H,0,-0.9257335035,4.7966798845,21.8823730579
 H,0,-0.0632541941,6.3301479316,22.0082171336
 H,0,1.1615574177,3.5664618317,22.4110815013
 H,0,2.029922418,5.0882173704,22.5851928219
 H,0,-0.3627168225,4.2144661592,24.2744655996
 H,0,0.4720690661,5.746680651,24.4448008728
 H,0,1.8284350957,2.7706365547,16.0269187793
 H,0,0.5952852333,3.8672834081,15.5004197662
 H,0,-0.7035168329,1.2806117297,15.4596246026
 H,0,2.3197027009,2.4324890915,27.2476767551
 H,0,3.1405801526,3.9658191909,27.4223675084
 H,0,0.1955799265,3.6294906575,26.6941339893
 H,0,1.0211657378,5.168473754,26.8683250838
 H,0,1.7503728624,3.0030172033,24.836775486
 H,0,2.582483792,4.5344289482,25.0125211822
 N,0,1.8093351716,3.5084480743,28.9454876909
 H,0,0.9267602577,3.033241483,29.0949369713
 H,0,1.6822285742,4.4649453233,29.2554740819
 Recover connectivity data from disk.

 GradGradGradGradGradGradGradGradGradGradGradGradGradGradGradGradGradGrad
 Berny optimization.
 Initialization pass.
 Force constant matrix read from checkpoint file:
 "/dev/shm/nylon66_dimer_49_69_f2_fb.chk"
                           ----------------------------
                           !    Initial Parameters    !
                           ! (Angstroms and Degrees)  !
 --------------------------                            --------------------------
 ! Name  Definition              Value          Derivative Info.                !
 --------------------------------------------------------------------------------
 ! R1    R(1,2)                  1.5213         D2E/DX2 =    0.2982             !
 ! R2    R(1,10)                 1.5223         D2E/DX2 =    0.2973             !
 ! R3    R(1,19)                 1.0915         D2E/DX2 =    0.3415             !
 ! R4    R(1,20)                 1.0938         D2E/DX2 =    0.3346             !
 ! R5    R(2,3)                  1.5183         D2E/DX2 =    0.2864             !
 ! R6    R(2,21)                 1.095          D2E/DX2 =    0.3335             !
 ! R7    R(2,22)                 1.0931         D2E/DX2 =    0.3371             !
 ! R8    R(3,7)                  1.2156         D2E/DX2 =    0.816              !
 ! R9    R(3,8)                  1.3573         D2E/DX2 =    0.4643             !
 ! R10   R(4,5)                  1.5237         D2E/DX2 =    0.2892             !
 ! R11   R(4,8)                  1.4512         D2E/DX2 =    0.3513             !
 ! R12   R(4,23)                 1.0909         D2E/DX2 =    0.3432             !
 ! R13   R(4,24)                 1.0914         D2E/DX2 =    0.3401             !
 ! R14   R(5,6)                  1.5225         D2E/DX2 =    0.2939             !
 ! R15   R(5,25)                 1.0929         D2E/DX2 =    0.3385             !
 ! R16   R(5,26)                 1.0945         D2E/DX2 =    0.3331             !
 ! R17   R(6,15)                 1.5236         D2E/DX2 =    0.2943             !
 ! R18   R(6,27)                 1.0949         D2E/DX2 =    0.3325             !
 ! R19   R(6,28)                 1.0954         D2E/DX2 =    0.331              !
 ! R20   R(8,9)                  1.0053         D2E/DX2 =    0.4793             !
 ! R21   R(10,11)                1.5189         D2E/DX2 =    0.302              !
 ! R22   R(10,29)                1.0928         D2E/DX2 =    0.3376             !
 ! R23   R(10,30)                1.0928         D2E/DX2 =    0.3375             !
 ! R24   R(11,12)                1.5037         D2E/DX2 =    0.301              !
 ! R25   R(11,31)                1.0934         D2E/DX2 =    0.3386             !
 ! R26   R(11,32)                1.0936         D2E/DX2 =    0.3377             !
 ! R27   R(12,16)                1.1988         D2E/DX2 =    0.8997             !
 ! R28   R(12,17)                1.3474         D2E/DX2 =    0.4129             !
 ! R29   R(13,14)                1.5248         D2E/DX2 =    0.2875             !
 ! R30   R(13,33)                1.0916         D2E/DX2 =    0.3397             !
 ! R31   R(13,34)                1.0912         D2E/DX2 =    0.3423             !
 ! R32   R(13,55)                1.4484         D2E/DX2 =    0.355              !
 ! R33   R(14,15)                1.5225         D2E/DX2 =    0.2939             !
 ! R34   R(14,35)                1.0945         D2E/DX2 =    0.3332             !
 ! R35   R(14,36)                1.0927         D2E/DX2 =    0.339              !
 ! R36   R(15,37)                1.0954         D2E/DX2 =    0.3309             !
 ! R37   R(15,38)                1.0949         D2E/DX2 =    0.3324             !
 ! R38   R(17,18)                0.968          D2E/DX2 =    0.5209             !
 ! R39   R(39,40)                1.5193         D2E/DX2 =    0.301              !
 ! R40   R(39,48)                1.5232         D2E/DX2 =    0.2981             !
 ! R41   R(39,57)                1.091          D2E/DX2 =    0.3424             !
 ! R42   R(39,58)                1.0928         D2E/DX2 =    0.3375             !
 ! R43   R(40,41)                1.5189         D2E/DX2 =    0.2862             !
 ! R44   R(40,59)                1.0951         D2E/DX2 =    0.3338             !
 ! R45   R(40,60)                1.0937         D2E/DX2 =    0.336              !
 ! R46   R(41,45)                1.215          D2E/DX2 =    0.8191             !
 ! R47   R(41,46)                1.3581         D2E/DX2 =    0.462              !
 ! R48   R(42,43)                1.5237         D2E/DX2 =    0.2892             !
 ! R49   R(42,46)                1.451          D2E/DX2 =    0.3522             !
 ! R50   R(42,61)                1.0909         D2E/DX2 =    0.343              !
 ! R51   R(42,62)                1.0915         D2E/DX2 =    0.3399             !
 ! R52   R(43,44)                1.5226         D2E/DX2 =    0.2939             !
 ! R53   R(43,63)                1.0929         D2E/DX2 =    0.338              !
 ! R54   R(43,64)                1.0946         D2E/DX2 =    0.3327             !
 ! R55   R(44,53)                1.5237         D2E/DX2 =    0.2942             !
 ! R56   R(44,65)                1.0949         D2E/DX2 =    0.3325             !
 ! R57   R(44,66)                1.0957         D2E/DX2 =    0.33               !
 ! R58   R(46,47)                1.0055         D2E/DX2 =    0.4783             !
 ! R59   R(48,49)                1.481          D2E/DX2 =    0.325              !
 ! R60   R(48,67)                1.096          D2E/DX2 =    0.3305             !
 ! R61   R(48,68)                1.099          D2E/DX2 =    0.3221             !
 ! R62   R(49,50)                1.4571         D2E/DX2 =    0.3362             !
 ! R63   R(49,69)                1.0838         D2E/DX2 =    0.3592             !
 ! R64   R(50,54)                1.2247         D2E/DX2 =    0.7698             !
 ! R65   R(50,55)                1.366          D2E/DX2 =    0.4478             !
 ! R66   R(51,52)                1.5257         D2E/DX2 =    0.2831             !
 ! R67   R(51,70)                1.0932         D2E/DX2 =    0.3355             !
 ! R68   R(51,71)                1.0934         D2E/DX2 =    0.3353             !
 ! R69   R(51,76)                1.4582         D2E/DX2 =    0.3449             !
 ! R70   R(52,53)                1.5233         D2E/DX2 =    0.292              !
 ! R71   R(52,72)                1.0955         D2E/DX2 =    0.3309             !
 ! R72   R(52,73)                1.0958         D2E/DX2 =    0.33               !
 ! R73   R(53,74)                1.0949         D2E/DX2 =    0.3322             !
 ! R74   R(53,75)                1.0953         D2E/DX2 =    0.3313             !
 ! R75   R(55,56)                1.005          D2E/DX2 =    0.48               !
 ! R76   R(76,77)                1.0135         D2E/DX2 =    0.4528             !
 ! R77   R(76,78)                1.0135         D2E/DX2 =    0.4525             !
 ! A1    A(2,1,10)             112.1466         D2E/DX2 =    0.1315             !
 ! A2    A(2,1,19)             108.5153         D2E/DX2 =    0.0487             !
 ! A3    A(2,1,20)             109.2155         D2E/DX2 =    0.0494             !
 ! A4    A(10,1,19)            110.6184         D2E/DX2 =    0.0461             !
 ! A5    A(10,1,20)            110.0035         D2E/DX2 =    0.0471             !
 ! A6    A(19,1,20)            106.1469         D2E/DX2 =    0.0184             !
 ! A7    A(1,2,3)              112.1334         D2E/DX2 =    0.1445             !
 ! A8    A(1,2,21)             109.7075         D2E/DX2 =    0.0524             !
 ! A9    A(1,2,22)             110.7928         D2E/DX2 =    0.0564             !
 ! A10   A(3,2,21)             106.974          D2E/DX2 =    0.0446             !
 ! A11   A(3,2,22)             110.2932         D2E/DX2 =    0.0547             !
 ! A12   A(21,2,22)            106.7224         D2E/DX2 =    0.0208             !
 ! A13   A(2,3,7)              122.3373         D2E/DX2 =    0.1761             !
 ! A14   A(2,3,8)              115.5098         D2E/DX2 =    0.1749             !
 ! A15   A(7,3,8)              122.1492         D2E/DX2 =    0.2063             !
 ! A16   A(5,4,8)              113.1041         D2E/DX2 =    0.1507             !
 ! A17   A(5,4,23)             109.5877         D2E/DX2 =    0.0562             !
 ! A18   A(5,4,24)             110.5725         D2E/DX2 =    0.0564             !
 ! A19   A(8,4,23)             107.3665         D2E/DX2 =    0.0581             !
 ! A20   A(8,4,24)             108.1474         D2E/DX2 =    0.0592             !
 ! A21   A(23,4,24)            107.8809         D2E/DX2 =    0.0209             !
 ! A22   A(4,5,6)              112.0784         D2E/DX2 =    0.1281             !
 ! A23   A(4,5,25)             108.2051         D2E/DX2 =    0.0468             !
 ! A24   A(4,5,26)             109.3195         D2E/DX2 =    0.0479             !
 ! A25   A(6,5,25)             110.0173         D2E/DX2 =    0.0456             !
 ! A26   A(6,5,26)             109.8543         D2E/DX2 =    0.0463             !
 ! A27   A(25,5,26)            107.232          D2E/DX2 =    0.0182             !
 ! A28   A(5,6,15)             112.9352         D2E/DX2 =    0.1299             !
 ! A29   A(5,6,27)             109.2164         D2E/DX2 =    0.0477             !
 ! A30   A(5,6,28)             109.6824         D2E/DX2 =    0.0479             !
 ! A31   A(15,6,27)            109.3135         D2E/DX2 =    0.0481             !
 ! A32   A(15,6,28)            109.1085         D2E/DX2 =    0.0481             !
 ! A33   A(27,6,28)            106.3722         D2E/DX2 =    0.0181             !
 ! A34   A(3,8,4)              121.3            D2E/DX2 =    0.1336             !
 ! A35   A(3,8,9)              118.6975         D2E/DX2 =    0.0958             !
 ! A36   A(4,8,9)              119.3906         D2E/DX2 =    0.0912             !
 ! A37   A(1,10,11)            111.9005         D2E/DX2 =    0.1309             !
 ! A38   A(1,10,29)            110.0901         D2E/DX2 =    0.0464             !
 ! A39   A(1,10,30)            110.4381         D2E/DX2 =    0.0469             !
 ! A40   A(11,10,29)           109.1344         D2E/DX2 =    0.0489             !
 ! A41   A(11,10,30)           109.127          D2E/DX2 =    0.0493             !
 ! A42   A(29,10,30)           105.9663         D2E/DX2 =    0.0184             !
 ! A43   A(10,11,12)           112.8714         D2E/DX2 =    0.1435             !
 ! A44   A(10,11,31)           111.4534         D2E/DX2 =    0.0528             !
 ! A45   A(10,11,32)           111.5012         D2E/DX2 =    0.0527             !
 ! A46   A(12,11,31)           107.547          D2E/DX2 =    0.0513             !
 ! A47   A(12,11,32)           107.4417         D2E/DX2 =    0.0511             !
 ! A48   A(31,11,32)           105.6484         D2E/DX2 =    0.0211             !
 ! A49   A(11,12,16)           125.9197         D2E/DX2 =    0.1623             !
 ! A50   A(11,12,17)           111.7669         D2E/DX2 =    0.1669             !
 ! A51   A(16,12,17)           122.3134         D2E/DX2 =    0.205              !
 ! A52   A(14,13,33)           110.5206         D2E/DX2 =    0.0568             !
 ! A53   A(14,13,34)           109.4197         D2E/DX2 =    0.0564             !
 ! A54   A(14,13,55)           113.1835         D2E/DX2 =    0.1507             !
 ! A55   A(33,13,34)           107.9            D2E/DX2 =    0.0208             !
 ! A56   A(33,13,55)           108.1842         D2E/DX2 =    0.0591             !
 ! A57   A(34,13,55)           107.4553         D2E/DX2 =    0.0581             !
 ! A58   A(13,14,15)           112.0695         D2E/DX2 =    0.128              !
 ! A59   A(13,14,35)           109.297          D2E/DX2 =    0.0479             !
 ! A60   A(13,14,36)           108.1289         D2E/DX2 =    0.047              !
 ! A61   A(15,14,35)           109.8833         D2E/DX2 =    0.0462             !
 ! A62   A(15,14,36)           110.0526         D2E/DX2 =    0.0455             !
 ! A63   A(35,14,36)           107.2761         D2E/DX2 =    0.0182             !
 ! A64   A(6,15,14)            112.9033         D2E/DX2 =    0.1298             !
 ! A65   A(6,15,37)            109.1515         D2E/DX2 =    0.0482             !
 ! A66   A(6,15,38)            109.2736         D2E/DX2 =    0.048              !
 ! A67   A(14,15,37)           109.7083         D2E/DX2 =    0.0479             !
 ! A68   A(14,15,38)           109.2179         D2E/DX2 =    0.0476             !
 ! A69   A(37,15,38)           106.3753         D2E/DX2 =    0.0181             !
 ! A70   A(12,17,18)           107.1098         D2E/DX2 =    0.1726             !
 ! A71   A(40,39,48)           112.0018         D2E/DX2 =    0.1325             !
 ! A72   A(40,39,57)           108.8957         D2E/DX2 =    0.0489             !
 ! A73   A(40,39,58)           109.2552         D2E/DX2 =    0.0492             !
 ! A74   A(48,39,57)           110.3474         D2E/DX2 =    0.0462             !
 ! A75   A(48,39,58)           110.0309         D2E/DX2 =    0.0472             !
 ! A76   A(57,39,58)           106.1286         D2E/DX2 =    0.0185             !
 ! A77   A(39,40,41)           112.3451         D2E/DX2 =    0.1468             !
 ! A78   A(39,40,59)           109.9853         D2E/DX2 =    0.0535             !
 ! A79   A(39,40,60)           110.7694         D2E/DX2 =    0.0561             !
 ! A80   A(41,40,59)           107.4854         D2E/DX2 =    0.0465             !
 ! A81   A(41,40,60)           109.5619         D2E/DX2 =    0.053              !
 ! A82   A(59,40,60)           106.4725         D2E/DX2 =    0.021              !
 ! A83   A(40,41,45)           122.634          D2E/DX2 =    0.1752             !
 ! A84   A(40,41,46)           115.1841         D2E/DX2 =    0.1718             !
 ! A85   A(45,41,46)           122.1809         D2E/DX2 =    0.2054             !
 ! A86   A(43,42,46)           113.1504         D2E/DX2 =    0.1507             !
 ! A87   A(43,42,61)           109.568          D2E/DX2 =    0.0563             !
 ! A88   A(43,42,62)           110.5762         D2E/DX2 =    0.0566             !
 ! A89   A(46,42,61)           107.3645         D2E/DX2 =    0.0582             !
 ! A90   A(46,42,62)           108.1506         D2E/DX2 =    0.0592             !
 ! A91   A(61,42,62)           107.8459         D2E/DX2 =    0.0209             !
 ! A92   A(42,43,44)           112.1263         D2E/DX2 =    0.1279             !
 ! A93   A(42,43,63)           108.2165         D2E/DX2 =    0.0469             !
 ! A94   A(42,43,64)           109.3168         D2E/DX2 =    0.048              !
 ! A95   A(44,43,63)           109.9723         D2E/DX2 =    0.0456             !
 ! A96   A(44,43,64)           109.8704         D2E/DX2 =    0.0463             !
 ! A97   A(63,43,64)           107.2008         D2E/DX2 =    0.0182             !
 ! A98   A(43,44,53)           112.9797         D2E/DX2 =    0.1297             !
 ! A99   A(43,44,65)           109.206          D2E/DX2 =    0.0477             !
 ! A100  A(43,44,66)           109.6266         D2E/DX2 =    0.048              !
 ! A101  A(53,44,65)           109.2619         D2E/DX2 =    0.048              !
 ! A102  A(53,44,66)           109.2281         D2E/DX2 =    0.0482             !
 ! A103  A(65,44,66)           106.3198         D2E/DX2 =    0.018              !
 ! A104  A(41,46,42)           121.3286         D2E/DX2 =    0.1331             !
 ! A105  A(41,46,47)           118.6137         D2E/DX2 =    0.0955             !
 ! A106  A(42,46,47)           119.3804         D2E/DX2 =    0.0911             !
 ! A107  A(39,48,49)           113.371          D2E/DX2 =    0.1274             !
 ! A108  A(39,48,67)           111.1068         D2E/DX2 =    0.0535             !
 ! A109  A(39,48,68)           110.3373         D2E/DX2 =    0.0534             !
 ! A110  A(49,48,67)           108.5453         D2E/DX2 =    0.0511             !
 ! A111  A(49,48,68)           108.8447         D2E/DX2 =    0.0481             !
 ! A112  A(67,48,68)           104.2073         D2E/DX2 =    0.0203             !
 ! A113  A(48,49,50)           119.9006         D2E/DX2 =    0.1129             !
 ! A114  A(48,49,69)           120.1034         D2E/DX2 =    0.0864             !
 ! A115  A(50,49,69)           119.9876         D2E/DX2 =    0.0874             !
 ! A116  A(49,50,54)           122.0902         D2E/DX2 =    0.1697             !
 ! A117  A(49,50,55)           116.0338         D2E/DX2 =    0.1691             !
 ! A118  A(54,50,55)           121.8731         D2E/DX2 =    0.2045             !
 ! A119  A(52,51,70)           109.3585         D2E/DX2 =    0.0584             !
 ! A120  A(52,51,71)           109.3561         D2E/DX2 =    0.0588             !
 ! A121  A(52,51,76)           115.775          D2E/DX2 =    0.1498             !
 ! A122  A(70,51,71)           106.1455         D2E/DX2 =    0.0205             !
 ! A123  A(70,51,76)           107.8836         D2E/DX2 =    0.0594             !
 ! A124  A(71,51,76)           107.8868         D2E/DX2 =    0.0595             !
 ! A125  A(51,52,53)           112.8983         D2E/DX2 =    0.1252             !
 ! A126  A(51,52,72)           109.0581         D2E/DX2 =    0.047              !
 ! A127  A(51,52,73)           109.0324         D2E/DX2 =    0.0469             !
 ! A128  A(53,52,72)           109.5719         D2E/DX2 =    0.0468             !
 ! A129  A(53,52,73)           109.6304         D2E/DX2 =    0.0467             !
 ! A130  A(72,52,73)           106.4415         D2E/DX2 =    0.0179             !
 ! A131  A(44,53,52)           113.2105         D2E/DX2 =    0.1296             !
 ! A132  A(44,53,74)           109.1588         D2E/DX2 =    0.0481             !
 ! A133  A(44,53,75)           109.2808         D2E/DX2 =    0.0484             !
 ! A134  A(52,53,74)           109.3798         D2E/DX2 =    0.0478             !
 ! A135  A(52,53,75)           109.3517         D2E/DX2 =    0.048              !
 ! A136  A(74,53,75)           106.2203         D2E/DX2 =    0.018              !
 ! A137  A(13,55,50)           120.9661         D2E/DX2 =    0.1349             !
 ! A138  A(13,55,56)           119.4396         D2E/DX2 =    0.0915             !
 ! A139  A(50,55,56)           118.8574         D2E/DX2 =    0.0949             !
 ! A140  A(51,76,77)           110.3306         D2E/DX2 =    0.1397             !
 ! A141  A(51,76,78)           110.3377         D2E/DX2 =    0.1389             !
 ! A142  A(77,76,78)           106.7509         D2E/DX2 =    0.0568             !
 ! D1    D(10,1,2,3)          -175.8921         D2E/DX2 =    0.0132             !
 ! D2    D(10,1,2,21)          -57.1764         D2E/DX2 =    0.0138             !
 ! D3    D(10,1,2,22)           60.4009         D2E/DX2 =    0.0137             !
 ! D4    D(19,1,2,3)           -53.3956         D2E/DX2 =    0.0134             !
 ! D5    D(19,1,2,21)           65.3201         D2E/DX2 =    0.0149             !
 ! D6    D(19,1,2,22)         -177.1025         D2E/DX2 =    0.0137             !
 ! D7    D(20,1,2,3)            61.9012         D2E/DX2 =    0.0131             !
 ! D8    D(20,1,2,21)         -179.3831         D2E/DX2 =    0.0139             !
 ! D9    D(20,1,2,22)          -61.8057         D2E/DX2 =    0.0148             !
 ! D10   D(2,1,10,11)          179.9128         D2E/DX2 =    0.0139             !
 ! D11   D(2,1,10,29)           58.3654         D2E/DX2 =    0.0144             !
 ! D12   D(2,1,10,30)          -58.3057         D2E/DX2 =    0.0143             !
 ! D13   D(19,1,10,11)          58.6175         D2E/DX2 =    0.0144             !
 ! D14   D(19,1,10,29)         -62.9299         D2E/DX2 =    0.0156             !
 ! D15   D(19,1,10,30)        -179.601          D2E/DX2 =    0.0146             !
 ! D16   D(20,1,10,11)         -58.3302         D2E/DX2 =    0.0144             !
 ! D17   D(20,1,10,29)        -179.8775         D2E/DX2 =    0.0146             !
 ! D18   D(20,1,10,30)          63.4514         D2E/DX2 =    0.0156             !
 ! D19   D(1,2,3,7)             29.0569         D2E/DX2 =    0.0133             !
 ! D20   D(1,2,3,8)           -151.6258         D2E/DX2 =    0.0133             !
 ! D21   D(21,2,3,7)           -91.2597         D2E/DX2 =    0.0153             !
 ! D22   D(21,2,3,8)            88.0576         D2E/DX2 =    0.0141             !
 ! D23   D(22,2,3,7)           153.0429         D2E/DX2 =    0.015              !
 ! D24   D(22,2,3,8)           -27.6398         D2E/DX2 =    0.0155             !
 ! D25   D(2,3,8,4)           -174.4752         D2E/DX2 =    0.0097             !
 ! D26   D(2,3,8,9)             -3.4988         D2E/DX2 =    0.0076             !
 ! D27   D(7,3,8,4)              4.8435         D2E/DX2 =    0.011              !
 ! D28   D(7,3,8,9)            175.8199         D2E/DX2 =    0.0108             !
 ! D29   D(8,4,5,6)           -177.8485         D2E/DX2 =    0.0149             !
 ! D30   D(8,4,5,25)           -56.3648         D2E/DX2 =    0.0158             !
 ! D31   D(8,4,5,26)            60.1071         D2E/DX2 =    0.0151             !
 ! D32   D(23,4,5,6)           -58.096          D2E/DX2 =    0.0148             !
 ! D33   D(23,4,5,25)           63.3878         D2E/DX2 =    0.0162             !
 ! D34   D(23,4,5,26)          179.8597         D2E/DX2 =    0.0148             !
 ! D35   D(24,4,5,6)            60.6976         D2E/DX2 =    0.0145             !
 ! D36   D(24,4,5,25)         -177.8186         D2E/DX2 =    0.0148             !
 ! D37   D(24,4,5,26)          -61.3467         D2E/DX2 =    0.0158             !
 ! D38   D(5,4,8,3)             79.5015         D2E/DX2 =    0.0107             !
 ! D39   D(5,4,8,9)            -91.4135         D2E/DX2 =    0.01               !
 ! D40   D(23,4,8,3)           -41.5169         D2E/DX2 =    0.0126             !
 ! D41   D(23,4,8,9)           147.568          D2E/DX2 =    0.0128             !
 ! D42   D(24,4,8,3)          -157.6878         D2E/DX2 =    0.0126             !
 ! D43   D(24,4,8,9)            31.3972         D2E/DX2 =    0.0116             !
 ! D44   D(4,5,6,15)          -179.5473         D2E/DX2 =    0.0134             !
 ! D45   D(4,5,6,27)            58.5954         D2E/DX2 =    0.0142             !
 ! D46   D(4,5,6,28)           -57.6178         D2E/DX2 =    0.014              !
 ! D47   D(25,5,6,15)           60.0157         D2E/DX2 =    0.0139             !
 ! D48   D(25,5,6,27)          -61.8416         D2E/DX2 =    0.0152             !
 ! D49   D(25,5,6,28)         -178.0548         D2E/DX2 =    0.0142             !
 ! D50   D(26,5,6,15)          -57.8087         D2E/DX2 =    0.014              !
 ! D51   D(26,5,6,27)         -179.6661         D2E/DX2 =    0.0143             !
 ! D52   D(26,5,6,28)           64.1207         D2E/DX2 =    0.0152             !
 ! D53   D(5,6,15,14)         -179.834          D2E/DX2 =    0.0135             !
 ! D54   D(5,6,15,37)          -57.5398         D2E/DX2 =    0.014              !
 ! D55   D(5,6,15,38)           58.4113         D2E/DX2 =    0.0139             !
 ! D56   D(27,6,15,14)         -58.0313         D2E/DX2 =    0.0139             !
 ! D57   D(27,6,15,37)          64.2629         D2E/DX2 =    0.0152             !
 ! D58   D(27,6,15,38)        -179.786          D2E/DX2 =    0.0142             !
 ! D59   D(28,6,15,14)          57.9143         D2E/DX2 =    0.014              !
 ! D60   D(28,6,15,37)        -179.7915         D2E/DX2 =    0.0143             !
 ! D61   D(28,6,15,38)         -63.8404         D2E/DX2 =    0.0152             !
 ! D62   D(1,10,11,12)         179.9682         D2E/DX2 =    0.0129             !
 ! D63   D(1,10,11,31)         -58.8779         D2E/DX2 =    0.0137             !
 ! D64   D(1,10,11,32)          58.9161         D2E/DX2 =    0.0137             !
 ! D65   D(29,10,11,12)        -57.9356         D2E/DX2 =    0.0129             !
 ! D66   D(29,10,11,31)         63.2183         D2E/DX2 =    0.0148             !
 ! D67   D(29,10,11,32)       -178.9877         D2E/DX2 =    0.0137             !
 ! D68   D(30,10,11,12)         57.4366         D2E/DX2 =    0.0129             !
 ! D69   D(30,10,11,31)        178.5905         D2E/DX2 =    0.0137             !
 ! D70   D(30,10,11,32)        -63.6155         D2E/DX2 =    0.0148             !
 ! D71   D(10,11,12,16)         -0.3667         D2E/DX2 =    0.0152             !
 ! D72   D(10,11,12,17)        179.668          D2E/DX2 =    0.0169             !
 ! D73   D(31,11,12,16)       -123.7136         D2E/DX2 =    0.0164             !
 ! D74   D(31,11,12,17)         56.3211         D2E/DX2 =    0.0168             !
 ! D75   D(32,11,12,16)        122.9659         D2E/DX2 =    0.0164             !
 ! D76   D(32,11,12,17)        -56.9994         D2E/DX2 =    0.0168             !
 ! D77   D(11,12,17,18)       -179.9776         D2E/DX2 =    0.0164             !
 ! D78   D(16,12,17,18)          0.0557         D2E/DX2 =    0.0157             !
 ! D79   D(33,13,14,15)        -60.5893         D2E/DX2 =    0.0144             !
 ! D80   D(33,13,14,35)         61.4702         D2E/DX2 =    0.0158             !
 ! D81   D(33,13,14,36)        177.9401         D2E/DX2 =    0.0149             !
 ! D82   D(34,13,14,15)         58.0916         D2E/DX2 =    0.0148             !
 ! D83   D(34,13,14,35)       -179.8489         D2E/DX2 =    0.0148             !
 ! D84   D(34,13,14,36)        -63.379          D2E/DX2 =    0.0162             !
 ! D85   D(55,13,14,15)        177.8917         D2E/DX2 =    0.0148             !
 ! D86   D(55,13,14,35)        -60.0489         D2E/DX2 =    0.0151             !
 ! D87   D(55,13,14,36)         56.421          D2E/DX2 =    0.0158             !
 ! D88   D(14,13,55,50)        -78.579          D2E/DX2 =    0.0114             !
 ! D89   D(14,13,55,56)         91.475          D2E/DX2 =    0.0103             !
 ! D90   D(33,13,55,50)        158.5973         D2E/DX2 =    0.0128             !
 ! D91   D(33,13,55,56)        -31.3487         D2E/DX2 =    0.0115             !
 ! D92   D(34,13,55,50)         42.3391         D2E/DX2 =    0.0127             !
 ! D93   D(34,13,55,56)       -147.6069         D2E/DX2 =    0.0128             !
 ! D94   D(13,14,15,6)        -179.7449         D2E/DX2 =    0.0136             !
 ! D95   D(13,14,15,37)         58.2736         D2E/DX2 =    0.014              !
 ! D96   D(13,14,15,38)        -57.9588         D2E/DX2 =    0.0143             !
 ! D97   D(35,14,15,6)          58.5309         D2E/DX2 =    0.014              !
 ! D98   D(35,14,15,37)        -63.4506         D2E/DX2 =    0.0152             !
 ! D99   D(35,14,15,38)       -179.683          D2E/DX2 =    0.0143             !
 ! D100  D(36,14,15,6)         -59.3861         D2E/DX2 =    0.0139             !
 ! D101  D(36,14,15,37)        178.6323         D2E/DX2 =    0.0142             !
 ! D102  D(36,14,15,38)         62.4            D2E/DX2 =    0.0153             !
 ! D103  D(48,39,40,41)       -178.305          D2E/DX2 =    0.0131             !
 ! D104  D(48,39,40,59)        -58.6245         D2E/DX2 =    0.0138             !
 ! D105  D(48,39,40,60)         58.8028         D2E/DX2 =    0.0138             !
 ! D106  D(57,39,40,41)        -55.982          D2E/DX2 =    0.013              !
 ! D107  D(57,39,40,59)         63.6986         D2E/DX2 =    0.0147             !
 ! D108  D(57,39,40,60)       -178.8741         D2E/DX2 =    0.0136             !
 ! D109  D(58,39,40,41)         59.5227         D2E/DX2 =    0.013              !
 ! D110  D(58,39,40,59)        179.2032         D2E/DX2 =    0.0138             !
 ! D111  D(58,39,40,60)        -63.3695         D2E/DX2 =    0.0147             !
 ! D112  D(40,39,48,49)        179.6655         D2E/DX2 =    0.0128             !
 ! D113  D(40,39,48,67)         57.1039         D2E/DX2 =    0.014              !
 ! D114  D(40,39,48,68)        -57.9608         D2E/DX2 =    0.014              !
 ! D115  D(57,39,48,49)         58.1737         D2E/DX2 =    0.0134             !
 ! D116  D(57,39,48,67)        -64.3878         D2E/DX2 =    0.0152             !
 ! D117  D(57,39,48,68)       -179.4526         D2E/DX2 =    0.0141             !
 ! D118  D(58,39,48,49)        -58.606          D2E/DX2 =    0.0134             !
 ! D119  D(58,39,48,67)        178.8324         D2E/DX2 =    0.0142             !
 ! D120  D(58,39,48,68)         63.7676         D2E/DX2 =    0.0152             !
 ! D121  D(39,40,41,45)         17.2766         D2E/DX2 =    0.0132             !
 ! D122  D(39,40,41,46)       -163.0727         D2E/DX2 =    0.0138             !
 ! D123  D(59,40,41,45)       -103.849          D2E/DX2 =    0.015              !
 ! D124  D(59,40,41,46)         75.8017         D2E/DX2 =    0.0146             !
 ! D125  D(60,40,41,45)        140.8457         D2E/DX2 =    0.0149             !
 ! D126  D(60,40,41,46)        -39.5035         D2E/DX2 =    0.0156             !
 ! D127  D(40,41,46,42)       -174.7217         D2E/DX2 =    0.0095             !
 ! D128  D(40,41,46,47)         -4.2132         D2E/DX2 =    0.0076             !
 ! D129  D(45,41,46,42)          4.9308         D2E/DX2 =    0.0108             !
 ! D130  D(45,41,46,47)        175.4393         D2E/DX2 =    0.0108             !
 ! D131  D(46,42,43,44)       -177.9838         D2E/DX2 =    0.0148             !
 ! D132  D(46,42,43,63)        -56.5183         D2E/DX2 =    0.0157             !
 ! D133  D(46,42,43,64)         59.9213         D2E/DX2 =    0.015              !
 ! D134  D(61,42,43,44)        -58.2173         D2E/DX2 =    0.0147             !
 ! D135  D(61,42,43,63)         63.2482         D2E/DX2 =    0.0162             !
 ! D136  D(61,42,43,64)        179.6878         D2E/DX2 =    0.0148             !
 ! D137  D(62,42,43,44)         60.5232         D2E/DX2 =    0.0145             !
 ! D138  D(62,42,43,63)       -178.0113         D2E/DX2 =    0.0149             !
 ! D139  D(62,42,43,64)        -61.5718         D2E/DX2 =    0.0158             !
 ! D140  D(43,42,46,41)         79.5204         D2E/DX2 =    0.0109             !
 ! D141  D(43,42,46,47)        -90.9168         D2E/DX2 =    0.0101             !
 ! D142  D(61,42,46,41)        -41.5007         D2E/DX2 =    0.0126             !
 ! D143  D(61,42,46,47)        148.0621         D2E/DX2 =    0.0128             !
 ! D144  D(62,42,46,41)       -157.6312         D2E/DX2 =    0.0126             !
 ! D145  D(62,42,46,47)         31.9316         D2E/DX2 =    0.0115             !
 ! D146  D(42,43,44,53)       -179.6935         D2E/DX2 =    0.0135             !
 ! D147  D(42,43,44,65)         58.4926         D2E/DX2 =    0.0142             !
 ! D148  D(42,43,44,66)        -57.6202         D2E/DX2 =    0.0139             !
 ! D149  D(63,43,44,53)         59.8543         D2E/DX2 =    0.0139             !
 ! D150  D(63,43,44,65)        -61.9596         D2E/DX2 =    0.0152             !
 ! D151  D(63,43,44,66)       -178.0724         D2E/DX2 =    0.0142             !
 ! D152  D(64,43,44,53)        -57.9146         D2E/DX2 =    0.0139             !
 ! D153  D(64,43,44,65)       -179.7286         D2E/DX2 =    0.0143             !
 ! D154  D(64,43,44,66)         64.1586         D2E/DX2 =    0.0152             !
 ! D155  D(43,44,53,52)       -179.5241         D2E/DX2 =    0.0134             !
 ! D156  D(43,44,53,74)        -57.4371         D2E/DX2 =    0.0139             !
 ! D157  D(43,44,53,75)         58.3367         D2E/DX2 =    0.0139             !
 ! D158  D(65,44,53,52)        -57.7416         D2E/DX2 =    0.0139             !
 ! D159  D(65,44,53,74)         64.3454         D2E/DX2 =    0.0151             !
 ! D160  D(65,44,53,75)       -179.8808         D2E/DX2 =    0.0142             !
 ! D161  D(66,44,53,52)         58.1793         D2E/DX2 =    0.0138             !
 ! D162  D(66,44,53,74)       -179.7337         D2E/DX2 =    0.0142             !
 ! D163  D(66,44,53,75)        -63.9599         D2E/DX2 =    0.0151             !
 ! D164  D(39,48,49,50)       -170.666          D2E/DX2 =    0.0106             !
 ! D165  D(39,48,49,69)         10.3827         D2E/DX2 =    0.0098             !
 ! D166  D(67,48,49,50)        -46.6965         D2E/DX2 =    0.011              !
 ! D167  D(67,48,49,69)        134.3522         D2E/DX2 =    0.0107             !
 ! D168  D(68,48,49,50)         66.1356         D2E/DX2 =    0.0104             !
 ! D169  D(68,48,49,69)       -112.8157         D2E/DX2 =    0.0104             !
 ! D170  D(48,49,50,54)          0.6906         D2E/DX2 =    0.0097             !
 ! D171  D(48,49,50,55)       -179.9163         D2E/DX2 =    0.0092             !
 ! D172  D(69,49,50,54)        179.6431         D2E/DX2 =    0.0089             !
 ! D173  D(69,49,50,55)         -0.9637         D2E/DX2 =    0.0081             !
 ! D174  D(49,50,55,13)        176.5973         D2E/DX2 =    0.0105             !
 ! D175  D(49,50,55,56)          6.4865         D2E/DX2 =    0.0087             !
 ! D176  D(54,50,55,13)         -4.0081         D2E/DX2 =    0.0127             !
 ! D177  D(54,50,55,56)       -174.1189         D2E/DX2 =    0.0129             !
 ! D178  D(70,51,52,53)        -57.8204         D2E/DX2 =    0.0144             !
 ! D179  D(70,51,52,72)         64.2291         D2E/DX2 =    0.0157             !
 ! D180  D(70,51,52,73)       -179.9261         D2E/DX2 =    0.0144             !
 ! D181  D(71,51,52,53)         58.0173         D2E/DX2 =    0.0144             !
 ! D182  D(71,51,52,72)       -179.9333         D2E/DX2 =    0.0144             !
 ! D183  D(71,51,52,73)        -64.0884         D2E/DX2 =    0.0156             !
 ! D184  D(76,51,52,53)       -179.9004         D2E/DX2 =    0.0147             !
 ! D185  D(76,51,52,72)        -57.851          D2E/DX2 =    0.0149             !
 ! D186  D(76,51,52,73)         57.9939         D2E/DX2 =    0.0149             !
 ! D187  D(52,51,76,77)         59.2072         D2E/DX2 =    0.0136             !
 ! D188  D(52,51,76,78)        -58.5113         D2E/DX2 =    0.0134             !
 ! D189  D(70,51,76,77)        -63.6538         D2E/DX2 =    0.0159             !
 ! D190  D(70,51,76,78)        178.6277         D2E/DX2 =    0.0155             !
 ! D191  D(71,51,76,77)       -177.9324         D2E/DX2 =    0.0157             !
 ! D192  D(71,51,76,78)         64.3491         D2E/DX2 =    0.016              !
 ! D193  D(51,52,53,44)       -179.7687         D2E/DX2 =    0.0132             !
 ! D194  D(51,52,53,74)         58.2679         D2E/DX2 =    0.0137             !
 ! D195  D(51,52,53,75)        -57.669          D2E/DX2 =    0.0138             !
 ! D196  D(72,52,53,44)         58.4712         D2E/DX2 =    0.0139             !
 ! D197  D(72,52,53,74)        -63.4923         D2E/DX2 =    0.0151             !
 ! D198  D(72,52,53,75)       -179.4292         D2E/DX2 =    0.0141             !
 ! D199  D(73,52,53,44)        -57.9995         D2E/DX2 =    0.0137             !
 ! D200  D(73,52,53,74)       -179.9629         D2E/DX2 =    0.0141             !
 ! D201  D(73,52,53,75)         64.1002         D2E/DX2 =    0.015              !
 --------------------------------------------------------------------------------
 Trust Radius=3.00D-01 FncErr=1.00D-07 GrdErr=1.00D-06 EigMax=2.50D+02 EigMin=1.00D-04
 Number of steps in this run=    430 maximum allowed number of steps=    468.
 GradGradGradGradGradGradGradGradGradGradGradGradGradGradGradGradGradGrad

 Symmetry turned off by external request.
 Stoichiometry    C24H45N4O5(2)
 Framework group  C1[X(C24H45N4O5)]
 Deg. of freedom   228
 Full point group                 C1      NOp   1
                          Input orientation:                          
 ---------------------------------------------------------------------
 Center     Atomic      Atomic             Coordinates (Angstroms)
 Number     Number       Type             X           Y           Z
 ---------------------------------------------------------------------
      1          6           0       -0.196498    0.369376    1.381638
      2          6           0        0.797382    0.873610    2.417117
      3          6           0        0.128721    1.199157    3.740794
      4          6           0        0.272440    2.489616    5.816596
      5          6           0        0.754954    1.504455    6.874047
      6          6           0        0.214177    1.839309    8.257361
      7          8           0       -0.874642    0.627478    4.120352
      8          7           0        0.734664    2.162536    4.480457
      9          1           0        1.597068    2.556618    4.146507
     10          6           0        0.486528   -0.051569    0.087928
     11          6           0       -0.510443   -0.555924   -0.940958
     12          6           0        0.141423   -0.977229   -2.228815
     13          6           0        0.645880    0.229859   11.776332
     14          6           0        0.149397    1.205242   10.714684
     15          6           0        0.693787    0.872115    9.332463
     16          8           0        1.314854   -0.933366   -2.470366
     17          8           0       -0.761502   -1.427042   -3.122088
     18          1           0       -0.272904   -1.678234   -3.919040
     19          1           0       -0.752062   -0.465610    1.812274
     20          1           0       -0.932928    1.152174    1.178407
     21          1           0        1.545341    0.099609    2.618624
     22          1           0        1.339934    1.745211    2.041992
     23          1           0       -0.818127    2.494452    5.791777
     24          1           0        0.606729    3.501147    6.053829
     25          1           0        0.433452    0.502383    6.579168
     26          1           0        1.849294    1.501266    6.893484
     27          1           0       -0.880286    1.833803    8.227474
     28          1           0        0.510414    2.857260    8.532819
     29          1           0        1.221100   -0.835208    0.289046
     30          1           0        1.047547    0.784457   -0.336923
     31          1           0       -1.076990   -1.411303   -0.563020
     32          1           0       -1.255291    0.206738   -1.184759
     33          1           0        0.325957   -0.786953   11.541315
     34          1           0        1.736779    0.241637   11.798060
     35          1           0       -0.944875    1.193823   10.696460
     36          1           0        0.458614    2.211859   11.006562
     37          1           0        0.401145   -0.146594    9.055836
     38          1           0        1.788189    0.880983    9.364392
     39          6           0        0.147490    2.920689   17.396494
     40          6           0        0.759490    4.015825   18.253523
     41          6           0        0.203661    4.021370   19.667090
     42          6           0        0.049660    5.271455   21.767643
     43          6           0        1.051682    4.612586   22.707652
     44          6           0        0.613693    4.697194   24.163467
     45          8           0       -0.388885    3.072797   20.141896
     46          7           0        0.422363    5.162878   20.369581
     47          1           0        0.978482    5.887729   19.949555
     48          6           0        0.740076    2.895793   15.993513
     49          6           0        0.169927    1.833262   15.133737
     50          6           0        0.771258    1.546837   13.837813
     51          6           0        2.168733    3.477105   27.532592
     52          6           0        1.167442    4.121810   26.578863
     53          6           0        1.606085    4.050301   25.121793
     54          8           0        1.754297    2.151925   13.428696
     55          7           0        0.181248    0.553133   13.109592
     56          1           0       -0.674508    0.147682   13.446333
     57          1           0        0.299680    1.959508   17.889689
     58          1           0       -0.934218    3.066753   17.343406
     59          1           0        1.842771    3.872640   18.326468
     60          1           0        0.606522    4.997376   17.796038
     61          1           0       -0.925734    4.796680   21.882373
     62          1           0       -0.063254    6.330148   22.008217
     63          1           0        1.161557    3.566462   22.411082
     64          1           0        2.029922    5.088217   22.585193
     65          1           0       -0.362717    4.214466   24.274466
     66          1           0        0.472069    5.746681   24.444801
     67          1           0        1.828435    2.770637   16.026919
     68          1           0        0.595285    3.867283   15.500420
     69          1           0       -0.703517    1.280612   15.459625
     70          1           0        2.319703    2.432489   27.247677
     71          1           0        3.140580    3.965819   27.422368
     72          1           0        0.195580    3.629491   26.694134
     73          1           0        1.021166    5.168474   26.868325
     74          1           0        1.750373    3.003017   24.836775
     75          1           0        2.582484    4.534429   25.012521
     76          7           0        1.809335    3.508448   28.945488
     77          1           0        0.926760    3.033241   29.094937
     78          1           0        1.682229    4.464945   29.255474
 ---------------------------------------------------------------------
 Rotational constants (GHZ):           0.8053119           0.0112497           0.0112005
 Standard basis: def2TZVP (5D, 7F)
  1293 basis functions,  2043 primitive gaussians,  1458 cartesian basis functions
   129 alpha electrons      128 beta electrons
       nuclear repulsion energy      2794.3146029019 Hartrees.
 NAtoms=   78 NActive=   78 NUniq=   78 SFac= 1.00D+00 NAtFMM=   60 NAOKFM=T Big=T
 Integral buffers will be    131072 words long.
 Raffenetti 2 integral format.
 Two-electron integral symmetry is turned off.
 ------------------------------------------------------------------------------
 Polarizable Continuum Model (PCM)
 =================================
 Model                : PCM.
 Atomic radii         : UFF (Universal Force Field).
 Polarization charges : Total charges.
 Charge compensation  : None.
 Solution method      : On-the-fly selection.
 Cavity type          : Scaled VdW (van der Waals Surface) (Alpha=1.100).
 Cavity algorithm     : GePol (No added spheres)
                        Default sphere list used, NSphG=   78.
                        Lebedev-Laikov grids with approx.  5.0 points / Ang**2.
                        Smoothing algorithm: York/Karplus (Gamma=1.0000).
                        Polarization charges: spherical gaussians, with
                                              point-specific exponents (IZeta= 3).
                        Self-potential: point-specific (ISelfS= 7).
                        Self-field    : sphere-specific E.n sum rule (ISelfD= 2).
 1st derivatives      : Analytical E(r).r(x)/FMM algorithm (CHGder, D1EAlg=3).
                        Cavity 1st derivative terms included.
 Solvent              : FluoroBenzene, Eps=   5.420000 Eps(inf)=   2.156199
 ------------------------------------------------------------------------------
 One-electron integrals computed using PRISM.
   1 Symmetry operations used in ECPInt.
 ECPInt:  NShTT=  147696 NPrTT=  433776 LenC2=   68606 LenP2D=  139263.
 LDataN:  DoStor=T MaxTD1= 6 Len=  172
 NBasis=  1293 RedAO= T EigKep=  3.84D-05  NBF=  1293
 NBsUse=  1293 1.00D-06 EigRej= -1.00D+00 NBFU=  1293
 Initial guess from the checkpoint file:  "/dev/shm/nylon66_dimer_49_69_f2_fb.chk"
 B after Tr=     0.000000    0.000000    0.000000
         Rot=    1.000000    0.000000    0.000000    0.000000 Ang=   0.00 deg.
 Initial guess <Sx>= 0.0000 <Sy>= 0.0000 <Sz>= 0.5000 <S**2>= 0.7567 S= 0.5033
 Requested convergence on RMS density matrix=1.00D-08 within  32 cycles.
 Requested convergence on MAX density matrix=1.00D-06.
 Requested convergence on             energy=1.00D-06.
 No special actions if energy rises.
 Inv3:  Mode=1 IEnd=    85963827.
 Iteration    1 A*A^-1 deviation from unit magnitude is 3.55D-15 for   1481.
 Iteration    1 A*A^-1 deviation from orthogonality  is 2.69D-15 for   4129   2688.
 Iteration    1 A^-1*A deviation from unit magnitude is 3.55D-15 for    742.
 Iteration    1 A^-1*A deviation from orthogonality  is 2.89D-15 for   4670   1075.
 Error on total polarization charges =  0.02211
 SCF Done:  E(UM062X) =  -1536.77107875     A.U. after   12 cycles
            NFock= 12  Conv=0.88D-08     -V/T= 2.0048
 <Sx>= 0.0000 <Sy>= 0.0000 <Sz>= 0.5000 <S**2>= 0.7564 S= 0.5032
 <L.S>= 0.000000000000E+00
 Annihilation of the first spin contaminant:
 S**2 before annihilation     0.7564,   after     0.7500
 QCSCF skips out because SCF is already converged.

 **********************************************************************

            Population analysis using the SCF Density.

 **********************************************************************

 Alpha  occ. eigenvalues --  -19.67449 -19.62536 -19.59455 -19.59332 -19.58933
 Alpha  occ. eigenvalues --  -14.76844 -14.76782 -14.76778 -14.72240 -10.68046
 Alpha  occ. eigenvalues --  -10.64088 -10.64019 -10.63720 -10.56724 -10.56695
 Alpha  occ. eigenvalues --  -10.56611 -10.56540 -10.55132 -10.55065 -10.54353
 Alpha  occ. eigenvalues --  -10.54248 -10.54117 -10.53630 -10.53533 -10.53354
 Alpha  occ. eigenvalues --  -10.52785 -10.52782 -10.52745 -10.52739 -10.52726
 Alpha  occ. eigenvalues --  -10.52652 -10.52625 -10.52332  -1.24373  -1.16742
 Alpha  occ. eigenvalues --   -1.16648  -1.16161  -1.14917  -1.03258  -1.03251
 Alpha  occ. eigenvalues --   -1.03198  -0.98688  -0.92129  -0.91941  -0.90970
 Alpha  occ. eigenvalues --   -0.90592  -0.87808  -0.86895  -0.85909  -0.84747
 Alpha  occ. eigenvalues --   -0.81416  -0.79518  -0.78097  -0.76109  -0.73632
 Alpha  occ. eigenvalues --   -0.71887  -0.70103  -0.68741  -0.67671  -0.67086
 Alpha  occ. eigenvalues --   -0.66399  -0.66269  -0.66210  -0.65996  -0.65936
 Alpha  occ. eigenvalues --   -0.65694  -0.59744  -0.58949  -0.58539  -0.58366
 Alpha  occ. eigenvalues --   -0.57605  -0.57577  -0.57445  -0.56228  -0.55710
 Alpha  occ. eigenvalues --   -0.55322  -0.55047  -0.54910  -0.54181  -0.53580
 Alpha  occ. eigenvalues --   -0.52568  -0.51868  -0.51591  -0.51010  -0.50731
 Alpha  occ. eigenvalues --   -0.50349  -0.49832  -0.49584  -0.49177  -0.48856
 Alpha  occ. eigenvalues --   -0.48640  -0.48287  -0.47044  -0.46621  -0.46436
 Alpha  occ. eigenvalues --   -0.46119  -0.45796  -0.45467  -0.45089  -0.44102
 Alpha  occ. eigenvalues --   -0.42528  -0.42330  -0.42114  -0.41820  -0.41474
 Alpha  occ. eigenvalues --   -0.41303  -0.41233  -0.41120  -0.40804  -0.40516
 Alpha  occ. eigenvalues --   -0.40445  -0.40070  -0.39770  -0.39239  -0.39143
 Alpha  occ. eigenvalues --   -0.39085  -0.38920  -0.38857  -0.38241  -0.38124
 Alpha  occ. eigenvalues --   -0.36536  -0.34210  -0.33542  -0.33428  -0.32794
 Alpha  occ. eigenvalues --   -0.31967  -0.31642  -0.30283  -0.27150
 Alpha virt. eigenvalues --    0.04765   0.05464   0.05533   0.06483   0.06573
 Alpha virt. eigenvalues --    0.06615   0.06698   0.06746   0.07679   0.07743
 Alpha virt. eigenvalues --    0.08312   0.08421   0.09179   0.09321   0.09500
 Alpha virt. eigenvalues --    0.09724   0.09986   0.10189   0.10609   0.10948
 Alpha virt. eigenvalues --    0.11208   0.11345   0.11505   0.11994   0.12179
 Alpha virt. eigenvalues --    0.12321   0.12416   0.13353   0.14176   0.14554
 Alpha virt. eigenvalues --    0.14715   0.15021   0.15119   0.15427   0.15914
 Alpha virt. eigenvalues --    0.16210   0.16537   0.16668   0.16766   0.16889
 Alpha virt. eigenvalues --    0.16914   0.17029   0.17131   0.17540   0.17693
 Alpha virt. eigenvalues --    0.17814   0.18227   0.18501   0.18668   0.18872
 Alpha virt. eigenvalues --    0.19111   0.19491   0.19687   0.20231   0.20545
 Alpha virt. eigenvalues --    0.20733   0.21047   0.21489   0.21602   0.21773
 Alpha virt. eigenvalues --    0.22041   0.22406   0.22863   0.22945   0.23618
 Alpha virt. eigenvalues --    0.23832   0.23991   0.24066   0.24609   0.24855
 Alpha virt. eigenvalues --    0.25334   0.25819   0.26226   0.26722   0.27039
 Alpha virt. eigenvalues --    0.27301   0.27567   0.27836   0.28711   0.28926
 Alpha virt. eigenvalues --    0.29113   0.29493   0.30133   0.30268   0.30417
 Alpha virt. eigenvalues --    0.30817   0.31079   0.31225   0.31521   0.31789
 Alpha virt. eigenvalues --    0.31940   0.32208   0.32347   0.32562   0.32615
 Alpha virt. eigenvalues --    0.33159   0.33220   0.33360   0.33605   0.33708
 Alpha virt. eigenvalues --    0.33884   0.34397   0.34519   0.34675   0.35031
 Alpha virt. eigenvalues --    0.35433   0.35542   0.35928   0.36053   0.36633
 Alpha virt. eigenvalues --    0.36908   0.37384   0.37511   0.37706   0.38318
 Alpha virt. eigenvalues --    0.38582   0.38700   0.38909   0.39495   0.39949
 Alpha virt. eigenvalues --    0.40446   0.40604   0.40991   0.41438   0.41650
 Alpha virt. eigenvalues --    0.42187   0.42433   0.42516   0.42775   0.42841
 Alpha virt. eigenvalues --    0.43055   0.43267   0.43394   0.43496   0.43697
 Alpha virt. eigenvalues --    0.44018   0.44096   0.44322   0.44895   0.45274
 Alpha virt. eigenvalues --    0.45298   0.45605   0.45739   0.45875   0.46333
 Alpha virt. eigenvalues --    0.46504   0.46650   0.47067   0.47280   0.47479
 Alpha virt. eigenvalues --    0.47793   0.48004   0.48233   0.48475   0.48610
 Alpha virt. eigenvalues --    0.48742   0.48833   0.49231   0.49604   0.49848
 Alpha virt. eigenvalues --    0.50086   0.50252   0.50363   0.50503   0.50865
 Alpha virt. eigenvalues --    0.50976   0.51230   0.51509   0.51711   0.51971
 Alpha virt. eigenvalues --    0.52254   0.52365   0.52517   0.52606   0.52733
 Alpha virt. eigenvalues --    0.53116   0.53509   0.53732   0.53943   0.54030
 Alpha virt. eigenvalues --    0.54203   0.54470   0.54506   0.54747   0.54948
 Alpha virt. eigenvalues --    0.55089   0.55274   0.55381   0.55816   0.55962
 Alpha virt. eigenvalues --    0.56424   0.56618   0.56897   0.57244   0.57591
 Alpha virt. eigenvalues --    0.58313   0.58334   0.58667   0.58840   0.59216
 Alpha virt. eigenvalues --    0.59630   0.60305   0.60728   0.61007   0.61465
 Alpha virt. eigenvalues --    0.61938   0.62059   0.62490   0.62518   0.62998
 Alpha virt. eigenvalues --    0.63388   0.63457   0.63868   0.63908   0.64332
 Alpha virt. eigenvalues --    0.64562   0.65147   0.65226   0.65758   0.66061
 Alpha virt. eigenvalues --    0.66354   0.67092   0.67309   0.68096   0.68428
 Alpha virt. eigenvalues --    0.68555   0.69054   0.69156   0.69691   0.70210
 Alpha virt. eigenvalues --    0.71019   0.71101   0.71371   0.71960   0.72516
 Alpha virt. eigenvalues --    0.72901   0.73328   0.73738   0.74040   0.74581
 Alpha virt. eigenvalues --    0.74948   0.75504   0.76452   0.77050   0.77259
 Alpha virt. eigenvalues --    0.77946   0.79575   0.80219   0.80392   0.81215
 Alpha virt. eigenvalues --    0.81409   0.81623   0.82028   0.82541   0.82819
 Alpha virt. eigenvalues --    0.83292   0.83463   0.83565   0.84049   0.84652
 Alpha virt. eigenvalues --    0.85018   0.85262   0.85471   0.85939   0.86724
 Alpha virt. eigenvalues --    0.86893   0.87526   0.87807   0.88191   0.88827
 Alpha virt. eigenvalues --    0.89412   0.89726   0.89987   0.90369   0.90577
 Alpha virt. eigenvalues --    0.90818   0.90962   0.91223   0.91300   0.91714
 Alpha virt. eigenvalues --    0.92094   0.92509   0.93527   0.93631   0.94063
 Alpha virt. eigenvalues --    0.94673   0.94728   0.95227   0.96157   0.96730
 Alpha virt. eigenvalues --    0.97023   0.97568   0.98073   0.98292   0.98913
 Alpha virt. eigenvalues --    1.00114   1.00315   1.00721   1.00827   1.02171
 Alpha virt. eigenvalues --    1.02973   1.03147   1.03694   1.03990   1.04604
 Alpha virt. eigenvalues --    1.05099   1.06039   1.06412   1.07466   1.08122
 Alpha virt. eigenvalues --    1.08450   1.09109   1.09827   1.10739   1.10799
 Alpha virt. eigenvalues --    1.10971   1.11534   1.12130   1.12398   1.12533
 Alpha virt. eigenvalues --    1.12779   1.13204   1.13670   1.13719   1.13769
 Alpha virt. eigenvalues --    1.14078   1.14549   1.14980   1.15168   1.15478
 Alpha virt. eigenvalues --    1.15757   1.16012   1.16656   1.17143   1.17262
 Alpha virt. eigenvalues --    1.17477   1.18531   1.19037   1.19238   1.19391
 Alpha virt. eigenvalues --    1.19744   1.20619   1.21241   1.21514   1.22473
 Alpha virt. eigenvalues --    1.23790   1.24014   1.24764   1.25955   1.26320
 Alpha virt. eigenvalues --    1.27235   1.27826   1.28455   1.28904   1.29170
 Alpha virt. eigenvalues --    1.29732   1.30280   1.30877   1.31051   1.32031
 Alpha virt. eigenvalues --    1.32946   1.33209   1.33340   1.33955   1.34461
 Alpha virt. eigenvalues --    1.35110   1.35210   1.35368   1.35765   1.36113
 Alpha virt. eigenvalues --    1.36359   1.36603   1.36732   1.37562   1.38000
 Alpha virt. eigenvalues --    1.38428   1.39179   1.39821   1.40291   1.41321
 Alpha virt. eigenvalues --    1.43003   1.43187   1.44097   1.45274   1.46260
 Alpha virt. eigenvalues --    1.46666   1.47006   1.47550   1.48246   1.48669
 Alpha virt. eigenvalues --    1.49706   1.49959   1.50763   1.51075   1.52000
 Alpha virt. eigenvalues --    1.52897   1.52943   1.53476   1.53748   1.54255
 Alpha virt. eigenvalues --    1.54817   1.54985   1.55430   1.55445   1.56567
 Alpha virt. eigenvalues --    1.56660   1.57152   1.57541   1.57899   1.58572
 Alpha virt. eigenvalues --    1.59141   1.59351   1.59906   1.60343   1.60508
 Alpha virt. eigenvalues --    1.60725   1.60848   1.61177   1.61338   1.61675
 Alpha virt. eigenvalues --    1.61744   1.61808   1.62076   1.62836   1.63009
 Alpha virt. eigenvalues --    1.63445   1.63852   1.64197   1.64782   1.64818
 Alpha virt. eigenvalues --    1.64990   1.65587   1.65800   1.66052   1.66373
 Alpha virt. eigenvalues --    1.66902   1.67811   1.67873   1.68652   1.68929
 Alpha virt. eigenvalues --    1.70507   1.71066   1.71949   1.72616   1.72891
 Alpha virt. eigenvalues --    1.73329   1.74428   1.74881   1.75020   1.75479
 Alpha virt. eigenvalues --    1.77508   1.77642   1.78749   1.79532   1.79832
 Alpha virt. eigenvalues --    1.80096   1.80821   1.81840   1.82757   1.83005
 Alpha virt. eigenvalues --    1.83410   1.83794   1.83835   1.84799   1.85178
 Alpha virt. eigenvalues --    1.85643   1.85931   1.86259   1.86834   1.87016
 Alpha virt. eigenvalues --    1.87113   1.87655   1.87940   1.88197   1.88511
 Alpha virt. eigenvalues --    1.88516   1.88747   1.89538   1.89823   1.89984
 Alpha virt. eigenvalues --    1.90383   1.90418   1.90596   1.90891   1.91162
 Alpha virt. eigenvalues --    1.91798   1.91876   1.92108   1.92322   1.92564
 Alpha virt. eigenvalues --    1.93105   1.93645   1.94169   1.94433   1.94694
 Alpha virt. eigenvalues --    1.95661   1.96086   1.96256   1.96448   1.96746
 Alpha virt. eigenvalues --    1.96794   1.96841   1.97083   1.97240   1.97726
 Alpha virt. eigenvalues --    1.98273   1.98714   1.99054   1.99569   2.00156
 Alpha virt. eigenvalues --    2.00176   2.00856   2.01004   2.02049   2.02309
 Alpha virt. eigenvalues --    2.02429   2.02891   2.03691   2.04216   2.04485
 Alpha virt. eigenvalues --    2.05013   2.05260   2.05506   2.06037   2.06909
 Alpha virt. eigenvalues --    2.07103   2.07390   2.08148   2.08743   2.08931
 Alpha virt. eigenvalues --    2.09282   2.09839   2.10209   2.10643   2.11525
 Alpha virt. eigenvalues --    2.12269   2.13080   2.14438   2.15079   2.15968
 Alpha virt. eigenvalues --    2.16688   2.17367   2.18740   2.19014   2.19657
 Alpha virt. eigenvalues --    2.20435   2.20828   2.21391   2.22061   2.23466
 Alpha virt. eigenvalues --    2.24123   2.24462   2.24623   2.25051   2.25669
 Alpha virt. eigenvalues --    2.26312   2.27014   2.28403   2.28683   2.28883
 Alpha virt. eigenvalues --    2.29417   2.29817   2.30017   2.30525   2.30982
 Alpha virt. eigenvalues --    2.31239   2.32160   2.32187   2.33108   2.33754
 Alpha virt. eigenvalues --    2.34121   2.34588   2.35277   2.35814   2.36342
 Alpha virt. eigenvalues --    2.36642   2.37096   2.37918   2.38480   2.38652
 Alpha virt. eigenvalues --    2.39647   2.40095   2.40828   2.41073   2.41865
 Alpha virt. eigenvalues --    2.42335   2.42755   2.43159   2.43498   2.44001
 Alpha virt. eigenvalues --    2.44406   2.44888   2.45182   2.45270   2.45504
 Alpha virt. eigenvalues --    2.46653   2.46818   2.47045   2.47233   2.48446
 Alpha virt. eigenvalues --    2.49670   2.50006   2.50219   2.50753   2.50995
 Alpha virt. eigenvalues --    2.51536   2.51828   2.51962   2.52900   2.53274
 Alpha virt. eigenvalues --    2.53407   2.53696   2.53853   2.54073   2.54873
 Alpha virt. eigenvalues --    2.54897   2.55183   2.55206   2.55515   2.56246
 Alpha virt. eigenvalues --    2.56592   2.56710   2.57219   2.57569   2.57734
 Alpha virt. eigenvalues --    2.57823   2.58254   2.58750   2.58923   2.59306
 Alpha virt. eigenvalues --    2.59500   2.60225   2.60746   2.61162   2.61465
 Alpha virt. eigenvalues --    2.61763   2.61966   2.62363   2.63001   2.63244
 Alpha virt. eigenvalues --    2.63727   2.64167   2.64542   2.64615   2.64996
 Alpha virt. eigenvalues --    2.65238   2.65499   2.66039   2.66567   2.66624
 Alpha virt. eigenvalues --    2.67072   2.67507   2.67865   2.68055   2.68426
 Alpha virt. eigenvalues --    2.69320   2.69507   2.69641   2.69906   2.70111
 Alpha virt. eigenvalues --    2.70964   2.71100   2.71257   2.71550   2.72053
 Alpha virt. eigenvalues --    2.72087   2.72228   2.72766   2.73014   2.73463
 Alpha virt. eigenvalues --    2.73660   2.74276   2.74420   2.74673   2.74782
 Alpha virt. eigenvalues --    2.75007   2.75334   2.75446   2.76169   2.76279
 Alpha virt. eigenvalues --    2.76425   2.77038   2.77533   2.77774   2.78350
 Alpha virt. eigenvalues --    2.78765   2.79351   2.79862   2.80213   2.81085
 Alpha virt. eigenvalues --    2.81564   2.82510   2.82837   2.83401   2.83920
 Alpha virt. eigenvalues --    2.84504   2.84908   2.85139   2.86155   2.86860
 Alpha virt. eigenvalues --    2.87230   2.88449   2.89237   2.89890   2.90367
 Alpha virt. eigenvalues --    2.91011   2.92149   2.92232   2.93036   2.93320
 Alpha virt. eigenvalues --    2.93783   2.94624   2.94865   2.96380   2.96874
 Alpha virt. eigenvalues --    2.97746   2.98060   2.98422   2.99487   2.99978
 Alpha virt. eigenvalues --    3.00186   3.00493   3.00936   3.01775   3.01841
 Alpha virt. eigenvalues --    3.02152   3.02679   3.03582   3.04283   3.04863
 Alpha virt. eigenvalues --    3.05762   3.06962   3.07492   3.08120   3.09190
 Alpha virt. eigenvalues --    3.09838   3.10398   3.10832   3.11057   3.12205
 Alpha virt. eigenvalues --    3.12504   3.12679   3.13121   3.13271   3.13549
 Alpha virt. eigenvalues --    3.14386   3.14653   3.14830   3.15232   3.15557
 Alpha virt. eigenvalues --    3.15984   3.16124   3.16533   3.17069   3.17655
 Alpha virt. eigenvalues --    3.17921   3.18116   3.18923   3.19436   3.19500
 Alpha virt. eigenvalues --    3.19729   3.20254   3.20301   3.21065   3.21341
 Alpha virt. eigenvalues --    3.21367   3.21468   3.21756   3.22050   3.22322
 Alpha virt. eigenvalues --    3.22546   3.22677   3.22925   3.23244   3.23548
 Alpha virt. eigenvalues --    3.24008   3.24356   3.24479   3.24864   3.25094
 Alpha virt. eigenvalues --    3.25656   3.26065   3.26402   3.26942   3.27573
 Alpha virt. eigenvalues --    3.27770   3.28363   3.28921   3.29502   3.29830
 Alpha virt. eigenvalues --    3.29969   3.30567   3.30907   3.31419   3.31843
 Alpha virt. eigenvalues --    3.31985   3.32597   3.32851   3.33225   3.33753
 Alpha virt. eigenvalues --    3.34452   3.34679   3.35056   3.35272   3.36065
 Alpha virt. eigenvalues --    3.36134   3.36818   3.37295   3.37540   3.37873
 Alpha virt. eigenvalues --    3.38519   3.38798   3.39647   3.39954   3.40141
 Alpha virt. eigenvalues --    3.40560   3.40765   3.41513   3.41960   3.42552
 Alpha virt. eigenvalues --    3.43014   3.43569   3.43713   3.44079   3.44229
 Alpha virt. eigenvalues --    3.44738   3.44956   3.45177   3.45809   3.46501
 Alpha virt. eigenvalues --    3.46702   3.46996   3.47342   3.47865   3.48581
 Alpha virt. eigenvalues --    3.48704   3.48965   3.49116   3.49413   3.49825
 Alpha virt. eigenvalues --    3.50141   3.50459   3.50833   3.51554   3.52298
 Alpha virt. eigenvalues --    3.53020   3.53254   3.53523   3.54070   3.54409
 Alpha virt. eigenvalues --    3.54934   3.55420   3.56180   3.56657   3.56906
 Alpha virt. eigenvalues --    3.57550   3.57999   3.58503   3.58792   3.58985
 Alpha virt. eigenvalues --    3.59350   3.59956   3.60450   3.60976   3.61454
 Alpha virt. eigenvalues --    3.61584   3.61766   3.62746   3.63297   3.63564
 Alpha virt. eigenvalues --    3.64082   3.64361   3.65194   3.65818   3.67934
 Alpha virt. eigenvalues --    3.68292   3.68808   3.71171   3.71539   3.72881
 Alpha virt. eigenvalues --    3.73556   3.74457   3.74687   3.75310   3.76373
 Alpha virt. eigenvalues --    3.77002   3.77423   3.77929   3.77984   3.80109
 Alpha virt. eigenvalues --    3.80766   3.81125   3.82288   3.82500   3.83700
 Alpha virt. eigenvalues --    3.84135   3.84638   3.85012   3.85786   3.86274
 Alpha virt. eigenvalues --    3.86530   3.86612   3.87336   3.87942   3.88025
 Alpha virt. eigenvalues --    3.88288   3.88543   3.89044   3.89478   3.89860
 Alpha virt. eigenvalues --    3.89994   3.90181   3.90493   3.90621   3.91166
 Alpha virt. eigenvalues --    3.91455   3.92194   3.92521   3.92919   3.93744
 Alpha virt. eigenvalues --    3.94193   3.95132   3.96534   3.97077   3.98633
 Alpha virt. eigenvalues --    3.99085   3.99200   4.00769   4.00974   4.02514
 Alpha virt. eigenvalues --    4.02977   4.03500   4.05443   4.07063   4.07511
 Alpha virt. eigenvalues --    4.07957   4.08895   4.09319   4.09681   4.10281
 Alpha virt. eigenvalues --    4.10655   4.11140   4.13522   4.13707   4.15279
 Alpha virt. eigenvalues --    4.16203   4.16916   4.18000   4.18570   4.18951
 Alpha virt. eigenvalues --    4.19734   4.23018   4.23385   4.23971   4.25564
 Alpha virt. eigenvalues --    4.28721   4.29114   4.31795   4.32788   4.34325
 Alpha virt. eigenvalues --    4.34783   4.35848   4.36981   4.37418   4.38551
 Alpha virt. eigenvalues --    4.39227   4.41210   4.42752   4.44312   4.44542
 Alpha virt. eigenvalues --    4.44637   4.45589   4.46238   4.46589   4.47037
 Alpha virt. eigenvalues --    4.49455   4.50116   4.50605   4.51873   4.53277
 Alpha virt. eigenvalues --    4.54114   4.54724   4.55149   4.55691   4.55864
 Alpha virt. eigenvalues --    4.56292   4.56556   4.56628   4.56910   4.57591
 Alpha virt. eigenvalues --    4.57913   4.58728   4.59033   4.59201   4.59384
 Alpha virt. eigenvalues --    4.60234   4.60680   4.60874   4.61594   4.62398
 Alpha virt. eigenvalues --    4.62971   4.63643   4.65434   4.66578   4.66664
 Alpha virt. eigenvalues --    4.67464   4.68114   4.68768   4.69057   4.69310
 Alpha virt. eigenvalues --    4.70680   4.72027   4.73948   4.76435   4.77132
 Alpha virt. eigenvalues --    4.77828   4.78044   4.79205   4.80318   4.80876
 Alpha virt. eigenvalues --    4.81438   4.83034   4.83919   4.84047   4.84853
 Alpha virt. eigenvalues --    4.85833   4.86099   4.87577   4.88785   4.95776
 Alpha virt. eigenvalues --    4.98316   4.98950   5.01130   5.02299   5.03882
 Alpha virt. eigenvalues --    5.04630   5.05080   5.05905   5.07386   5.07743
 Alpha virt. eigenvalues --    5.08702   5.09711   5.11727   5.12383   5.12922
 Alpha virt. eigenvalues --    5.14574   5.16382   5.18873   5.19914   5.20767
 Alpha virt. eigenvalues --    5.21187   5.21740   5.22273   5.23133   5.23218
 Alpha virt. eigenvalues --    5.24091   5.25142   5.26390   5.27399   5.29880
 Alpha virt. eigenvalues --    5.30345   5.31473   5.31851   5.35467   5.35562
 Alpha virt. eigenvalues --    5.36085   5.39474   5.41843   5.42637   5.42785
 Alpha virt. eigenvalues --    5.43402   5.46723   5.47177   5.48020   5.48396
 Alpha virt. eigenvalues --    5.51653   5.55384   5.56135   5.58892   5.62373
 Alpha virt. eigenvalues --    5.67035   5.68496   5.68589   5.76571   5.76596
 Alpha virt. eigenvalues --    5.76654   5.77515   5.78457   5.86169   5.88511
 Alpha virt. eigenvalues --    5.92049   5.92450   5.93710   6.10997   6.13942
 Alpha virt. eigenvalues --    6.14452   6.18282   6.22024   6.31764   6.33038
 Alpha virt. eigenvalues --    6.34795   6.34811   6.37084   6.42070   6.42681
 Alpha virt. eigenvalues --    6.43051   6.43933   6.48984   6.57801   6.57999
 Alpha virt. eigenvalues --    6.58931   6.66239   6.68925   6.71266   6.71288
 Alpha virt. eigenvalues --    6.73784   6.76780   6.80608   6.83074   6.83523
 Alpha virt. eigenvalues --    6.83601   6.89176   7.08271   7.08350   7.08581
 Alpha virt. eigenvalues --    7.08881   7.09659   7.10097   7.10968   7.12805
 Alpha virt. eigenvalues --    7.29025  22.44887  22.45948  22.48074  22.48388
 Alpha virt. eigenvalues --   22.56066  22.57196  22.59575  22.60793  22.61038
 Alpha virt. eigenvalues --   22.62180  22.62266  22.64075  22.64628  22.65169
 Alpha virt. eigenvalues --   22.65837  22.65932  22.66162  22.68465  22.68755
 Alpha virt. eigenvalues --   22.69723  23.34008  23.44897  23.45561  23.46077
 Alpha virt. eigenvalues --   32.07234  32.60061  32.60999  32.61553  43.95007
 Alpha virt. eigenvalues --   44.00852  44.12830  44.12905  44.13675
  Beta  occ. eigenvalues --  -19.67449 -19.62536 -19.59454 -19.59332 -19.58768
  Beta  occ. eigenvalues --  -14.76844 -14.76778 -14.76647 -14.72240 -10.68046
  Beta  occ. eigenvalues --  -10.64089 -10.64019 -10.63790 -10.56724 -10.56695
  Beta  occ. eigenvalues --  -10.56618 -10.55967 -10.55132 -10.55065 -10.54354
  Beta  occ. eigenvalues --  -10.54248 -10.54169 -10.53630 -10.53529 -10.53354
  Beta  occ. eigenvalues --  -10.52784 -10.52782 -10.52744 -10.52739 -10.52725
  Beta  occ. eigenvalues --  -10.52641 -10.52625 -10.52332  -1.24373  -1.16742
  Beta  occ. eigenvalues --   -1.16648  -1.15724  -1.14917  -1.03258  -1.03251
  Beta  occ. eigenvalues --   -1.02743  -0.98688  -0.91950  -0.91496  -0.90950
  Beta  occ. eigenvalues --   -0.90491  -0.87635  -0.86457  -0.85883  -0.84095
  Beta  occ. eigenvalues --   -0.81353  -0.79255  -0.78062  -0.75703  -0.73469
  Beta  occ. eigenvalues --   -0.71630  -0.70027  -0.68622  -0.67550  -0.66888
  Beta  occ. eigenvalues --   -0.66352  -0.66265  -0.66209  -0.65979  -0.65924
  Beta  occ. eigenvalues --   -0.65301  -0.59326  -0.58948  -0.58537  -0.57870
  Beta  occ. eigenvalues --   -0.57605  -0.57561  -0.57444  -0.56009  -0.55663
  Beta  occ. eigenvalues --   -0.55268  -0.54857  -0.54732  -0.54075  -0.53527
  Beta  occ. eigenvalues --   -0.51846  -0.51767  -0.51394  -0.50697  -0.50675
  Beta  occ. eigenvalues --   -0.50312  -0.49695  -0.49418  -0.49068  -0.48639
  Beta  occ. eigenvalues --   -0.48489  -0.48170  -0.46594  -0.46440  -0.46356
  Beta  occ. eigenvalues --   -0.45982  -0.45434  -0.45409  -0.45072  -0.43782
  Beta  occ. eigenvalues --   -0.42491  -0.42197  -0.42056  -0.41803  -0.41395
  Beta  occ. eigenvalues --   -0.41245  -0.41120  -0.41032  -0.40804  -0.40516
  Beta  occ. eigenvalues --   -0.40367  -0.39861  -0.39510  -0.39211  -0.39131
  Beta  occ. eigenvalues --   -0.39082  -0.38920  -0.38856  -0.38230  -0.38124
  Beta  occ. eigenvalues --   -0.36536  -0.33772  -0.33451  -0.33341  -0.31969
  Beta  occ. eigenvalues --   -0.31919  -0.30741  -0.30282
  Beta virt. eigenvalues --   -0.05567   0.04765   0.05423   0.05464   0.06417
  Beta virt. eigenvalues --    0.06567   0.06573   0.06694   0.06745   0.07414
  Beta virt. eigenvalues --    0.07753   0.08240   0.08423   0.09241   0.09334
  Beta virt. eigenvalues --    0.09625   0.09963   0.10014   0.10447   0.10862
  Beta virt. eigenvalues --    0.10954   0.11214   0.11332   0.11647   0.11917
  Beta virt. eigenvalues --    0.12000   0.12273   0.12349   0.13289   0.14133
  Beta virt. eigenvalues --    0.14548   0.14700   0.15006   0.15119   0.15333
  Beta virt. eigenvalues --    0.15856   0.16222   0.16342   0.16631   0.16765
  Beta virt. eigenvalues --    0.16850   0.16896   0.17015   0.17137   0.17526
  Beta virt. eigenvalues --    0.17667   0.17768   0.18155   0.18514   0.18579
  Beta virt. eigenvalues --    0.18909   0.19003   0.19496   0.19695   0.20203
  Beta virt. eigenvalues --    0.20369   0.20721   0.21034   0.21453   0.21602
  Beta virt. eigenvalues --    0.21803   0.22098   0.22479   0.22809   0.22965
  Beta virt. eigenvalues --    0.23619   0.23717   0.23951   0.24116   0.24341
  Beta virt. eigenvalues --    0.24860   0.25339   0.25486   0.26171   0.26719
  Beta virt. eigenvalues --    0.27033   0.27272   0.27527   0.27864   0.28692
  Beta virt. eigenvalues --    0.28817   0.29009   0.29174   0.30138   0.30247
  Beta virt. eigenvalues --    0.30385   0.30777   0.30962   0.31075   0.31492
  Beta virt. eigenvalues --    0.31734   0.31848   0.32161   0.32313   0.32478
  Beta virt. eigenvalues --    0.32651   0.33041   0.33202   0.33289   0.33592
  Beta virt. eigenvalues --    0.33706   0.33936   0.34338   0.34445   0.34687
  Beta virt. eigenvalues --    0.35027   0.35438   0.35569   0.35876   0.36077
  Beta virt. eigenvalues --    0.36576   0.36765   0.37371   0.37397   0.37671
  Beta virt. eigenvalues --    0.38233   0.38444   0.38656   0.38870   0.39433
  Beta virt. eigenvalues --    0.39923   0.40386   0.40657   0.40971   0.41417
  Beta virt. eigenvalues --    0.41638   0.42189   0.42486   0.42523   0.42726
  Beta virt. eigenvalues --    0.42867   0.43050   0.43265   0.43378   0.43418
  Beta virt. eigenvalues --    0.43684   0.43933   0.44093   0.44447   0.44915
  Beta virt. eigenvalues --    0.45251   0.45329   0.45538   0.45810   0.45831
  Beta virt. eigenvalues --    0.46317   0.46484   0.46642   0.46994   0.47263
  Beta virt. eigenvalues --    0.47507   0.47826   0.48002   0.48282   0.48468
  Beta virt. eigenvalues --    0.48585   0.48732   0.48835   0.49196   0.49506
  Beta virt. eigenvalues --    0.49804   0.50069   0.50220   0.50398   0.50463
  Beta virt. eigenvalues --    0.50817   0.50947   0.51239   0.51459   0.51698
  Beta virt. eigenvalues --    0.51955   0.52249   0.52310   0.52518   0.52566
  Beta virt. eigenvalues --    0.52737   0.53081   0.53489   0.53737   0.53938
  Beta virt. eigenvalues --    0.54043   0.54207   0.54467   0.54496   0.54700
  Beta virt. eigenvalues --    0.54964   0.55121   0.55248   0.55375   0.55815
  Beta virt. eigenvalues --    0.55981   0.56366   0.56578   0.56871   0.57254
  Beta virt. eigenvalues --    0.57595   0.58175   0.58327   0.58539   0.58893
  Beta virt. eigenvalues --    0.59140   0.59709   0.60286   0.60689   0.61122
[...]
   D173      -0.02638   0.00001   0.00000   0.00003   0.00003  -0.02635
   D174       3.10780  -0.00009   0.00000  -0.00017  -0.00017   3.10763
   D175       0.08529  -0.00010   0.00000  -0.00017  -0.00017   0.08512
   D176      -0.04623  -0.00008   0.00000  -0.00014  -0.00014  -0.04637
   D177      -3.06874  -0.00008   0.00000  -0.00015  -0.00015  -3.06889
   D178      -1.01256  -0.00000   0.00000  -0.00001  -0.00001  -1.01257
   D179       1.11662   0.00000   0.00000   0.00000   0.00000   1.11663
   D180       3.14038   0.00002   0.00000   0.00004   0.00004   3.14042
   D181       1.01409  -0.00002   0.00000  -0.00004  -0.00004   1.01406
   D182      -3.13991  -0.00002   0.00000  -0.00003  -0.00003  -3.13994
   D183      -1.11615   0.00000   0.00000   0.00001   0.00001  -1.11614
   D184      -3.14103  -0.00001   0.00000  -0.00001  -0.00001  -3.14105
   D185      -1.01185  -0.00000   0.00000  -0.00001  -0.00001  -1.01186
   D186       1.01191   0.00002   0.00000   0.00003   0.00003   1.01194
   D187       1.01704  -0.00003   0.00000  -0.00005  -0.00005   1.01698
   D188      -1.01164   0.00002   0.00000   0.00003   0.00003  -1.01161
   D189      -1.12461  -0.00001   0.00000  -0.00002  -0.00002  -1.12463
   D190       3.12989   0.00004   0.00000   0.00006   0.00006   3.12996
   D191      -3.12505  -0.00003   0.00000  -0.00006  -0.00006  -3.12511
   D192       1.12945   0.00002   0.00000   0.00003   0.00003   1.12948
   D193      -3.13802  -0.00001   0.00000  -0.00002  -0.00002  -3.13803
   D194       1.01629   0.00001   0.00000   0.00002   0.00002   1.01632
   D195      -1.00967   0.00002   0.00000   0.00004   0.00004  -1.00963
   D196       1.02169   0.00000   0.00000   0.00000   0.00000   1.02169
   D197      -1.10719   0.00002   0.00000   0.00004   0.00004  -1.10715
   D198      -3.13315   0.00003   0.00000   0.00006   0.00006  -3.13309
   D199      -1.01402  -0.00003   0.00000  -0.00006  -0.00006  -1.01408
   D200       3.14029  -0.00001   0.00000  -0.00002  -0.00002   3.14027
   D201       1.11433  -0.00000   0.00000  -0.00000  -0.00000   1.11433
         Item               Value     Threshold  Converged?
 Maximum Force            0.028357     0.000450     NO 
 RMS     Force            0.001432     0.000300     NO 
 Maximum Displacement     0.059319     0.001800     NO 
 RMS     Displacement     0.003724     0.001200     NO 
 Predicted change in Energy=-2.507936D-04
 GradGradGradGradGradGradGradGradGradGradGradGradGradGradGradGradGradGrad

 Symmetry turned off by external request.
 Stoichiometry    C24H45N4O5(2)
 Framework group  C1[X(C24H45N4O5)]
 Deg. of freedom   228
 Full point group                 C1      NOp   1
                          Input orientation:                          
 ---------------------------------------------------------------------
 Center     Atomic      Atomic             Coordinates (Angstroms)
 Number     Number       Type             X           Y           Z
 ---------------------------------------------------------------------
      1          6           0       -0.309357    0.404399    1.298126
      2          6           0        0.704284    0.793414    2.364478
      3          6           0        0.049778    1.132594    3.689556
      4          6           0        0.233694    2.428625    5.762858
      5          6           0        0.760261    1.467493    6.821428
      6          6           0        0.260332    1.818168    8.216330
      7          8           0       -0.964778    0.569946    4.075605
      8          7           0        0.668344    2.083408    4.421320
      9          1           0        1.525182    2.478273    4.071130
     10          6           0        0.363296   -0.017012   -0.001260
     11          6           0       -0.652511   -0.405893   -1.061148
     12          6           0       -0.021707   -0.835502   -2.355868
     13          6           0        0.817290    0.240332   11.731255
     14          6           0        0.278236    1.205872   10.681406
     15          6           0        0.785050    0.868288    9.285863
     16          8           0        1.169141   -0.887413   -2.582727
     17          8           0       -0.944628   -1.170658   -3.274910
     18          1           0       -0.480915   -1.438707   -4.082418
     19          1           0       -0.931202   -0.406809    1.680814
     20          1           0       -0.980979    1.247356    1.111111
     21          1           0        1.381044   -0.046214    2.553443
     22          1           0        1.322225    1.626784    2.023371
     23          1           0       -0.856876    2.423815    5.768570
     24          1           0        0.565435    3.446288    5.972463
     25          1           0        0.444574    0.454718    6.557316
     26          1           0        1.854190    1.478845    6.805015
     27          1           0       -0.834405    1.801299    8.222965
     28          1           0        0.556942    2.842332    8.466155
     29          1           0        1.032029   -0.860982    0.184248
     30          1           0        0.988875    0.794260   -0.381388
     31          1           0       -1.289275   -1.226602   -0.719714
     32          1           0       -1.330850    0.421582   -1.286482
     33          1           0        0.508506   -0.780120   11.500102
     34          1           0        1.907894    0.267524   11.729322
     35          1           0       -0.815334    1.177952   10.696012
     36          1           0        0.580451    2.220065   10.954825
     37          1           0        0.495398   -0.156533    9.030099
     38          1           0        1.879784    0.889707    9.282572
     39          6           0        0.323179    2.780662   17.426252
     40          6           0        0.977875    3.802449   18.341389
     41          6           0        0.343537    3.848059   19.718803
     42          6           0        0.071325    5.167081   21.768371
     43          6           0        1.041602    4.577100   22.784405
     44          6           0        0.535367    4.725592   24.212721
     45          8           0       -0.273216    2.902628   20.187643
     46          7           0        0.517034    5.002922   20.396596
     47          1           0        1.076385    5.726609   19.976394
     48          6           0        1.000223    2.727705   16.062665
     49          6           0        0.396419    1.733431   15.145872
     50          6           0        0.978613    1.497823   13.833217
     51          6           0        1.958590    3.717815   27.705056
     52          6           0        0.990228    4.290922   26.676247
     53          6           0        1.496011    4.150412   25.246174
     54          8           0        1.970880    2.110902   13.438553
     55          7           0        0.370028    0.549075   13.074225
     56          1           0       -0.474501    0.123043   13.417447
     57          1           0        0.359314    1.798795   17.900346
     58          1           0       -0.734377    3.027334   17.302963
     59          1           0        2.034926    3.553857   18.481883
     60          1           0        0.949634    4.797199   17.890257
     61          1           0       -0.900303    4.680178   21.860547
     62          1           0       -0.070680    6.233050   21.950755
     63          1           0        1.189493    3.519934   22.548720
     64          1           0        2.012885    5.070124   22.680778
     65          1           0       -0.435850    4.228591   24.305627
     66          1           0        0.362094    5.784955   24.431028
     67          1           0        2.068717    2.505536   16.173486
     68          1           0        0.974526    3.716210   15.585194
     69          1           0       -0.484977    1.180040   15.446697
     70          1           0        2.137687    2.661976   27.485600
     71          1           0        2.925101    4.220252   27.612017
     72          1           0        0.023690    3.785091   26.775400
     73          1           0        0.814074    5.348272   26.902307
     74          1           0        1.671809    3.092393   25.025529
     75          1           0        2.466289    4.649961   25.153868
     76          7           0        1.528852    3.821984   29.098554
     77          1           0        0.639154    3.349415   29.218256
     78          1           0        1.365377    4.795059   29.334365
 ---------------------------------------------------------------------
 Rotational constants (GHZ):           0.8946160           0.0110817           0.0110452
 Standard basis: def2TZVP (5D, 7F)
  1293 basis functions,  2043 primitive gaussians,  1458 cartesian basis functions
   129 alpha electrons      128 beta electrons
       nuclear repulsion energy      2786.8578194143 Hartrees.
 NAtoms=   78 NActive=   78 NUniq=   78 SFac= 1.00D+00 NAtFMM=   60 NAOKFM=T Big=T
 Integral buffers will be    131072 words long.
 Raffenetti 2 integral format.
 Two-electron integral symmetry is turned off.
 ------------------------------------------------------------------------------
 Polarizable Continuum Model (PCM)
 =================================
 Model                : PCM.
 Atomic radii         : UFF (Universal Force Field).
 Polarization charges : Total charges.
 Charge compensation  : None.
 Solution method      : On-the-fly selection.
 Cavity type          : Scaled VdW (van der Waals Surface) (Alpha=1.100).
 Cavity algorithm     : GePol (No added spheres)
                        Default sphere list used, NSphG=   78.
                        Lebedev-Laikov grids with approx.  5.0 points / Ang**2.
                        Smoothing algorithm: York/Karplus (Gamma=1.0000).
                        Polarization charges: spherical gaussians, with
                                              point-specific exponents (IZeta= 3).
                        Self-potential: point-specific (ISelfS= 7).
                        Self-field    : sphere-specific E.n sum rule (ISelfD= 2).
 1st derivatives      : Analytical E(r).r(x)/FMM algorithm (CHGder, D1EAlg=3).
                        Cavity 1st derivative terms included.
 Solvent              : FluoroBenzene, Eps=   5.420000 Eps(inf)=   2.156199
 ------------------------------------------------------------------------------
 One-electron integrals computed using PRISM.
   1 Symmetry operations used in ECPInt.
 ECPInt:  NShTT=  147696 NPrTT=  433776 LenC2=   68311 LenP2D=  138752.
 LDataN:  DoStor=T MaxTD1= 6 Len=  172
 NBasis=  1293 RedAO= T EigKep=  3.62D-05  NBF=  1293
 NBsUse=  1293 1.00D-06 EigRej= -1.00D+00 NBFU=  1293
 Initial guess from the checkpoint file:  "/dev/shm/nylon66_dimer_49_69_f2_fb.chk"
 B after Tr=     0.003603    0.000083   -0.000262
         Rot=    1.000000   -0.000006    0.000049   -0.000060 Ang=  -0.01 deg.
 Initial guess <Sx>= 0.0000 <Sy>= 0.0000 <Sz>= 0.5000 <S**2>= 0.7564 S= 0.5032
 ExpMin= 9.52D-02 ExpMax= 2.70D+04 ExpMxC= 9.22D+02 IAcc=3 IRadAn=         5 AccDes= 0.00D+00
 Harris functional with IExCor= 1009 and IRadAn=       5 diagonalized for initial guess.
 HarFok:  IExCor= 1009 AccDes= 0.00D+00 IRadAn=         5 IDoV= 1 UseB2=F ITyADJ=14
 ICtDFT=  3500011 ScaDFX=  1.000000  1.000000  1.000000  1.000000
 FoFCou: FMM=F IPFlag=           0 FMFlag=      100000 FMFlg1=        2001
         NFxFlg=           0 DoJE=T BraDBF=F KetDBF=T FulRan=T
         wScrn=  0.000000 ICntrl=       500 IOpCl=  0 I1Cent=   200000004 NGrid=           0
         NMat0=    1 NMatS0=      1 NMatT0=    0 NMatD0=    1 NMtDS0=    0 NMtDT0=    0
 Symmetry not used in FoFCou.
 Requested convergence on RMS density matrix=1.00D-08 within  32 cycles.
 Requested convergence on MAX density matrix=1.00D-06.
 Requested convergence on             energy=1.00D-06.
 No special actions if energy rises.
 Inv3:  Mode=1 IEnd=    85739148.
 Iteration    1 A*A^-1 deviation from unit magnitude is 3.66D-15 for    218.
 Iteration    1 A*A^-1 deviation from orthogonality  is 2.66D-15 for   4120   2678.
 Iteration    1 A^-1*A deviation from unit magnitude is 3.55D-15 for   3205.
 Iteration    1 A^-1*A deviation from orthogonality  is 1.37D-13 for   5073   5055.
 Error on total polarization charges =  0.02278
 SCF Done:  E(UM062X) =  -1536.77154427     A.U. after    9 cycles
            NFock=  9  Conv=0.52D-08     -V/T= 2.0049
 <Sx>= 0.0000 <Sy>= 0.0000 <Sz>= 0.5000 <S**2>= 0.7564 S= 0.5032
 <L.S>= 0.000000000000E+00
 Annihilation of the first spin contaminant:
 S**2 before annihilation     0.7564,   after     0.7500
 QCSCF skips out because SCF is already converged.
   1 Symmetry operations used in ECPInt.
 ECPInt:  NShTT=  147696 NPrTT=  433776 LenC2=   68311 LenP2D=  138752.
 LDataN:  DoStor=T MaxTD1= 7 Len=  274
 D1PCM: PCM CHGder 1st derivatives, ID1Alg=3 FixD1E=F DoIter=F DoCFld=F I1PDM=0.
 Calling FoFJK, ICntrl=      2127 FMM=T ISym2X=0 I1Cent= 0 IOpClX= 1 NMat=1 NMatS=1 NMatT=0.
 -------------------------------------------------------------------
 Center     Atomic                   Forces (Hartrees/Bohr)
 Number     Number              X              Y              Z
 -------------------------------------------------------------------
      1        6          -0.000255161    0.000053400   -0.000009879
      2        6          -0.000020205    0.000019450    0.000028247
      3        6           0.000117246    0.000216914   -0.000191968
      4        6          -0.000001566   -0.000061662   -0.000069166
      5        6          -0.000024887   -0.000009664    0.000071063
      6        6           0.000026245   -0.000087931   -0.000019010
      7        8          -0.000249045   -0.000284620    0.000156288
      8        7           0.000099927    0.000095183    0.000015718
      9        1           0.000031562   -0.000027195    0.000043849
     10        6           0.000068527    0.000010341    0.000054237
     11        6           0.000783548   -0.000127178   -0.000466163
     12        6           0.013194273   -0.001084922   -0.003947592
     13        6          -0.000123516   -0.000149323   -0.000114492
     14        6           0.000086150   -0.000116361   -0.000068351
     15        6           0.000043037   -0.000047507   -0.000037785
     16        8          -0.017403372    0.000557417    0.002745943
     17        8           0.003040707    0.000787287    0.002077027
     18        1           0.000192813   -0.000057912   -0.000169011
     19        1           0.000105509   -0.000075101    0.000033539
     20        1           0.000082379    0.000063349   -0.000027786
     21        1           0.000018112    0.000009280   -0.000034047
     22        1           0.000056410   -0.000049122   -0.000017038
     23        1          -0.000001680    0.000032450    0.000023449
     24        1          -0.000029062    0.000007784    0.000006627
     25        1           0.000011280    0.000005051   -0.000034205
     26        1           0.000000076    0.000017985   -0.000006671
     27        1          -0.000001326    0.000068205    0.000023272
     28        1          -0.000035576    0.000013610   -0.000007601
     29        1           0.000007787    0.000039246   -0.000031148
     30        1           0.000016644   -0.000043349    0.000024094
     31        1           0.000094235   -0.000113323   -0.000108801
     32        1           0.000075664    0.000009552   -0.000159075
     33        1          -0.000034467    0.000012832    0.000015741
     34        1           0.000003567    0.000111169    0.000054075
     35        1          -0.000002729    0.000103144    0.000051966
     36        1          -0.000064659    0.000018794    0.000016036
     37        1          -0.000025504    0.000008899    0.000004117
     38        1          -0.000001076    0.000051827    0.000031738
     39        6          -0.000168931    0.000151538    0.000018957
     40        6           0.000013650   -0.000030502   -0.000031212
     41        6          -0.000215426    0.000190089   -0.000197672
     42        6          -0.000032855   -0.000217984   -0.000016394
     43        6          -0.000067274    0.000125571   -0.000047703
     44        6          -0.000062216   -0.000008214    0.000007629
     45        8           0.000056617   -0.000203912    0.000130183
     46        7           0.000108191    0.000117265    0.000025989
     47        1          -0.000043106    0.000018128   -0.000016027
     48        6           0.000011219   -0.000118287   -0.000012795
     49        6          -0.000159475    0.000048839    0.000060922
     50        6          -0.000503729   -0.000241012    0.000276611
     51        6           0.000016608    0.000029448    0.000061385
     52        6          -0.000111310   -0.000016511   -0.000017467
     53        6           0.000015691    0.000096882    0.000037974
     54        8           0.000819668    0.000432589   -0.000257241
     55        7          -0.000085649   -0.000127583   -0.000132762
     56        1           0.000061560   -0.000072631    0.000048072
     57        1           0.000083021   -0.000008871   -0.000020294
     58        1          -0.000001181   -0.000025318   -0.000014082
     59        1          -0.000009153   -0.000035835    0.000023478
     60        1           0.000100768    0.000020509    0.000031693
     61        1          -0.000019028    0.000057624    0.000035172
     62        1           0.000035168    0.000007371    0.000003689
     63        1           0.000049764    0.000003737    0.000004192
     64        1           0.000031055   -0.000055433    0.000035586
     65        1           0.000023430   -0.000043100    0.000014868
     66        1           0.000027573    0.000008356   -0.000018585
     67        1           0.000000923    0.000005295    0.000045233
     68        1           0.000029279    0.000009839    0.000004571
     69        1           0.000023064   -0.000023922    0.000036797
     70        1          -0.000006043    0.000005099   -0.000022996
     71        1          -0.000001005   -0.000002068   -0.000022978
     72        1           0.000023866   -0.000041612    0.000006124
     73        1           0.000048750    0.000010278   -0.000009477
     74        1           0.000000538    0.000004670   -0.000025005
     75        1           0.000020857   -0.000040825   -0.000000270
     76        7           0.000079095   -0.000051056    0.000015777
     77        1          -0.000026853    0.000045419   -0.000006389
     78        1          -0.000048991   -0.000001868   -0.000012787
 -------------------------------------------------------------------
 Cartesian Forces:  Max     0.017403372 RMS     0.001489496

 GradGradGradGradGradGradGradGradGradGradGradGradGradGradGradGradGradGrad
 Berny optimization.
 Using GEDIIS/GDIIS optimizer.
 FormGI is forming the generalized inverse of G from B-inverse, IUseBI=4.
 Internal  Forces:  Max     0.017618777 RMS     0.000886908
 Search for a local minimum.
 Step number  18 out of a maximum of  430
 All quantities printed in internal units (Hartrees-Bohrs-Radians)
 Mixed Optimization -- En-DIIS/RFO-DIIS
 Update second derivatives using D2CorX and points    2    3    4    5    7
                                                      8    9   10   11   12
                                                     13   14   15   16   17
                                                     18    6
 ITU=  0  0  0  0  0  0  0  0  0 -1  0 -1  1 -1  1  0  1  0
 Use linear search instead of GDIIS.
 Skip linear search -- no minimum in search direction.
 Steepest descent instead of Quadratic search.
 Steepest descent step scaled to max of 0.05000.
 Iteration  1 RMS(Cart)=  0.00289994 RMS(Int)=  0.00000239
 Iteration  2 RMS(Cart)=  0.00002130 RMS(Int)=  0.00000001
 Iteration  3 RMS(Cart)=  0.00000000 RMS(Int)=  0.00000001
