 Entering Gaussian System, Link 0=g16
 Initial command:
 /nopt/nrel/apps/gaussian/g16B/g16/l1.exe "/dev/shm/Gau-301637.inp" -scrdir="/dev/shm/"
 Default is to use a total of  36 processors:
                               36 via shared-memory
                                1 via Linda
 Entering Link 1 = /nopt/nrel/apps/gaussian/g16B/g16/l1.exe PID=    301639.
  
 Copyright (c) 1988-2017, Gaussian, Inc.  All Rights Reserved.
  
 This is part of the Gaussian(R) 16 program.  It is based on
 the Gaussian(R) 09 system (copyright 2009, Gaussian, Inc.),
 the Gaussian(R) 03 system (copyright 2003, Gaussian, Inc.),
 the Gaussian(R) 98 system (copyright 1998, Gaussian, Inc.),
 the Gaussian(R) 94 system (copyright 1995, Gaussian, Inc.),
 the Gaussian 92(TM) system (copyright 1992, Gaussian, Inc.),
 the Gaussian 90(TM) system (copyright 1990, Gaussian, Inc.),
 the Gaussian 88(TM) system (copyright 1988, Gaussian, Inc.),
 the Gaussian 86(TM) system (copyright 1986, Carnegie Mellon
 University), and the Gaussian 82(TM) system (copyright 1983,
 Carnegie Mellon University). Gaussian is a federally registered
 trademark of Gaussian, Inc.
  
 This software contains proprietary and confidential information,
 including trade secrets, belonging to Gaussian, Inc.
  
 This software is provided under written license and may be
 used, copied, transmitted, or stored only in accord with that
 written license.
  
 The following legend is applicable only to US Government
 contracts under FAR:
  
                    RESTRICTED RIGHTS LEGEND
  
 Use, reproduction and disclosure by the US Government is
 subject to restrictions as set forth in subparagraphs (a)
 and (c) of the Commercial Computer Software - Restricted
 Rights clause in FAR 52.227-19.
  
 Gaussian, Inc.
 340 Quinnipiac St., Bldg. 40, Wallingford CT 06492
  
  
 ---------------------------------------------------------------
 Warning -- This program may not be used in any manner that
 competes with the business of Gaussian, Inc. or will provide
 assistance to any competitor of Gaussian, Inc.  The licensee
 of this program is prohibited from giving any competitor of
 Gaussian, Inc. access to this program.  By using this program,
 the user acknowledges that Gaussian, Inc. is engaged in the
 business of creating and licensing software in the field of
 computational chemistry and represents and warrants to the
 licensee that it is not a competitor of Gaussian, Inc. and that
 it will not use this program in any manner prohibited above.
 ---------------------------------------------------------------
  

 Cite this work as:
 Gaussian 16, Revision B.01,
 M. J. Frisch, G. W. Trucks, H. B. Schlegel, G. E. Scuseria, 
 M. A. Robb, J. R. Cheeseman, G. Scalmani, V. Barone, 
 G. A. Petersson, H. Nakatsuji, X. Li, M. Caricato, A. V. Marenich, 
 J. Bloino, B. G. Janesko, R. Gomperts, B. Mennucci, H. P. Hratchian, 
 J. V. Ortiz, A. F. Izmaylov, J. L. Sonnenberg, D. Williams-Young, 
 F. Ding, F. Lipparini, F. Egidi, J. Goings, B. Peng, A. Petrone, 
 T. Henderson, D. Ranasinghe, V. G. Zakrzewski, J. Gao, N. Rega, 
 G. Zheng, W. Liang, M. Hada, M. Ehara, K. Toyota, R. Fukuda, 
 J. Hasegawa, M. Ishida, T. Nakajima, Y. Honda, O. Kitao, H. Nakai, 
 T. Vreven, K. Throssell, J. A. Montgomery, Jr., J. E. Peralta, 
 F. Ogliaro, M. J. Bearpark, J. J. Heyd, E. N. Brothers, K. N. Kudin, 
 V. N. Staroverov, T. A. Keith, R. Kobayashi, J. Normand, 
 K. Raghavachari, A. P. Rendell, J. C. Burant, S. S. Iyengar, 
 J. Tomasi, M. Cossi, J. M. Millam, M. Klene, C. Adamo, R. Cammi, 
 J. W. Ochterski, R. L. Martin, K. Morokuma, O. Farkas, 
 J. B. Foresman, and D. J. Fox, Gaussian, Inc., Wallingford CT, 2016.
 
 ******************************************
 Gaussian 16:  ES64L-G16RevB.01 20-Dec-2017
                 7-Jul-2019 
 ******************************************
 %RWF=/dev/shm/,5GB,/tmp/scratch/963067/,-1
 %NoSave
 %OldChk=nylon66_dimer_49_69_f2.chk
 %Chk=/dev/shm/nylon66_dimer_49_69_f2_fb.chk
 Copying data from "nylon66_dimer_49_69_f2.chk" to current chk file "/dev/shm/nylon66_dimer_49_69_f2_fb.chk"
 IOpt=  2 FromEx=T IUOpen= 4 IOptOp= 5 NList=   0 IFRang= 0 IUIn= 4 IUOut= 2.
 Default route: CacheSize=180224 MaxDisk=256GB
 ----------------------------------------------------------------------
 # geom=allcheck guess=read m062x/Def2TZVP nosymm scf=xqc opt=ReadFC fr
 eq=NoRaman SCRF=(Solvent=FluoroBenzene)
 ----------------------------------------------------------------------
 1/4=180224,10=3,18=20,19=15,26=3,29=7,38=1/1,3;
 2/4=180224,9=110,12=2,15=1,40=1/2;
 3/4=180224,5=44,7=101,11=2,14=-4,25=1,30=1,70=2201,71=1,72=121,74=-55,116=-2/1,2,3;
 4/4=180224,5=1/1;
 5/4=180224,5=2,8=3,13=1,38=6,53=121/2,8;
 6/4=180224,7=2,8=2,9=2,10=2,28=1/1;
 7/4=180224,30=1/1,2,3,16;
 1/4=180224,18=20,19=15,26=3/3(2);
 2/4=180224,9=110,15=1/2;
 99/4=180224/99;
 2/4=180224,9=110,15=1/2;
 3/4=180224,5=44,7=101,11=2,14=-2,25=1,30=1,70=2205,71=1,72=121,74=-55/1,2,3;
 4/4=180224,5=5,16=3,69=1/1;
 5/4=180224,5=2,8=3,13=1,38=5,53=121/2,8;
 7/4=180224,30=1/1,2,3,16;
 1/4=180224,18=20,19=15,26=3/3(-5);
 2/4=180224,9=110,15=1/2;
 6/4=180224,7=2,8=2,9=2,10=2,19=2,28=1/1;
 99/4=180224,9=1/99;
 Structure from the checkpoint file:  "/dev/shm/nylon66_dimer_49_69_f2_fb.chk"
 ----------------------------------------------------------------------
 radical calculation of fragment 2 from fragment pair [49, 69] and nylo
 n66_dimer.com
 ----------------------------------------------------------------------
 Charge =  0 Multiplicity = 2
 Redundant internal coordinates found in file.  (old form).
 C,0,-0.1964980046,0.3693756347,1.3816375785
 C,0,0.7973818721,0.8736101213,2.4171174278
 C,0,0.1287210746,1.1991573625,3.7407940771
 C,0,0.272439958,2.4896162259,5.8165955032
 C,0,0.7549535991,1.5044547441,6.8740469968
 C,0,0.2141767839,1.8393086344,8.2573607444
 O,0,-0.8746417059,0.627478144,4.1203523588
 N,0,0.7346638664,2.1625356694,4.4804571357
 H,0,1.597067528,2.556617941,4.1465068343
 C,0,0.4865282269,-0.0515693887,0.0879280047
 C,0,-0.5104429861,-0.5559244588,-0.9409577995
 C,0,0.1414234692,-0.9772286563,-2.2288154166
 C,0,0.6458797859,0.2298590401,11.7763322327
 C,0,0.1493974805,1.205242038,10.7146840433
 C,0,0.6937872006,0.8721145765,9.3324630992
 O,0,1.3148536742,-0.9333656245,-2.4703663736
 O,0,-0.7615022163,-1.4270423905,-3.1220884643
 H,0,-0.2729036978,-1.6782337298,-3.9190400198
 H,0,-0.7520622419,-0.4656102398,1.8122737028
 H,0,-0.932927677,1.1521737011,1.1784065233
 H,0,1.5453411305,0.0996092662,2.6186238729
 H,0,1.3399337395,1.7452114478,2.0419919529
 H,0,-0.8181268865,2.494451742,5.7917770999
 H,0,0.6067285845,3.501147305,6.0538287688
 H,0,0.4334523049,0.5023828488,6.579168344
 H,0,1.8492943822,1.5012663703,6.8934843981
 H,0,-0.8802855574,1.8338025311,8.2274736928
 H,0,0.510414273,2.857260034,8.532818877
 H,0,1.2210999146,-0.8352076425,0.2890456166
 H,0,1.0475466569,0.7844574619,-0.3369232305
 H,0,-1.0769897434,-1.4113028227,-0.5630195105
 H,0,-1.2552905643,0.2067379051,-1.1847594835
 H,0,0.325956762,-0.7869534349,11.5413147222
 H,0,1.7367789325,0.2416367085,11.7980601343
 H,0,-0.9448752087,1.1938233771,10.6964601517
 H,0,0.4586138398,2.2118589088,11.0065616309
 H,0,0.4011446149,-0.1465939323,9.0558359515
 H,0,1.7881894636,0.8809832289,9.3643918234
 C,0,0.1474901007,2.9206892126,17.3964942197
 C,0,0.759489797,4.0158247409,18.2535227859
 C,0,0.2036610971,4.0213701299,19.6670899043
 C,0,0.049660468,5.2714548855,21.7676433446
 C,0,1.0516822101,4.6125864929,22.7076519913
 C,0,0.6136928186,4.6971940616,24.1634673897
 O,0,-0.3888850409,3.0727970216,20.1418960767
 N,0,0.4223628021,5.1628781502,20.3695808289
 H,0,0.9784817708,5.8877294853,19.9495553074
 C,0,0.7400760612,2.8957928803,15.993513341
 C,0,0.1699274101,1.8332623391,15.1337368822
 C,0,0.7712575065,1.5468367369,13.8378131027
 C,0,2.1687333705,3.477105367,27.5325916508
 C,0,1.16744184,4.1218102444,26.5788633978
 C,0,1.6060848994,4.0503006544,25.1217927854
 O,0,1.7542967584,2.1519253147,13.4286956725
 N,0,0.1812479474,0.5531325562,13.109591927
 H,0,-0.6745080188,0.1476817387,13.4463331722
 H,0,0.2996800455,1.9595076917,17.889689043
 H,0,-0.9342180037,3.0667527614,17.3434063519
 H,0,1.8427707363,3.8726396851,18.3264678592
 H,0,0.606521742,4.997375955,17.7960380803
 H,0,-0.9257335035,4.7966798845,21.8823730579
 H,0,-0.0632541941,6.3301479316,22.0082171336
 H,0,1.1615574177,3.5664618317,22.4110815013
 H,0,2.029922418,5.0882173704,22.5851928219
 H,0,-0.3627168225,4.2144661592,24.2744655996
 H,0,0.4720690661,5.746680651,24.4448008728
 H,0,1.8284350957,2.7706365547,16.0269187793
 H,0,0.5952852333,3.8672834081,15.5004197662
 H,0,-0.7035168329,1.2806117297,15.4596246026
 H,0,2.3197027009,2.4324890915,27.2476767551
 H,0,3.1405801526,3.9658191909,27.4223675084
 H,0,0.1955799265,3.6294906575,26.6941339893
 H,0,1.0211657378,5.168473754,26.8683250838
 H,0,1.7503728624,3.0030172033,24.836775486
 H,0,2.582483792,4.5344289482,25.0125211822
 N,0,1.8093351716,3.5084480743,28.9454876909
 H,0,0.9267602577,3.033241483,29.0949369713
 H,0,1.6822285742,4.4649453233,29.2554740819
 Recover connectivity data from disk.

 GradGradGradGradGradGradGradGradGradGradGradGradGradGradGradGradGradGrad
 Berny optimization.
 Initialization pass.
 Force constant matrix read from checkpoint file:
 "/dev/shm/nylon66_dimer_49_69_f2_fb.chk"
                           ----------------------------
                           !    Initial Parameters    !
                           ! (Angstroms and Degrees)  !
 --------------------------                            --------------------------
 ! Name  Definition              Value          Derivative Info.                !
 --------------------------------------------------------------------------------
 ! R1    R(1,2)                  1.5213         D2E/DX2 =    0.2982             !
 ! R2    R(1,10)                 1.5223         D2E/DX2 =    0.2973             !
 ! R3    R(1,19)                 1.0915         D2E/DX2 =    0.3415             !
 ! R4    R(1,20)                 1.0938         D2E/DX2 =    0.3346             !
 ! R5    R(2,3)                  1.5183         D2E/DX2 =    0.2864             !
 ! R6    R(2,21)                 1.095          D2E/DX2 =    0.3335             !
 ! R7    R(2,22)                 1.0931         D2E/DX2 =    0.3371             !
 ! R8    R(3,7)                  1.2156         D2E/DX2 =    0.816              !
 ! R9    R(3,8)                  1.3573         D2E/DX2 =    0.4643             !
 ! R10   R(4,5)                  1.5237         D2E/DX2 =    0.2892             !
 ! R11   R(4,8)                  1.4512         D2E/DX2 =    0.3513             !
 ! R12   R(4,23)                 1.0909         D2E/DX2 =    0.3432             !
 ! R13   R(4,24)                 1.0914         D2E/DX2 =    0.3401             !
 ! R14   R(5,6)                  1.5225         D2E/DX2 =    0.2939             !
 ! R15   R(5,25)                 1.0929         D2E/DX2 =    0.3385             !
 ! R16   R(5,26)                 1.0945         D2E/DX2 =    0.3331             !
 ! R17   R(6,15)                 1.5236         D2E/DX2 =    0.2943             !
 ! R18   R(6,27)                 1.0949         D2E/DX2 =    0.3325             !
 ! R19   R(6,28)                 1.0954         D2E/DX2 =    0.331              !
 ! R20   R(8,9)                  1.0053         D2E/DX2 =    0.4793             !
 ! R21   R(10,11)                1.5189         D2E/DX2 =    0.302              !
 ! R22   R(10,29)                1.0928         D2E/DX2 =    0.3376             !
 ! R23   R(10,30)                1.0928         D2E/DX2 =    0.3375             !
 ! R24   R(11,12)                1.5037         D2E/DX2 =    0.301              !
 ! R25   R(11,31)                1.0934         D2E/DX2 =    0.3386             !
 ! R26   R(11,32)                1.0936         D2E/DX2 =    0.3377             !
 ! R27   R(12,16)                1.1988         D2E/DX2 =    0.8997             !
 ! R28   R(12,17)                1.3474         D2E/DX2 =    0.4129             !
 ! R29   R(13,14)                1.5248         D2E/DX2 =    0.2875             !
 ! R30   R(13,33)                1.0916         D2E/DX2 =    0.3397             !
 ! R31   R(13,34)                1.0912         D2E/DX2 =    0.3423             !
 ! R32   R(13,55)                1.4484         D2E/DX2 =    0.355              !
 ! R33   R(14,15)                1.5225         D2E/DX2 =    0.2939             !
 ! R34   R(14,35)                1.0945         D2E/DX2 =    0.3332             !
 ! R35   R(14,36)                1.0927         D2E/DX2 =    0.339              !
 ! R36   R(15,37)                1.0954         D2E/DX2 =    0.3309             !
 ! R37   R(15,38)                1.0949         D2E/DX2 =    0.3324             !
 ! R38   R(17,18)                0.968          D2E/DX2 =    0.5209             !
 ! R39   R(39,40)                1.5193         D2E/DX2 =    0.301              !
 ! R40   R(39,48)                1.5232         D2E/DX2 =    0.2981             !
 ! R41   R(39,57)                1.091          D2E/DX2 =    0.3424             !
 ! R42   R(39,58)                1.0928         D2E/DX2 =    0.3375             !
 ! R43   R(40,41)                1.5189         D2E/DX2 =    0.2862             !
 ! R44   R(40,59)                1.0951         D2E/DX2 =    0.3338             !
 ! R45   R(40,60)                1.0937         D2E/DX2 =    0.336              !
 ! R46   R(41,45)                1.215          D2E/DX2 =    0.8191             !
 ! R47   R(41,46)                1.3581         D2E/DX2 =    0.462              !
 ! R48   R(42,43)                1.5237         D2E/DX2 =    0.2892             !
 ! R49   R(42,46)                1.451          D2E/DX2 =    0.3522             !
 ! R50   R(42,61)                1.0909         D2E/DX2 =    0.343              !
 ! R51   R(42,62)                1.0915         D2E/DX2 =    0.3399             !
 ! R52   R(43,44)                1.5226         D2E/DX2 =    0.2939             !
 ! R53   R(43,63)                1.0929         D2E/DX2 =    0.338              !
 ! R54   R(43,64)                1.0946         D2E/DX2 =    0.3327             !
 ! R55   R(44,53)                1.5237         D2E/DX2 =    0.2942             !
 ! R56   R(44,65)                1.0949         D2E/DX2 =    0.3325             !
 ! R57   R(44,66)                1.0957         D2E/DX2 =    0.33               !
 ! R58   R(46,47)                1.0055         D2E/DX2 =    0.4783             !
 ! R59   R(48,49)                1.481          D2E/DX2 =    0.325              !
 ! R60   R(48,67)                1.096          D2E/DX2 =    0.3305             !
 ! R61   R(48,68)                1.099          D2E/DX2 =    0.3221             !
 ! R62   R(49,50)                1.4571         D2E/DX2 =    0.3362             !
 ! R63   R(49,69)                1.0838         D2E/DX2 =    0.3592             !
 ! R64   R(50,54)                1.2247         D2E/DX2 =    0.7698             !
 ! R65   R(50,55)                1.366          D2E/DX2 =    0.4478             !
 ! R66   R(51,52)                1.5257         D2E/DX2 =    0.2831             !
 ! R67   R(51,70)                1.0932         D2E/DX2 =    0.3355             !
 ! R68   R(51,71)                1.0934         D2E/DX2 =    0.3353             !
 ! R69   R(51,76)                1.4582         D2E/DX2 =    0.3449             !
 ! R70   R(52,53)                1.5233         D2E/DX2 =    0.292              !
 ! R71   R(52,72)                1.0955         D2E/DX2 =    0.3309             !
 ! R72   R(52,73)                1.0958         D2E/DX2 =    0.33               !
 ! R73   R(53,74)                1.0949         D2E/DX2 =    0.3322             !
 ! R74   R(53,75)                1.0953         D2E/DX2 =    0.3313             !
 ! R75   R(55,56)                1.005          D2E/DX2 =    0.48               !
 ! R76   R(76,77)                1.0135         D2E/DX2 =    0.4528             !
 ! R77   R(76,78)                1.0135         D2E/DX2 =    0.4525             !
 ! A1    A(2,1,10)             112.1466         D2E/DX2 =    0.1315             !
 ! A2    A(2,1,19)             108.5153         D2E/DX2 =    0.0487             !
 ! A3    A(2,1,20)             109.2155         D2E/DX2 =    0.0494             !
 ! A4    A(10,1,19)            110.6184         D2E/DX2 =    0.0461             !
 ! A5    A(10,1,20)            110.0035         D2E/DX2 =    0.0471             !
 ! A6    A(19,1,20)            106.1469         D2E/DX2 =    0.0184             !
 ! A7    A(1,2,3)              112.1334         D2E/DX2 =    0.1445             !
 ! A8    A(1,2,21)             109.7075         D2E/DX2 =    0.0524             !
 ! A9    A(1,2,22)             110.7928         D2E/DX2 =    0.0564             !
 ! A10   A(3,2,21)             106.974          D2E/DX2 =    0.0446             !
 ! A11   A(3,2,22)             110.2932         D2E/DX2 =    0.0547             !
 ! A12   A(21,2,22)            106.7224         D2E/DX2 =    0.0208             !
 ! A13   A(2,3,7)              122.3373         D2E/DX2 =    0.1761             !
 ! A14   A(2,3,8)              115.5098         D2E/DX2 =    0.1749             !
 ! A15   A(7,3,8)              122.1492         D2E/DX2 =    0.2063             !
 ! A16   A(5,4,8)              113.1041         D2E/DX2 =    0.1507             !
 ! A17   A(5,4,23)             109.5877         D2E/DX2 =    0.0562             !
 ! A18   A(5,4,24)             110.5725         D2E/DX2 =    0.0564             !
 ! A19   A(8,4,23)             107.3665         D2E/DX2 =    0.0581             !
 ! A20   A(8,4,24)             108.1474         D2E/DX2 =    0.0592             !
 ! A21   A(23,4,24)            107.8809         D2E/DX2 =    0.0209             !
 ! A22   A(4,5,6)              112.0784         D2E/DX2 =    0.1281             !
 ! A23   A(4,5,25)             108.2051         D2E/DX2 =    0.0468             !
 ! A24   A(4,5,26)             109.3195         D2E/DX2 =    0.0479             !
 ! A25   A(6,5,25)             110.0173         D2E/DX2 =    0.0456             !
 ! A26   A(6,5,26)             109.8543         D2E/DX2 =    0.0463             !
 ! A27   A(25,5,26)            107.232          D2E/DX2 =    0.0182             !
 ! A28   A(5,6,15)             112.9352         D2E/DX2 =    0.1299             !
 ! A29   A(5,6,27)             109.2164         D2E/DX2 =    0.0477             !
 ! A30   A(5,6,28)             109.6824         D2E/DX2 =    0.0479             !
 ! A31   A(15,6,27)            109.3135         D2E/DX2 =    0.0481             !
 ! A32   A(15,6,28)            109.1085         D2E/DX2 =    0.0481             !
 ! A33   A(27,6,28)            106.3722         D2E/DX2 =    0.0181             !
 ! A34   A(3,8,4)              121.3            D2E/DX2 =    0.1336             !
 ! A35   A(3,8,9)              118.6975         D2E/DX2 =    0.0958             !
 ! A36   A(4,8,9)              119.3906         D2E/DX2 =    0.0912             !
 ! A37   A(1,10,11)            111.9005         D2E/DX2 =    0.1309             !
 ! A38   A(1,10,29)            110.0901         D2E/DX2 =    0.0464             !
 ! A39   A(1,10,30)            110.4381         D2E/DX2 =    0.0469             !
 ! A40   A(11,10,29)           109.1344         D2E/DX2 =    0.0489             !
 ! A41   A(11,10,30)           109.127          D2E/DX2 =    0.0493             !
 ! A42   A(29,10,30)           105.9663         D2E/DX2 =    0.0184             !
 ! A43   A(10,11,12)           112.8714         D2E/DX2 =    0.1435             !
 ! A44   A(10,11,31)           111.4534         D2E/DX2 =    0.0528             !
 ! A45   A(10,11,32)           111.5012         D2E/DX2 =    0.0527             !
 ! A46   A(12,11,31)           107.547          D2E/DX2 =    0.0513             !
 ! A47   A(12,11,32)           107.4417         D2E/DX2 =    0.0511             !
 ! A48   A(31,11,32)           105.6484         D2E/DX2 =    0.0211             !
 ! A49   A(11,12,16)           125.9197         D2E/DX2 =    0.1623             !
 ! A50   A(11,12,17)           111.7669         D2E/DX2 =    0.1669             !
 ! A51   A(16,12,17)           122.3134         D2E/DX2 =    0.205              !
 ! A52   A(14,13,33)           110.5206         D2E/DX2 =    0.0568             !
 ! A53   A(14,13,34)           109.4197         D2E/DX2 =    0.0564             !
 ! A54   A(14,13,55)           113.1835         D2E/DX2 =    0.1507             !
 ! A55   A(33,13,34)           107.9            D2E/DX2 =    0.0208             !
 ! A56   A(33,13,55)           108.1842         D2E/DX2 =    0.0591             !
 ! A57   A(34,13,55)           107.4553         D2E/DX2 =    0.0581             !
 ! A58   A(13,14,15)           112.0695         D2E/DX2 =    0.128              !
 ! A59   A(13,14,35)           109.297          D2E/DX2 =    0.0479             !
 ! A60   A(13,14,36)           108.1289         D2E/DX2 =    0.047              !
 ! A61   A(15,14,35)           109.8833         D2E/DX2 =    0.0462             !
 ! A62   A(15,14,36)           110.0526         D2E/DX2 =    0.0455             !
 ! A63   A(35,14,36)           107.2761         D2E/DX2 =    0.0182             !
 ! A64   A(6,15,14)            112.9033         D2E/DX2 =    0.1298             !
 ! A65   A(6,15,37)            109.1515         D2E/DX2 =    0.0482             !
 ! A66   A(6,15,38)            109.2736         D2E/DX2 =    0.048              !
 ! A67   A(14,15,37)           109.7083         D2E/DX2 =    0.0479             !
 ! A68   A(14,15,38)           109.2179         D2E/DX2 =    0.0476             !
 ! A69   A(37,15,38)           106.3753         D2E/DX2 =    0.0181             !
 ! A70   A(12,17,18)           107.1098         D2E/DX2 =    0.1726             !
 ! A71   A(40,39,48)           112.0018         D2E/DX2 =    0.1325             !
 ! A72   A(40,39,57)           108.8957         D2E/DX2 =    0.0489             !
 ! A73   A(40,39,58)           109.2552         D2E/DX2 =    0.0492             !
 ! A74   A(48,39,57)           110.3474         D2E/DX2 =    0.0462             !
 ! A75   A(48,39,58)           110.0309         D2E/DX2 =    0.0472             !
 ! A76   A(57,39,58)           106.1286         D2E/DX2 =    0.0185             !
 ! A77   A(39,40,41)           112.3451         D2E/DX2 =    0.1468             !
 ! A78   A(39,40,59)           109.9853         D2E/DX2 =    0.0535             !
 ! A79   A(39,40,60)           110.7694         D2E/DX2 =    0.0561             !
 ! A80   A(41,40,59)           107.4854         D2E/DX2 =    0.0465             !
 ! A81   A(41,40,60)           109.5619         D2E/DX2 =    0.053              !
 ! A82   A(59,40,60)           106.4725         D2E/DX2 =    0.021              !
 ! A83   A(40,41,45)           122.634          D2E/DX2 =    0.1752             !
 ! A84   A(40,41,46)           115.1841         D2E/DX2 =    0.1718             !
 ! A85   A(45,41,46)           122.1809         D2E/DX2 =    0.2054             !
 ! A86   A(43,42,46)           113.1504         D2E/DX2 =    0.1507             !
 ! A87   A(43,42,61)           109.568          D2E/DX2 =    0.0563             !
 ! A88   A(43,42,62)           110.5762         D2E/DX2 =    0.0566             !
 ! A89   A(46,42,61)           107.3645         D2E/DX2 =    0.0582             !
 ! A90   A(46,42,62)           108.1506         D2E/DX2 =    0.0592             !
 ! A91   A(61,42,62)           107.8459         D2E/DX2 =    0.0209             !
 ! A92   A(42,43,44)           112.1263         D2E/DX2 =    0.1279             !
 ! A93   A(42,43,63)           108.2165         D2E/DX2 =    0.0469             !
 ! A94   A(42,43,64)           109.3168         D2E/DX2 =    0.048              !
 ! A95   A(44,43,63)           109.9723         D2E/DX2 =    0.0456             !
 ! A96   A(44,43,64)           109.8704         D2E/DX2 =    0.0463             !
 ! A97   A(63,43,64)           107.2008         D2E/DX2 =    0.0182             !
 ! A98   A(43,44,53)           112.9797         D2E/DX2 =    0.1297             !
 ! A99   A(43,44,65)           109.206          D2E/DX2 =    0.0477             !
 ! A100  A(43,44,66)           109.6266         D2E/DX2 =    0.048              !
 ! A101  A(53,44,65)           109.2619         D2E/DX2 =    0.048              !
 ! A102  A(53,44,66)           109.2281         D2E/DX2 =    0.0482             !
 ! A103  A(65,44,66)           106.3198         D2E/DX2 =    0.018              !
 ! A104  A(41,46,42)           121.3286         D2E/DX2 =    0.1331             !
 ! A105  A(41,46,47)           118.6137         D2E/DX2 =    0.0955             !
 ! A106  A(42,46,47)           119.3804         D2E/DX2 =    0.0911             !
 ! A107  A(39,48,49)           113.371          D2E/DX2 =    0.1274             !
 ! A108  A(39,48,67)           111.1068         D2E/DX2 =    0.0535             !
 ! A109  A(39,48,68)           110.3373         D2E/DX2 =    0.0534             !
 ! A110  A(49,48,67)           108.5453         D2E/DX2 =    0.0511             !
 ! A111  A(49,48,68)           108.8447         D2E/DX2 =    0.0481             !
 ! A112  A(67,48,68)           104.2073         D2E/DX2 =    0.0203             !
 ! A113  A(48,49,50)           119.9006         D2E/DX2 =    0.1129             !
 ! A114  A(48,49,69)           120.1034         D2E/DX2 =    0.0864             !
 ! A115  A(50,49,69)           119.9876         D2E/DX2 =    0.0874             !
 ! A116  A(49,50,54)           122.0902         D2E/DX2 =    0.1697             !
 ! A117  A(49,50,55)           116.0338         D2E/DX2 =    0.1691             !
 ! A118  A(54,50,55)           121.8731         D2E/DX2 =    0.2045             !
 ! A119  A(52,51,70)           109.3585         D2E/DX2 =    0.0584             !
 ! A120  A(52,51,71)           109.3561         D2E/DX2 =    0.0588             !
 ! A121  A(52,51,76)           115.775          D2E/DX2 =    0.1498             !
 ! A122  A(70,51,71)           106.1455         D2E/DX2 =    0.0205             !
 ! A123  A(70,51,76)           107.8836         D2E/DX2 =    0.0594             !
 ! A124  A(71,51,76)           107.8868         D2E/DX2 =    0.0595             !
 ! A125  A(51,52,53)           112.8983         D2E/DX2 =    0.1252             !
 ! A126  A(51,52,72)           109.0581         D2E/DX2 =    0.047              !
 ! A127  A(51,52,73)           109.0324         D2E/DX2 =    0.0469             !
 ! A128  A(53,52,72)           109.5719         D2E/DX2 =    0.0468             !
 ! A129  A(53,52,73)           109.6304         D2E/DX2 =    0.0467             !
 ! A130  A(72,52,73)           106.4415         D2E/DX2 =    0.0179             !
 ! A131  A(44,53,52)           113.2105         D2E/DX2 =    0.1296             !
 ! A132  A(44,53,74)           109.1588         D2E/DX2 =    0.0481             !
 ! A133  A(44,53,75)           109.2808         D2E/DX2 =    0.0484             !
 ! A134  A(52,53,74)           109.3798         D2E/DX2 =    0.0478             !
 ! A135  A(52,53,75)           109.3517         D2E/DX2 =    0.048              !
 ! A136  A(74,53,75)           106.2203         D2E/DX2 =    0.018              !
 ! A137  A(13,55,50)           120.9661         D2E/DX2 =    0.1349             !
 ! A138  A(13,55,56)           119.4396         D2E/DX2 =    0.0915             !
 ! A139  A(50,55,56)           118.8574         D2E/DX2 =    0.0949             !
 ! A140  A(51,76,77)           110.3306         D2E/DX2 =    0.1397             !
 ! A141  A(51,76,78)           110.3377         D2E/DX2 =    0.1389             !
 ! A142  A(77,76,78)           106.7509         D2E/DX2 =    0.0568             !
 ! D1    D(10,1,2,3)          -175.8921         D2E/DX2 =    0.0132             !
 ! D2    D(10,1,2,21)          -57.1764         D2E/DX2 =    0.0138             !
 ! D3    D(10,1,2,22)           60.4009         D2E/DX2 =    0.0137             !
 ! D4    D(19,1,2,3)           -53.3956         D2E/DX2 =    0.0134             !
 ! D5    D(19,1,2,21)           65.3201         D2E/DX2 =    0.0149             !
 ! D6    D(19,1,2,22)         -177.1025         D2E/DX2 =    0.0137             !
 ! D7    D(20,1,2,3)            61.9012         D2E/DX2 =    0.0131             !
 ! D8    D(20,1,2,21)         -179.3831         D2E/DX2 =    0.0139             !
 ! D9    D(20,1,2,22)          -61.8057         D2E/DX2 =    0.0148             !
 ! D10   D(2,1,10,11)          179.9128         D2E/DX2 =    0.0139             !
 ! D11   D(2,1,10,29)           58.3654         D2E/DX2 =    0.0144             !
 ! D12   D(2,1,10,30)          -58.3057         D2E/DX2 =    0.0143             !
 ! D13   D(19,1,10,11)          58.6175         D2E/DX2 =    0.0144             !
 ! D14   D(19,1,10,29)         -62.9299         D2E/DX2 =    0.0156             !
 ! D15   D(19,1,10,30)        -179.601          D2E/DX2 =    0.0146             !
 ! D16   D(20,1,10,11)         -58.3302         D2E/DX2 =    0.0144             !
 ! D17   D(20,1,10,29)        -179.8775         D2E/DX2 =    0.0146             !
 ! D18   D(20,1,10,30)          63.4514         D2E/DX2 =    0.0156             !
 ! D19   D(1,2,3,7)             29.0569         D2E/DX2 =    0.0133             !
 ! D20   D(1,2,3,8)           -151.6258         D2E/DX2 =    0.0133             !
 ! D21   D(21,2,3,7)           -91.2597         D2E/DX2 =    0.0153             !
 ! D22   D(21,2,3,8)            88.0576         D2E/DX2 =    0.0141             !
 ! D23   D(22,2,3,7)           153.0429         D2E/DX2 =    0.015              !
 ! D24   D(22,2,3,8)           -27.6398         D2E/DX2 =    0.0155             !
 ! D25   D(2,3,8,4)           -174.4752         D2E/DX2 =    0.0097             !
 ! D26   D(2,3,8,9)             -3.4988         D2E/DX2 =    0.0076             !
 ! D27   D(7,3,8,4)              4.8435         D2E/DX2 =    0.011              !
 ! D28   D(7,3,8,9)            175.8199         D2E/DX2 =    0.0108             !
 ! D29   D(8,4,5,6)           -177.8485         D2E/DX2 =    0.0149             !
 ! D30   D(8,4,5,25)           -56.3648         D2E/DX2 =    0.0158             !
 ! D31   D(8,4,5,26)            60.1071         D2E/DX2 =    0.0151             !
 ! D32   D(23,4,5,6)           -58.096          D2E/DX2 =    0.0148             !
 ! D33   D(23,4,5,25)           63.3878         D2E/DX2 =    0.0162             !
 ! D34   D(23,4,5,26)          179.8597         D2E/DX2 =    0.0148             !
 ! D35   D(24,4,5,6)            60.6976         D2E/DX2 =    0.0145             !
 ! D36   D(24,4,5,25)         -177.8186         D2E/DX2 =    0.0148             !
 ! D37   D(24,4,5,26)          -61.3467         D2E/DX2 =    0.0158             !
 ! D38   D(5,4,8,3)             79.5015         D2E/DX2 =    0.0107             !
 ! D39   D(5,4,8,9)            -91.4135         D2E/DX2 =    0.01               !
 ! D40   D(23,4,8,3)           -41.5169         D2E/DX2 =    0.0126             !
 ! D41   D(23,4,8,9)           147.568          D2E/DX2 =    0.0128             !
 ! D42   D(24,4,8,3)          -157.6878         D2E/DX2 =    0.0126             !
 ! D43   D(24,4,8,9)            31.3972         D2E/DX2 =    0.0116             !
 ! D44   D(4,5,6,15)          -179.5473         D2E/DX2 =    0.0134             !
 ! D45   D(4,5,6,27)            58.5954         D2E/DX2 =    0.0142             !
 ! D46   D(4,5,6,28)           -57.6178         D2E/DX2 =    0.014              !
 ! D47   D(25,5,6,15)           60.0157         D2E/DX2 =    0.0139             !
 ! D48   D(25,5,6,27)          -61.8416         D2E/DX2 =    0.0152             !
 ! D49   D(25,5,6,28)         -178.0548         D2E/DX2 =    0.0142             !
 ! D50   D(26,5,6,15)          -57.8087         D2E/DX2 =    0.014              !
 ! D51   D(26,5,6,27)         -179.6661         D2E/DX2 =    0.0143             !
 ! D52   D(26,5,6,28)           64.1207         D2E/DX2 =    0.0152             !
 ! D53   D(5,6,15,14)         -179.834          D2E/DX2 =    0.0135             !
 ! D54   D(5,6,15,37)          -57.5398         D2E/DX2 =    0.014              !
 ! D55   D(5,6,15,38)           58.4113         D2E/DX2 =    0.0139             !
 ! D56   D(27,6,15,14)         -58.0313         D2E/DX2 =    0.0139             !
 ! D57   D(27,6,15,37)          64.2629         D2E/DX2 =    0.0152             !
 ! D58   D(27,6,15,38)        -179.786          D2E/DX2 =    0.0142             !
 ! D59   D(28,6,15,14)          57.9143         D2E/DX2 =    0.014              !
 ! D60   D(28,6,15,37)        -179.7915         D2E/DX2 =    0.0143             !
 ! D61   D(28,6,15,38)         -63.8404         D2E/DX2 =    0.0152             !
 ! D62   D(1,10,11,12)         179.9682         D2E/DX2 =    0.0129             !
 ! D63   D(1,10,11,31)         -58.8779         D2E/DX2 =    0.0137             !
 ! D64   D(1,10,11,32)          58.9161         D2E/DX2 =    0.0137             !
 ! D65   D(29,10,11,12)        -57.9356         D2E/DX2 =    0.0129             !
 ! D66   D(29,10,11,31)         63.2183         D2E/DX2 =    0.0148             !
 ! D67   D(29,10,11,32)       -178.9877         D2E/DX2 =    0.0137             !
 ! D68   D(30,10,11,12)         57.4366         D2E/DX2 =    0.0129             !
 ! D69   D(30,10,11,31)        178.5905         D2E/DX2 =    0.0137             !
 ! D70   D(30,10,11,32)        -63.6155         D2E/DX2 =    0.0148             !
 ! D71   D(10,11,12,16)         -0.3667         D2E/DX2 =    0.0152             !
 ! D72   D(10,11,12,17)        179.668          D2E/DX2 =    0.0169             !
 ! D73   D(31,11,12,16)       -123.7136         D2E/DX2 =    0.0164             !
 ! D74   D(31,11,12,17)         56.3211         D2E/DX2 =    0.0168             !
 ! D75   D(32,11,12,16)        122.9659         D2E/DX2 =    0.0164             !
 ! D76   D(32,11,12,17)        -56.9994         D2E/DX2 =    0.0168             !
 ! D77   D(11,12,17,18)       -179.9776         D2E/DX2 =    0.0164             !
 ! D78   D(16,12,17,18)          0.0557         D2E/DX2 =    0.0157             !
 ! D79   D(33,13,14,15)        -60.5893         D2E/DX2 =    0.0144             !
 ! D80   D(33,13,14,35)         61.4702         D2E/DX2 =    0.0158             !
 ! D81   D(33,13,14,36)        177.9401         D2E/DX2 =    0.0149             !
 ! D82   D(34,13,14,15)         58.0916         D2E/DX2 =    0.0148             !
 ! D83   D(34,13,14,35)       -179.8489         D2E/DX2 =    0.0148             !
 ! D84   D(34,13,14,36)        -63.379          D2E/DX2 =    0.0162             !
 ! D85   D(55,13,14,15)        177.8917         D2E/DX2 =    0.0148             !
 ! D86   D(55,13,14,35)        -60.0489         D2E/DX2 =    0.0151             !
 ! D87   D(55,13,14,36)         56.421          D2E/DX2 =    0.0158             !
 ! D88   D(14,13,55,50)        -78.579          D2E/DX2 =    0.0114             !
 ! D89   D(14,13,55,56)         91.475          D2E/DX2 =    0.0103             !
 ! D90   D(33,13,55,50)        158.5973         D2E/DX2 =    0.0128             !
 ! D91   D(33,13,55,56)        -31.3487         D2E/DX2 =    0.0115             !
 ! D92   D(34,13,55,50)         42.3391         D2E/DX2 =    0.0127             !
 ! D93   D(34,13,55,56)       -147.6069         D2E/DX2 =    0.0128             !
 ! D94   D(13,14,15,6)        -179.7449         D2E/DX2 =    0.0136             !
 ! D95   D(13,14,15,37)         58.2736         D2E/DX2 =    0.014              !
 ! D96   D(13,14,15,38)        -57.9588         D2E/DX2 =    0.0143             !
 ! D97   D(35,14,15,6)          58.5309         D2E/DX2 =    0.014              !
 ! D98   D(35,14,15,37)        -63.4506         D2E/DX2 =    0.0152             !
 ! D99   D(35,14,15,38)       -179.683          D2E/DX2 =    0.0143             !
 ! D100  D(36,14,15,6)         -59.3861         D2E/DX2 =    0.0139             !
 ! D101  D(36,14,15,37)        178.6323         D2E/DX2 =    0.0142             !
 ! D102  D(36,14,15,38)         62.4            D2E/DX2 =    0.0153             !
 ! D103  D(48,39,40,41)       -178.305          D2E/DX2 =    0.0131             !
 ! D104  D(48,39,40,59)        -58.6245         D2E/DX2 =    0.0138             !
 ! D105  D(48,39,40,60)         58.8028         D2E/DX2 =    0.0138             !
 ! D106  D(57,39,40,41)        -55.982          D2E/DX2 =    0.013              !
 ! D107  D(57,39,40,59)         63.6986         D2E/DX2 =    0.0147             !
 ! D108  D(57,39,40,60)       -178.8741         D2E/DX2 =    0.0136             !
 ! D109  D(58,39,40,41)         59.5227         D2E/DX2 =    0.013              !
 ! D110  D(58,39,40,59)        179.2032         D2E/DX2 =    0.0138             !
 ! D111  D(58,39,40,60)        -63.3695         D2E/DX2 =    0.0147             !
 ! D112  D(40,39,48,49)        179.6655         D2E/DX2 =    0.0128             !
 ! D113  D(40,39,48,67)         57.1039         D2E/DX2 =    0.014              !
 ! D114  D(40,39,48,68)        -57.9608         D2E/DX2 =    0.014              !
 ! D115  D(57,39,48,49)         58.1737         D2E/DX2 =    0.0134             !
 ! D116  D(57,39,48,67)        -64.3878         D2E/DX2 =    0.0152             !
 ! D117  D(57,39,48,68)       -179.4526         D2E/DX2 =    0.0141             !
 ! D118  D(58,39,48,49)        -58.606          D2E/DX2 =    0.0134             !
 ! D119  D(58,39,48,67)        178.8324         D2E/DX2 =    0.0142             !
 ! D120  D(58,39,48,68)         63.7676         D2E/DX2 =    0.0152             !
 ! D121  D(39,40,41,45)         17.2766         D2E/DX2 =    0.0132             !
 ! D122  D(39,40,41,46)       -163.0727         D2E/DX2 =    0.0138             !
 ! D123  D(59,40,41,45)       -103.849          D2E/DX2 =    0.015              !
 ! D124  D(59,40,41,46)         75.8017         D2E/DX2 =    0.0146             !
 ! D125  D(60,40,41,45)        140.8457         D2E/DX2 =    0.0149             !
 ! D126  D(60,40,41,46)        -39.5035         D2E/DX2 =    0.0156             !
 ! D127  D(40,41,46,42)       -174.7217         D2E/DX2 =    0.0095             !
 ! D128  D(40,41,46,47)         -4.2132         D2E/DX2 =    0.0076             !
 ! D129  D(45,41,46,42)          4.9308         D2E/DX2 =    0.0108             !
 ! D130  D(45,41,46,47)        175.4393         D2E/DX2 =    0.0108             !
 ! D131  D(46,42,43,44)       -177.9838         D2E/DX2 =    0.0148             !
 ! D132  D(46,42,43,63)        -56.5183         D2E/DX2 =    0.0157             !
 ! D133  D(46,42,43,64)         59.9213         D2E/DX2 =    0.015              !
 ! D134  D(61,42,43,44)        -58.2173         D2E/DX2 =    0.0147             !
 ! D135  D(61,42,43,63)         63.2482         D2E/DX2 =    0.0162             !
 ! D136  D(61,42,43,64)        179.6878         D2E/DX2 =    0.0148             !
 ! D137  D(62,42,43,44)         60.5232         D2E/DX2 =    0.0145             !
 ! D138  D(62,42,43,63)       -178.0113         D2E/DX2 =    0.0149             !
 ! D139  D(62,42,43,64)        -61.5718         D2E/DX2 =    0.0158             !
 ! D140  D(43,42,46,41)         79.5204         D2E/DX2 =    0.0109             !
 ! D141  D(43,42,46,47)        -90.9168         D2E/DX2 =    0.0101             !
 ! D142  D(61,42,46,41)        -41.5007         D2E/DX2 =    0.0126             !
 ! D143  D(61,42,46,47)        148.0621         D2E/DX2 =    0.0128             !
 ! D144  D(62,42,46,41)       -157.6312         D2E/DX2 =    0.0126             !
 ! D145  D(62,42,46,47)         31.9316         D2E/DX2 =    0.0115             !
 ! D146  D(42,43,44,53)       -179.6935         D2E/DX2 =    0.0135             !
 ! D147  D(42,43,44,65)         58.4926         D2E/DX2 =    0.0142             !
 ! D148  D(42,43,44,66)        -57.6202         D2E/DX2 =    0.0139             !
 ! D149  D(63,43,44,53)         59.8543         D2E/DX2 =    0.0139             !
 ! D150  D(63,43,44,65)        -61.9596         D2E/DX2 =    0.0152             !
 ! D151  D(63,43,44,66)       -178.0724         D2E/DX2 =    0.0142             !
 ! D152  D(64,43,44,53)        -57.9146         D2E/DX2 =    0.0139             !
 ! D153  D(64,43,44,65)       -179.7286         D2E/DX2 =    0.0143             !
 ! D154  D(64,43,44,66)         64.1586         D2E/DX2 =    0.0152             !
 ! D155  D(43,44,53,52)       -179.5241         D2E/DX2 =    0.0134             !
 ! D156  D(43,44,53,74)        -57.4371         D2E/DX2 =    0.0139             !
 ! D157  D(43,44,53,75)         58.3367         D2E/DX2 =    0.0139             !
 ! D158  D(65,44,53,52)        -57.7416         D2E/DX2 =    0.0139             !
 ! D159  D(65,44,53,74)         64.3454         D2E/DX2 =    0.0151             !
 ! D160  D(65,44,53,75)       -179.8808         D2E/DX2 =    0.0142             !
 ! D161  D(66,44,53,52)         58.1793         D2E/DX2 =    0.0138             !
 ! D162  D(66,44,53,74)       -179.7337         D2E/DX2 =    0.0142             !
 ! D163  D(66,44,53,75)        -63.9599         D2E/DX2 =    0.0151             !
 ! D164  D(39,48,49,50)       -170.666          D2E/DX2 =    0.0106             !
 ! D165  D(39,48,49,69)         10.3827         D2E/DX2 =    0.0098             !
 ! D166  D(67,48,49,50)        -46.6965         D2E/DX2 =    0.011              !
 ! D167  D(67,48,49,69)        134.3522         D2E/DX2 =    0.0107             !
 ! D168  D(68,48,49,50)         66.1356         D2E/DX2 =    0.0104             !
 ! D169  D(68,48,49,69)       -112.8157         D2E/DX2 =    0.0104             !
 ! D170  D(48,49,50,54)          0.6906         D2E/DX2 =    0.0097             !
 ! D171  D(48,49,50,55)       -179.9163         D2E/DX2 =    0.0092             !
 ! D172  D(69,49,50,54)        179.6431         D2E/DX2 =    0.0089             !
 ! D173  D(69,49,50,55)         -0.9637         D2E/DX2 =    0.0081             !
 ! D174  D(49,50,55,13)        176.5973         D2E/DX2 =    0.0105             !
 ! D175  D(49,50,55,56)          6.4865         D2E/DX2 =    0.0087             !
 ! D176  D(54,50,55,13)         -4.0081         D2E/DX2 =    0.0127             !
 ! D177  D(54,50,55,56)       -174.1189         D2E/DX2 =    0.0129             !
 ! D178  D(70,51,52,53)        -57.8204         D2E/DX2 =    0.0144             !
 ! D179  D(70,51,52,72)         64.2291         D2E/DX2 =    0.0157             !
 ! D180  D(70,51,52,73)       -179.9261         D2E/DX2 =    0.0144             !
 ! D181  D(71,51,52,53)         58.0173         D2E/DX2 =    0.0144             !
 ! D182  D(71,51,52,72)       -179.9333         D2E/DX2 =    0.0144             !
 ! D183  D(71,51,52,73)        -64.0884         D2E/DX2 =    0.0156             !
 ! D184  D(76,51,52,53)       -179.9004         D2E/DX2 =    0.0147             !
 ! D185  D(76,51,52,72)        -57.851          D2E/DX2 =    0.0149             !
 ! D186  D(76,51,52,73)         57.9939         D2E/DX2 =    0.0149             !
 ! D187  D(52,51,76,77)         59.2072         D2E/DX2 =    0.0136             !
 ! D188  D(52,51,76,78)        -58.5113         D2E/DX2 =    0.0134             !
 ! D189  D(70,51,76,77)        -63.6538         D2E/DX2 =    0.0159             !
 ! D190  D(70,51,76,78)        178.6277         D2E/DX2 =    0.0155             !
 ! D191  D(71,51,76,77)       -177.9324         D2E/DX2 =    0.0157             !
 ! D192  D(71,51,76,78)         64.3491         D2E/DX2 =    0.016              !
 ! D193  D(51,52,53,44)       -179.7687         D2E/DX2 =    0.0132             !
 ! D194  D(51,52,53,74)         58.2679         D2E/DX2 =    0.0137             !
 ! D195  D(51,52,53,75)        -57.669          D2E/DX2 =    0.0138             !
 ! D196  D(72,52,53,44)         58.4712         D2E/DX2 =    0.0139             !
 ! D197  D(72,52,53,74)        -63.4923         D2E/DX2 =    0.0151             !
 ! D198  D(72,52,53,75)       -179.4292         D2E/DX2 =    0.0141             !
 ! D199  D(73,52,53,44)        -57.9995         D2E/DX2 =    0.0137             !
 ! D200  D(73,52,53,74)       -179.9629         D2E/DX2 =    0.0141             !
 ! D201  D(73,52,53,75)         64.1002         D2E/DX2 =    0.015              !
 --------------------------------------------------------------------------------
 Trust Radius=3.00D-01 FncErr=1.00D-07 GrdErr=1.00D-06 EigMax=2.50D+02 EigMin=1.00D-04
 Number of steps in this run=    430 maximum allowed number of steps=    468.
 GradGradGradGradGradGradGradGradGradGradGradGradGradGradGradGradGradGrad

 Symmetry turned off by external request.
 Stoichiometry    C24H45N4O5(2)
 Framework group  C1[X(C24H45N4O5)]
 Deg. of freedom   228
 Full point group                 C1      NOp   1
                          Input orientation:                          
 ---------------------------------------------------------------------
 Center     Atomic      Atomic             Coordinates (Angstroms)
 Number     Number       Type             X           Y           Z
 ---------------------------------------------------------------------
      1          6           0       -0.196498    0.369376    1.381638
      2          6           0        0.797382    0.873610    2.417117
      3          6           0        0.128721    1.199157    3.740794
      4          6           0        0.272440    2.489616    5.816596
      5          6           0        0.754954    1.504455    6.874047
      6          6           0        0.214177    1.839309    8.257361
      7          8           0       -0.874642    0.627478    4.120352
      8          7           0        0.734664    2.162536    4.480457
      9          1           0        1.597068    2.556618    4.146507
     10          6           0        0.486528   -0.051569    0.087928
     11          6           0       -0.510443   -0.555924   -0.940958
     12          6           0        0.141423   -0.977229   -2.228815
     13          6           0        0.645880    0.229859   11.776332
     14          6           0        0.149397    1.205242   10.714684
     15          6           0        0.693787    0.872115    9.332463
     16          8           0        1.314854   -0.933366   -2.470366
     17          8           0       -0.761502   -1.427042   -3.122088
     18          1           0       -0.272904   -1.678234   -3.919040
     19          1           0       -0.752062   -0.465610    1.812274
     20          1           0       -0.932928    1.152174    1.178407
     21          1           0        1.545341    0.099609    2.618624
     22          1           0        1.339934    1.745211    2.041992
     23          1           0       -0.818127    2.494452    5.791777
     24          1           0        0.606729    3.501147    6.053829
     25          1           0        0.433452    0.502383    6.579168
     26          1           0        1.849294    1.501266    6.893484
     27          1           0       -0.880286    1.833803    8.227474
     28          1           0        0.510414    2.857260    8.532819
     29          1           0        1.221100   -0.835208    0.289046
     30          1           0        1.047547    0.784457   -0.336923
     31          1           0       -1.076990   -1.411303   -0.563020
     32          1           0       -1.255291    0.206738   -1.184759
     33          1           0        0.325957   -0.786953   11.541315
     34          1           0        1.736779    0.241637   11.798060
     35          1           0       -0.944875    1.193823   10.696460
     36          1           0        0.458614    2.211859   11.006562
     37          1           0        0.401145   -0.146594    9.055836
     38          1           0        1.788189    0.880983    9.364392
     39          6           0        0.147490    2.920689   17.396494
     40          6           0        0.759490    4.015825   18.253523
     41          6           0        0.203661    4.021370   19.667090
     42          6           0        0.049660    5.271455   21.767643
     43          6           0        1.051682    4.612586   22.707652
     44          6           0        0.613693    4.697194   24.163467
     45          8           0       -0.388885    3.072797   20.141896
     46          7           0        0.422363    5.162878   20.369581
     47          1           0        0.978482    5.887729   19.949555
     48          6           0        0.740076    2.895793   15.993513
     49          6           0        0.169927    1.833262   15.133737
     50          6           0        0.771258    1.546837   13.837813
     51          6           0        2.168733    3.477105   27.532592
     52          6           0        1.167442    4.121810   26.578863
     53          6           0        1.606085    4.050301   25.121793
     54          8           0        1.754297    2.151925   13.428696
     55          7           0        0.181248    0.553133   13.109592
     56          1           0       -0.674508    0.147682   13.446333
     57          1           0        0.299680    1.959508   17.889689
     58          1           0       -0.934218    3.066753   17.343406
     59          1           0        1.842771    3.872640   18.326468
     60          1           0        0.606522    4.997376   17.796038
     61          1           0       -0.925734    4.796680   21.882373
     62          1           0       -0.063254    6.330148   22.008217
     63          1           0        1.161557    3.566462   22.411082
     64          1           0        2.029922    5.088217   22.585193
     65          1           0       -0.362717    4.214466   24.274466
     66          1           0        0.472069    5.746681   24.444801
     67          1           0        1.828435    2.770637   16.026919
     68          1           0        0.595285    3.867283   15.500420
     69          1           0       -0.703517    1.280612   15.459625
     70          1           0        2.319703    2.432489   27.247677
     71          1           0        3.140580    3.965819   27.422368
     72          1           0        0.195580    3.629491   26.694134
     73          1           0        1.021166    5.168474   26.868325
     74          1           0        1.750373    3.003017   24.836775
     75          1           0        2.582484    4.534429   25.012521
     76          7           0        1.809335    3.508448   28.945488
     77          1           0        0.926760    3.033241   29.094937
     78          1           0        1.682229    4.464945   29.255474
 ---------------------------------------------------------------------
 Rotational constants (GHZ):           0.8053119           0.0112497           0.0112005
 Standard basis: def2TZVP (5D, 7F)
  1293 basis functions,  2043 primitive gaussians,  1458 cartesian basis functions
   129 alpha electrons      128 beta electrons
       nuclear repulsion energy      2794.3146029019 Hartrees.
 NAtoms=   78 NActive=   78 NUniq=   78 SFac= 1.00D+00 NAtFMM=   60 NAOKFM=T Big=T
 Integral buffers will be    131072 words long.
 Raffenetti 2 integral format.
 Two-electron integral symmetry is turned off.
 ------------------------------------------------------------------------------
 Polarizable Continuum Model (PCM)
 =================================
 Model                : PCM.
 Atomic radii         : UFF (Universal Force Field).
 Polarization charges : Total charges.
 Charge compensation  : None.
 Solution method      : On-the-fly selection.
 Cavity type          : Scaled VdW (van der Waals Surface) (Alpha=1.100).
 Cavity algorithm     : GePol (No added spheres)
                        Default sphere list used, NSphG=   78.
                        Lebedev-Laikov grids with approx.  5.0 points / Ang**2.
                        Smoothing algorithm: York/Karplus (Gamma=1.0000).
                        Polarization charges: spherical gaussians, with
                                              point-specific exponents (IZeta= 3).
                        Self-potential: point-specific (ISelfS= 7).
                        Self-field    : sphere-specific E.n sum rule (ISelfD= 2).
 1st derivatives      : Analytical E(r).r(x)/FMM algorithm (CHGder, D1EAlg=3).
                        Cavity 1st derivative terms included.
 Solvent              : FluoroBenzene, Eps=   5.420000 Eps(inf)=   2.156199
 ------------------------------------------------------------------------------
 One-electron integrals computed using PRISM.
   1 Symmetry operations used in ECPInt.
 ECPInt:  NShTT=  147696 NPrTT=  433776 LenC2=   68606 LenP2D=  139263.
 LDataN:  DoStor=T MaxTD1= 6 Len=  172
 NBasis=  1293 RedAO= T EigKep=  3.84D-05  NBF=  1293
 NBsUse=  1293 1.00D-06 EigRej= -1.00D+00 NBFU=  1293
 Initial guess from the checkpoint file:  "/dev/shm/nylon66_dimer_49_69_f2_fb.chk"
 B after Tr=     0.000000    0.000000    0.000000
         Rot=    1.000000    0.000000    0.000000    0.000000 Ang=   0.00 deg.
 Initial guess <Sx>= 0.0000 <Sy>= 0.0000 <Sz>= 0.5000 <S**2>= 0.7567 S= 0.5033
 Requested convergence on RMS density matrix=1.00D-08 within  32 cycles.
 Requested convergence on MAX density matrix=1.00D-06.
 Requested convergence on             energy=1.00D-06.
 No special actions if energy rises.
 Inv3:  Mode=1 IEnd=    85963827.
 Iteration    1 A*A^-1 deviation from unit magnitude is 3.55D-15 for   1481.
 Iteration    1 A*A^-1 deviation from orthogonality  is 2.69D-15 for   4129   2688.
 Iteration    1 A^-1*A deviation from unit magnitude is 3.55D-15 for    742.
 Iteration    1 A^-1*A deviation from orthogonality  is 2.89D-15 for   4670   1075.
 Error on total polarization charges =  0.02211
 SCF Done:  E(UM062X) =  -1536.77107875     A.U. after   12 cycles
            NFock= 12  Conv=0.88D-08     -V/T= 2.0048
 <Sx>= 0.0000 <Sy>= 0.0000 <Sz>= 0.5000 <S**2>= 0.7564 S= 0.5032
 <L.S>= 0.000000000000E+00
 Annihilation of the first spin contaminant:
 S**2 before annihilation     0.7564,   after     0.7500
 QCSCF skips out because SCF is already converged.

 **********************************************************************

            Population analysis using the SCF Density.

 **********************************************************************

 Alpha  occ. eigenvalues --  -19.67449 -19.62536 -19.59455 -19.59332 -19.58933
 Alpha  occ. eigenvalues --  -14.76844 -14.76782 -14.76778 -14.72240 -10.68046
 Alpha  occ. eigenvalues --  -10.64088 -10.64019 -10.63720 -10.56724 -10.56695
...
  Beta virt. eigenvalues --   22.68756  22.69716  23.34008  23.44997  23.45562
  Beta virt. eigenvalues --   23.46083  32.07234  32.60061  32.60999  32.61557
  Beta virt. eigenvalues --   43.95007  44.00852  44.12829  44.12904  44.13645
          Condensed to atoms (all electrons):
          Atomic-Atomic Spin Densities.
 Mulliken charges and spin densities:
               1          2
     1  C   -0.286023   0.000000
     2  C   -0.361330  -0.000001
...
    77  H    0.237106  -0.000000
    78  H    0.236320  -0.000000
 Sum of Mulliken charges =  -0.00000   1.00000
 Mulliken charges and spin densities with hydrogens summed into heavy atoms:
               1          2
     1  C    0.025416   0.000000
     2  C   -0.025434  -0.000001
 ...
    54  O   -0.472858   0.087267
    55  N   -0.102482   0.082798
    76  N   -0.109692   0.000000
 Electronic spatial extent (au):  <R**2>=         233630.3732
 Charge=             -0.0000 electrons
 Dipole moment (field-independent basis, Debye):
    X=             -0.7740    Y=              4.5752    Z=             -0.2273  Tot=              4.6458
 Quadrupole moment (field-independent basis, Debye-Ang):
   XX=           -218.2910   YY=           -162.3319   ZZ=           -234.9597
   XY=              7.5597   XZ=            -23.4227   YZ=             80.4253
 Traceless Quadrupole moment (field-independent basis, Debye-Ang):
   XX=            -13.0968   YY=             42.8623   ZZ=            -29.7655
   XY=              7.5597   XZ=            -23.4227   YZ=             80.4253
 Octapole moment (field-independent basis, Debye-Ang**2):
  XXX=           -352.1150  YYY=          -1019.9140  ZZZ=          -9463.3809  XYY=            -59.6999
  XXY=           -433.1401  XXZ=          -2727.2297  XZZ=           -985.9756  YZZ=           1318.4185
  YYZ=          -1763.5925  XYZ=             69.9859
 Hexadecapole moment (field-independent basis, Debye-Ang**3):
 XXXX=          -1400.8666 YYYY=          -8294.9944 ZZZZ=        -377772.2414 XXXY=          -1028.8651
 XXXZ=          -6723.8187 YYYX=           -662.2488 YYYZ=         -19968.4905 ZZZX=         -32680.8507
 ZZZY=          14666.6792 XXYY=          -1874.7146 XXZZ=         -55590.4963 YYZZ=         -34676.1553
 XXYZ=          -8877.4165 YYXZ=          -1146.9260 ZZXY=            581.0021
 N-N= 2.794314602902D+03 E-N=-9.170554520243D+03  KE= 1.529414742102D+03
                          Isotropic Fermi Contact Couplings
        Atom                 a.u.       MegaHertz       Gauss      10(-4) cm-1
     1  C(13)             -0.00000      -0.00005      -0.00002      -0.00002
     2  C(13)              0.00000       0.00049       0.00017       0.00016
     3  C(13)             -0.00000      -0.00027      -0.00010      -0.00009
     4  C(13)              0.00003       0.03335       0.01190       0.01112
     5  C(13)              0.00013       0.15007       0.05355       0.05006
     6  C(13)              0.00020       0.22841       0.08150       0.07619
     7  O(17)              0.00000      -0.00031      -0.00011      -0.00010
     8  N(14)              0.00001       0.00429       0.00153       0.00143
     9  H(1)              -0.00000      -0.00038      -0.00013      -0.00013
    10  C(13)              0.00000       0.00001       0.00000       0.00000
    11  C(13)             -0.00000      -0.00000      -0.00000      -0.00000
    12  C(13)             -0.00000      -0.00000      -0.00000      -0.00000
    13  C(13)             -0.00361      -4.05825      -1.44808      -1.35369
    14  C(13)              0.00793       8.91686       3.18176       2.97435
    15  C(13)              0.00014       0.15187       0.05419       0.05066
    16  O(17)             -0.00000       0.00000       0.00000       0.00000
    17  O(17)             -0.00000       0.00000       0.00000       0.00000
    18  H(1)              -0.00000      -0.00000      -0.00000      -0.00000
    19  H(1)               0.00000       0.00001       0.00000       0.00000
    20  H(1)               0.00000       0.00004       0.00002       0.00001
    21  H(1)               0.00000       0.00069       0.00025       0.00023
    22  H(1)               0.00000       0.00023       0.00008       0.00008
    23  H(1)              -0.00000      -0.00202      -0.00072      -0.00067
    24  H(1)              -0.00000      -0.00212      -0.00076      -0.00071
    25  H(1)              -0.00000      -0.00836      -0.00298      -0.00279
    26  H(1)              -0.00000      -0.01051      -0.00375      -0.00351
    27  H(1)               0.00001       0.02855       0.01019       0.00952
    28  H(1)               0.00000       0.01293       0.00461       0.00431
    29  H(1)               0.00000       0.00000       0.00000       0.00000
    30  H(1)              -0.00000      -0.00000      -0.00000      -0.00000
    31  H(1)               0.00000       0.00000       0.00000       0.00000
    32  H(1)               0.00000       0.00000       0.00000       0.00000
    33  H(1)               0.00039       1.75436       0.62600       0.58519
    34  H(1)               0.00130       5.82916       2.07999       1.94440
    35  H(1)              -0.00012      -0.51768      -0.18472      -0.17268
    36  H(1)              -0.00009      -0.39635      -0.14143      -0.13221
    37  H(1)              -0.00002      -0.07356      -0.02625      -0.02454
    38  H(1)              -0.00001      -0.06458      -0.02304      -0.02154
    39  C(13)              0.00228       2.56456       0.91510       0.85544
    40  C(13)             -0.00116      -1.30686      -0.46632      -0.43592
    41  C(13)             -0.00031      -0.34774      -0.12408      -0.11599
    42  C(13)             -0.00000      -0.00257      -0.00092      -0.00086
    43  C(13)              0.00001       0.01014       0.00362       0.00338
    44  C(13)              0.00000       0.00102       0.00036       0.00034
    45  O(17)              0.00002      -0.00953      -0.00340      -0.00318
    46  N(14)             -0.00006      -0.01788      -0.00638      -0.00597
    47  H(1)              -0.00000      -0.00498      -0.00178      -0.00166
    48  C(13)             -0.02856     -32.11005     -11.45767     -10.71076
    49  C(13)              0.13779     154.89953      55.27200      51.66892
    50  C(13)             -0.03995     -44.91681     -16.02743     -14.98263
    51  C(13)              0.00000       0.00009       0.00003       0.00003
    52  C(13)              0.00000       0.00028       0.00010       0.00009
    53  C(13)              0.00000       0.00077       0.00027       0.00026
    54  O(17)              0.01552      -9.41022      -3.35780      -3.13891
    55  N(14)              0.01548       5.00265       1.78507       1.66870
    56  H(1)              -0.00143      -6.38377      -2.27789      -2.12940
    57  H(1)              -0.00031      -1.39747      -0.49865      -0.46614
    58  H(1)              -0.00024      -1.08149      -0.38590      -0.36075
    59  H(1)               0.00014       0.62312       0.22234       0.20785
    60  H(1)               0.00015       0.67346       0.24031       0.22464
    61  H(1)               0.00000       0.00693       0.00247       0.00231
    62  H(1)              -0.00000      -0.00631      -0.00225      -0.00210
    63  H(1)              -0.00000      -0.00071      -0.00025      -0.00024
    64  H(1)              -0.00000      -0.00097      -0.00035      -0.00032
    65  H(1)              -0.00000      -0.00012      -0.00004      -0.00004
    66  H(1)              -0.00000      -0.00012      -0.00004      -0.00004
    67  H(1)               0.01615      72.16893      25.75167      24.07296
    68  H(1)               0.02354     105.22514      37.54695      35.09933
    69  H(1)              -0.01484     -66.33938     -23.67154     -22.12844
    70  H(1)              -0.00000      -0.00001      -0.00000      -0.00000
    71  H(1)              -0.00000      -0.00001      -0.00000      -0.00000
    72  H(1)              -0.00000      -0.00002      -0.00001      -0.00001
    73  H(1)              -0.00000      -0.00002      -0.00001      -0.00001
    74  H(1)              -0.00000      -0.00004      -0.00002      -0.00001
    75  H(1)               0.00000       0.00000       0.00000       0.00000
    76  N(14)              0.00000       0.00000       0.00000       0.00000
    77  H(1)              -0.00000      -0.00000      -0.00000      -0.00000
    78  H(1)              -0.00000      -0.00000      -0.00000      -0.00000
 --------------------------------------------------------
       Center         ----  Spin Dipole Couplings  ----
                      3XX-RR        3YY-RR        3ZZ-RR
 --------------------------------------------------------
     1   Atom       -0.000060     -0.000058      0.000118
     2   Atom       -0.000078     -0.000076      0.000153
     3   Atom       -0.000110     -0.000106      0.000217
     4   Atom       -0.000217     -0.000188      0.000404
     5   Atom       -0.000379     -0.000404      0.000783
     6   Atom       -0.000678     -0.000582      0.001260
     7   Atom       -0.000111     -0.000107      0.000218
     8   Atom       -0.000153     -0.000148      0.000301
     9   Atom       -0.000114     -0.000118      0.000232
    10   Atom       -0.000045     -0.000043      0.000089
    11   Atom       -0.000036     -0.000034      0.000070
    12   Atom       -0.000029     -0.000026      0.000055
    13   Atom       -0.002298     -0.001490      0.003788
    14   Atom       -0.005362     -0.003179      0.008542
    15   Atom       -0.001252     -0.001433      0.002686
    16   Atom       -0.000027     -0.000025      0.000053
    17   Atom       -0.000024     -0.000022      0.000046
    18   Atom       -0.000021     -0.000019      0.000040
    19   Atom       -0.000063     -0.000058      0.000121
    20   Atom       -0.000056     -0.000057      0.000113
    21   Atom       -0.000077     -0.000074      0.000151
    22   Atom       -0.000070     -0.000071      0.000140
    23   Atom       -0.000183     -0.000193      0.000375
    24   Atom       -0.000212     -0.000174      0.000387
    25   Atom       -0.000277     -0.000236      0.000513
    26   Atom       -0.000240     -0.000300      0.000540
    27   Atom       -0.000411     -0.000516      0.000927
    28   Atom       -0.000600     -0.000444      0.001044
    29   Atom       -0.000045     -0.000041      0.000087
    30   Atom       -0.000042     -0.000042      0.000084
    31   Atom       -0.000037     -0.000033      0.000070
    32   Atom       -0.000034     -0.000034      0.000068
    33   Atom       -0.002194      0.000175      0.002019
    34   Atom       -0.000826     -0.001394      0.002221
    35   Atom       -0.000555     -0.002082      0.002636
    36   Atom       -0.002730     -0.000994      0.003724
    37   Atom       -0.000782     -0.000423      0.001205
    38   Atom       -0.000543     -0.000856      0.001399
    39   Atom       -0.005324     -0.002046      0.007370
    40   Atom       -0.002054      0.000601      0.001453
    41   Atom       -0.001048     -0.000361      0.001408
    42   Atom       -0.000330     -0.000133      0.000463
    43   Atom       -0.000255     -0.000178      0.000433
    44   Atom       -0.000165     -0.000123      0.000287
    45   Atom       -0.000544     -0.000920      0.001464
    46   Atom       -0.000430     -0.000321      0.000751
    47   Atom       -0.000531      0.000060      0.000471
    48   Atom       -0.001755      0.005293     -0.003538
    49   Atom        0.029654      0.179381     -0.209034
    50   Atom       -0.002245     -0.009213      0.011458
    51   Atom       -0.000065     -0.000066      0.000132
    52   Atom       -0.000087     -0.000078      0.000165
    53   Atom       -0.000122     -0.000111      0.000233
    54   Atom        0.012446      0.103589     -0.116035
    55   Atom       -0.009080      0.055451     -0.046371
    56   Atom        0.003045     -0.000126     -0.002919
    57   Atom       -0.005503     -0.004740      0.010243
    58   Atom       -0.002654     -0.002474      0.005128
    59   Atom       -0.001173     -0.000722      0.001895
    60   Atom       -0.002098      0.000859      0.001239
    61   Atom       -0.000299     -0.000186      0.000485
    62   Atom       -0.000249     -0.000042      0.000291
    63   Atom       -0.000311     -0.000270      0.000581
    64   Atom       -0.000214     -0.000139      0.000352
    65   Atom       -0.000160     -0.000134      0.000294
    66   Atom       -0.000136     -0.000078      0.000214
    67   Atom        0.006642     -0.003657     -0.002985
    68   Atom       -0.008989      0.014417     -0.005428
    69   Atom        0.042956     -0.004590     -0.038366
    70   Atom       -0.000070     -0.000075      0.000145
    71   Atom       -0.000058     -0.000062      0.000120
    72   Atom       -0.000087     -0.000081      0.000169
    73   Atom       -0.000077     -0.000061      0.000137
    74   Atom       -0.000136     -0.000138      0.000274
    75   Atom       -0.000106     -0.000098      0.000204
    76   Atom       -0.000050     -0.000049      0.000099
    77   Atom       -0.000051     -0.000050      0.000101
    78   Atom       -0.000046     -0.000043      0.000089
 --------------------------------------------------------
                        XY            XZ            YZ
 --------------------------------------------------------
     1   Atom        0.000001      0.000008      0.000019
     2   Atom       -0.000001     -0.000008      0.000017
     3   Atom       -0.000001      0.000008      0.000016
     4   Atom       -0.000016      0.000022     -0.000083
     5   Atom       -0.000008     -0.000137      0.000051
     6   Atom       -0.000013      0.000066     -0.000232
     7   Atom       -0.000007      0.000043      0.000034
     8   Atom       -0.000001     -0.000006     -0.000033
     9   Atom        0.000005     -0.000042     -0.000028
    10   Atom       -0.000000     -0.000001      0.000017
    11   Atom        0.000001      0.000006      0.000016
    12   Atom        0.000000      0.000001      0.000014
    13   Atom       -0.001533      0.000475      0.001672
    14   Atom       -0.001974      0.003909     -0.005186
    15   Atom       -0.000147     -0.000862      0.000713
    16   Atom       -0.000001     -0.000004      0.000013
    17   Atom        0.000001      0.000004      0.000013
    18   Atom        0.000000      0.000002      0.000011
    19   Atom        0.000003      0.000016      0.000032
    20   Atom        0.000001      0.000016      0.000008
    21   Atom       -0.000003     -0.000023      0.000032
    22   Atom        0.000000     -0.000016      0.000000
    23   Atom       -0.000011      0.000081     -0.000052
    24   Atom        0.000004     -0.000016     -0.000126
    25   Atom        0.000003     -0.000005      0.000129
    26   Atom       -0.000004     -0.000171      0.000020
    27   Atom       -0.000036      0.000317     -0.000057
    28   Atom        0.000018     -0.000035     -0.000340
    29   Atom       -0.000001     -0.000008      0.000024
    30   Atom       -0.000000     -0.000006      0.000008
    31   Atom        0.000002      0.000010      0.000022
    32   Atom        0.000001      0.000010      0.000010
    33   Atom       -0.000023     -0.000053      0.003452
    34   Atom       -0.000835     -0.002894      0.002776
    35   Atom       -0.000097      0.001730      0.000245
    36   Atom        0.000347      0.000060     -0.000938
    37   Atom        0.000012     -0.000028      0.000677
    38   Atom       -0.000091     -0.000651      0.000320
    39   Atom       -0.001712     -0.002402      0.007554
    40   Atom       -0.000963      0.000243      0.001919
    41   Atom        0.000013      0.000092      0.001085
    42   Atom       -0.000016     -0.000018      0.000384
    43   Atom        0.000017      0.000070      0.000233
    44   Atom        0.000004      0.000011      0.000135
    45   Atom       -0.000207     -0.000383      0.000483
    46   Atom       -0.000030      0.000208      0.000607
    47   Atom        0.000100      0.000124      0.000797
    48   Atom       -0.011181      0.010242     -0.003366
    49   Atom       -0.583557      0.372801     -0.430673
    50   Atom        0.008670     -0.017669      0.009592
    51   Atom        0.000004      0.000029      0.000026
    52   Atom        0.000003      0.000017      0.000048
    53   Atom        0.000009      0.000045      0.000076
    54   Atom       -0.226770      0.115698     -0.145206
    55   Atom       -0.134821      0.073379     -0.090740
    56   Atom        0.008593     -0.000822      0.003190
    57   Atom        0.000071     -0.000398      0.001365
    58   Atom       -0.002381     -0.004716      0.004746
    59   Atom        0.000863      0.001530      0.002200
    60   Atom        0.000177      0.000262      0.002719
    61   Atom       -0.000063     -0.000152      0.000334
    62   Atom       -0.000021     -0.000032      0.000337
    63   Atom        0.000021      0.000096      0.000202
    64   Atom        0.000054      0.000130      0.000247
    65   Atom       -0.000009     -0.000036      0.000114
    66   Atom        0.000001      0.000004      0.000141
    67   Atom        0.009481      0.006720      0.006002
    68   Atom        0.005797      0.001245      0.004325
    69   Atom        0.028934     -0.019177     -0.037960
    70   Atom        0.000002      0.000035      0.000010
    71   Atom        0.000007      0.000042      0.000031
    72   Atom       -0.000001     -0.000004      0.000038
    73   Atom        0.000003      0.000012      0.000059
    74   Atom        0.000007      0.000059      0.000047
    75   Atom        0.000019      0.000072      0.000085
    76   Atom        0.000002      0.000016      0.000018
    77   Atom        0.000000      0.000006      0.000012
    78   Atom        0.000002      0.000013      0.000025
 --------------------------------------------------------


 ---------------------------------------------------------------------------------
              Anisotropic Spin Dipole Couplings in Principal Axis System
 ---------------------------------------------------------------------------------

       Atom             a.u.   MegaHertz   Gauss  10(-4) cm-1        Axes

              Baa    -0.0001    -0.008    -0.003    -0.003  0.9640  0.2571 -0.0678
     1 C(13)  Bbb    -0.0001    -0.008    -0.003    -0.003 -0.2626  0.9607 -0.0902
              Bcc     0.0001     0.016     0.006     0.005  0.0419  0.1047  0.9936
 
              Baa    -0.0001    -0.010    -0.004    -0.003  0.9716  0.2361  0.0176
     2 C(13)  Bbb    -0.0001    -0.010    -0.004    -0.003 -0.2339  0.9688 -0.0815
              Bcc     0.0002     0.021     0.007     0.007 -0.0363  0.0751  0.9965
 
              Baa    -0.0001    -0.015    -0.005    -0.005  0.9335  0.3563 -0.0407
     3 C(13)  Bbb    -0.0001    -0.014    -0.005    -0.005 -0.3578  0.9330 -0.0386
              Bcc     0.0002     0.029     0.010     0.010  0.0242  0.0505  0.9984
 
              Baa    -0.0002    -0.030    -0.011    -0.010  0.8885  0.4579  0.0286
     4 C(13)  Bbb    -0.0002    -0.026    -0.009    -0.009 -0.4572  0.8785  0.1388
              Bcc     0.0004     0.056     0.020     0.019  0.0384 -0.1364  0.9899
 
              Baa    -0.0004    -0.055    -0.019    -0.018  0.1512  0.9882 -0.0247
     5 C(13)  Bbb    -0.0004    -0.053    -0.019    -0.018  0.9817 -0.1472  0.1205
              Bcc     0.0008     0.108     0.038     0.036 -0.1155  0.0424  0.9924
 
              Baa    -0.0007    -0.091    -0.033    -0.030  0.9969  0.0747 -0.0249
     6 C(13)  Bbb    -0.0006    -0.082    -0.029    -0.027 -0.0710  0.9896  0.1250
              Bcc     0.0013     0.173     0.062     0.058  0.0340 -0.1229  0.9918
 
              Baa    -0.0001     0.009     0.003     0.003  0.7786  0.6071 -0.1590
     7 O(17)  Bbb    -0.0001     0.007     0.003     0.002 -0.6151  0.7884 -0.0017
              Bcc     0.0002    -0.016    -0.006    -0.005  0.1243  0.0991  0.9873
 
              Baa    -0.0002    -0.006    -0.002    -0.002  0.9218  0.3854  0.0413
     8 N(14)  Bbb    -0.0002    -0.006    -0.002    -0.002 -0.3873  0.9199  0.0619
              Bcc     0.0003     0.012     0.004     0.004 -0.0141 -0.0730  0.9972
 
              Baa    -0.0001    -0.065    -0.023    -0.022 -0.5389  0.8423  0.0030
     9 H(1)   Bbb    -0.0001    -0.063    -0.022    -0.021  0.8338  0.5330  0.1437
              Bcc     0.0002     0.128     0.046     0.043 -0.1194 -0.0799  0.9896
 
              Baa    -0.0000    -0.006    -0.002    -0.002  0.9900  0.1409 -0.0093
    10 C(13)  Bbb    -0.0000    -0.006    -0.002    -0.002 -0.1410  0.9822 -0.1240
              Bcc     0.0001     0.012     0.004     0.004 -0.0083  0.1241  0.9922
 
              Baa    -0.0000    -0.005    -0.002    -0.002  0.9414  0.3221 -0.1005
    11 C(13)  Bbb    -0.0000    -0.005    -0.002    -0.002 -0.3329  0.9352 -0.1211
              Bcc     0.0001     0.010     0.003     0.003  0.0550  0.1475  0.9875
 
              Baa    -0.0000    -0.004    -0.001    -0.001  0.9780  0.2034 -0.0457
    12 C(13)  Bbb    -0.0000    -0.004    -0.001    -0.001 -0.2081  0.9658 -0.1547
              Bcc     0.0001     0.008     0.003     0.003  0.0127  0.1609  0.9869
 
              Baa    -0.0037    -0.503    -0.180    -0.168  0.7417  0.6434 -0.1894
    13 C(13)  Bbb    -0.0005    -0.070    -0.025    -0.023 -0.6707  0.7135 -0.2027
              Bcc     0.0043     0.573     0.205     0.191  0.0048  0.2774  0.9607
 
              Baa    -0.0066    -0.888    -0.317    -0.296  0.9273  0.3553 -0.1176
    14 C(13)  Bbb    -0.0050    -0.672    -0.240    -0.224 -0.2799  0.8669  0.4125
              Bcc     0.0116     1.560     0.557     0.520  0.2485 -0.3496  0.9033
 
              Baa    -0.0016    -0.208    -0.074    -0.070  0.0112  0.9864 -0.1637
    15 C(13)  Bbb    -0.0014    -0.192    -0.069    -0.064  0.9793  0.0223  0.2012
              Bcc     0.0030     0.401     0.143     0.134 -0.2021  0.1626  0.9658
 
              Baa    -0.0000     0.002     0.001     0.001  0.9969  0.0653  0.0450
    16 O(17)  Bbb    -0.0000     0.002     0.001     0.001 -0.0574  0.9856 -0.1591
              Bcc     0.0001    -0.004    -0.001    -0.001 -0.0547  0.1560  0.9862
 
              Baa    -0.0000     0.002     0.001     0.001  0.9409  0.3180 -0.1162
    17 O(17)  Bbb    -0.0000     0.002     0.001     0.001 -0.3329  0.9314 -0.1469
              Bcc     0.0000    -0.004    -0.001    -0.001  0.0616  0.1769  0.9823
 
              Baa    -0.0000    -0.011    -0.004    -0.004  0.9602  0.2668 -0.0821
    18 H(1)   Bbb    -0.0000    -0.011    -0.004    -0.004 -0.2772  0.9463 -0.1666
              Bcc     0.0000     0.023     0.008     0.008  0.0332  0.1827  0.9826
 
              Baa    -0.0001    -0.034    -0.012    -0.011  0.9962  0.0020 -0.0871
    19 H(1)   Bbb    -0.0001    -0.034    -0.012    -0.011 -0.0169  0.9853 -0.1698
              Bcc     0.0001     0.068     0.024     0.023  0.0855  0.1707  0.9816
 
              Baa    -0.0001    -0.031    -0.011    -0.010  0.9137  0.3923 -0.1060
    20 H(1)   Bbb    -0.0001    -0.031    -0.011    -0.010 -0.3949  0.9187 -0.0043
              Bcc     0.0001     0.061     0.022     0.020  0.0958  0.0458  0.9944
 
              Baa    -0.0001    -0.042    -0.015    -0.014  0.9312  0.3621  0.0415
    21 H(1)   Bbb    -0.0001    -0.042    -0.015    -0.014 -0.3513  0.9221 -0.1623
              Bcc     0.0002     0.084     0.030     0.028 -0.0970  0.1366  0.9859
 
              Baa    -0.0001    -0.038    -0.013    -0.013  0.9549 -0.2873  0.0750
    22 H(1)   Bbb    -0.0001    -0.038    -0.013    -0.013  0.2865  0.9578  0.0208
              Bcc     0.0001     0.076     0.027     0.025 -0.0778  0.0016  0.9970
 
              Baa    -0.0002    -0.107    -0.038    -0.036  0.5238  0.8518  0.0043
    23 H(1)   Bbb    -0.0002    -0.102    -0.037    -0.034  0.8402 -0.5158 -0.1672
              Bcc     0.0004     0.209     0.075     0.070  0.1402 -0.0911  0.9859
 
              Baa    -0.0002    -0.114    -0.041    -0.038  0.9995 -0.0211  0.0222
    24 H(1)   Bbb    -0.0002    -0.107    -0.038    -0.036  0.0160  0.9777  0.2094
              Bcc     0.0004     0.221     0.079     0.074 -0.0261 -0.2090  0.9776
 
              Baa    -0.0003    -0.148    -0.053    -0.049  0.9848 -0.1704  0.0337
    25 H(1)   Bbb    -0.0003    -0.137    -0.049    -0.046  0.1736  0.9715 -0.1614
              Bcc     0.0005     0.285     0.102     0.095 -0.0052  0.1648  0.9863
 
              Baa    -0.0003    -0.160    -0.057    -0.054 -0.0106  0.9996 -0.0254
    26 H(1)   Bbb    -0.0003    -0.147    -0.052    -0.049  0.9787  0.0155  0.2049
              Bcc     0.0006     0.308     0.110     0.103 -0.2052  0.0227  0.9784
 
              Baa    -0.0005    -0.283    -0.101    -0.094  0.4354  0.8982 -0.0597
    27 H(1)   Bbb    -0.0005    -0.252    -0.090    -0.084  0.8730 -0.4375 -0.2157
              Bcc     0.0010     0.534     0.191     0.178  0.2199 -0.0418  0.9746
 
              Baa    -0.0006    -0.321    -0.115    -0.107  0.9926 -0.1217 -0.0039
    28 H(1)   Bbb    -0.0005    -0.276    -0.098    -0.092  0.1197  0.9695  0.2138
              Bcc     0.0011     0.597     0.213     0.199 -0.0222 -0.2126  0.9769
 
              Baa    -0.0000    -0.024    -0.009    -0.008  0.9971  0.0580  0.0489
[...]
   D173      -0.02638   0.00001   0.00000   0.00003   0.00003  -0.02635
   D174       3.10780  -0.00009   0.00000  -0.00017  -0.00017   3.10763
   D175       0.08529  -0.00010   0.00000  -0.00017  -0.00017   0.08512
   D176      -0.04623  -0.00008   0.00000  -0.00014  -0.00014  -0.04637
   D177      -3.06874  -0.00008   0.00000  -0.00015  -0.00015  -3.06889
   D178      -1.01256  -0.00000   0.00000  -0.00001  -0.00001  -1.01257
   D179       1.11662   0.00000   0.00000   0.00000   0.00000   1.11663
   D180       3.14038   0.00002   0.00000   0.00004   0.00004   3.14042
   D181       1.01409  -0.00002   0.00000  -0.00004  -0.00004   1.01406
   D182      -3.13991  -0.00002   0.00000  -0.00003  -0.00003  -3.13994
   D183      -1.11615   0.00000   0.00000   0.00001   0.00001  -1.11614
   D184      -3.14103  -0.00001   0.00000  -0.00001  -0.00001  -3.14105
   D185      -1.01185  -0.00000   0.00000  -0.00001  -0.00001  -1.01186
   D186       1.01191   0.00002   0.00000   0.00003   0.00003   1.01194
   D187       1.01704  -0.00003   0.00000  -0.00005  -0.00005   1.01698
   D188      -1.01164   0.00002   0.00000   0.00003   0.00003  -1.01161
   D189      -1.12461  -0.00001   0.00000  -0.00002  -0.00002  -1.12463
   D190       3.12989   0.00004   0.00000   0.00006   0.00006   3.12996
   D191      -3.12505  -0.00003   0.00000  -0.00006  -0.00006  -3.12511
   D192       1.12945   0.00002   0.00000   0.00003   0.00003   1.12948
   D193      -3.13802  -0.00001   0.00000  -0.00002  -0.00002  -3.13803
   D194       1.01629   0.00001   0.00000   0.00002   0.00002   1.01632
   D195      -1.00967   0.00002   0.00000   0.00004   0.00004  -1.00963
   D196       1.02169   0.00000   0.00000   0.00000   0.00000   1.02169
   D197      -1.10719   0.00002   0.00000   0.00004   0.00004  -1.10715
   D198      -3.13315   0.00003   0.00000   0.00006   0.00006  -3.13309
   D199      -1.01402  -0.00003   0.00000  -0.00006  -0.00006  -1.01408
   D200       3.14029  -0.00001   0.00000  -0.00002  -0.00002   3.14027
   D201       1.11433  -0.00000   0.00000  -0.00000  -0.00000   1.11433
         Item               Value     Threshold  Converged?
 Maximum Force            0.028357     0.000450     NO 
 RMS     Force            0.001432     0.000300     NO 
 Maximum Displacement     0.059319     0.001800     NO 
 RMS     Displacement     0.003724     0.001200     NO 
 Predicted change in Energy=-2.507936D-04
 GradGradGradGradGradGradGradGradGradGradGradGradGradGradGradGradGradGrad

 Symmetry turned off by external request.
 Stoichiometry    C24H45N4O5(2)
 Framework group  C1[X(C24H45N4O5)]
 Deg. of freedom   228
 Full point group                 C1      NOp   1
                          Input orientation:                          
 ---------------------------------------------------------------------
 Center     Atomic      Atomic             Coordinates (Angstroms)
 Number     Number       Type             X           Y           Z
 ---------------------------------------------------------------------
      1          6           0       -0.309357    0.404399    1.298126
      2          6           0        0.704284    0.793414    2.364478
      3          6           0        0.049778    1.132594    3.689556
      4          6           0        0.233694    2.428625    5.762858
      5          6           0        0.760261    1.467493    6.821428
      6          6           0        0.260332    1.818168    8.216330
      7          8           0       -0.964778    0.569946    4.075605
      8          7           0        0.668344    2.083408    4.421320
      9          1           0        1.525182    2.478273    4.071130
     10          6           0        0.363296   -0.017012   -0.001260
     11          6           0       -0.652511   -0.405893   -1.061148
     12          6           0       -0.021707   -0.835502   -2.355868
     13          6           0        0.817290    0.240332   11.731255
     14          6           0        0.278236    1.205872   10.681406
     15          6           0        0.785050    0.868288    9.285863
     16          8           0        1.169141   -0.887413   -2.582727
     17          8           0       -0.944628   -1.170658   -3.274910
     18          1           0       -0.480915   -1.438707   -4.082418
     19          1           0       -0.931202   -0.406809    1.680814
     20          1           0       -0.980979    1.247356    1.111111
     21          1           0        1.381044   -0.046214    2.553443
     22          1           0        1.322225    1.626784    2.023371
     23          1           0       -0.856876    2.423815    5.768570
     24          1           0        0.565435    3.446288    5.972463
     25          1           0        0.444574    0.454718    6.557316
     26          1           0        1.854190    1.478845    6.805015
     27          1           0       -0.834405    1.801299    8.222965
     28          1           0        0.556942    2.842332    8.466155
     29          1           0        1.032029   -0.860982    0.184248
     30          1           0        0.988875    0.794260   -0.381388
     31          1           0       -1.289275   -1.226602   -0.719714
     32          1           0       -1.330850    0.421582   -1.286482
     33          1           0        0.508506   -0.780120   11.500102
     34          1           0        1.907894    0.267524   11.729322
     35          1           0       -0.815334    1.177952   10.696012
     36          1           0        0.580451    2.220065   10.954825
     37          1           0        0.495398   -0.156533    9.030099
     38          1           0        1.879784    0.889707    9.282572
     39          6           0        0.323179    2.780662   17.426252
     40          6           0        0.977875    3.802449   18.341389
     41          6           0        0.343537    3.848059   19.718803
     42          6           0        0.071325    5.167081   21.768371
     43          6           0        1.041602    4.577100   22.784405
     44          6           0        0.535367    4.725592   24.212721
     45          8           0       -0.273216    2.902628   20.187643
     46          7           0        0.517034    5.002922   20.396596
     47          1           0        1.076385    5.726609   19.976394
     48          6           0        1.000223    2.727705   16.062665
     49          6           0        0.396419    1.733431   15.145872
     50          6           0        0.978613    1.497823   13.833217
     51          6           0        1.958590    3.717815   27.705056
     52          6           0        0.990228    4.290922   26.676247
     53          6           0        1.496011    4.150412   25.246174
     54          8           0        1.970880    2.110902   13.438553
     55          7           0        0.370028    0.549075   13.074225
     56          1           0       -0.474501    0.123043   13.417447
     57          1           0        0.359314    1.798795   17.900346
     58          1           0       -0.734377    3.027334   17.302963
     59          1           0        2.034926    3.553857   18.481883
     60          1           0        0.949634    4.797199   17.890257
     61          1           0       -0.900303    4.680178   21.860547
     62          1           0       -0.070680    6.233050   21.950755
     63          1           0        1.189493    3.519934   22.548720
     64          1           0        2.012885    5.070124   22.680778
     65          1           0       -0.435850    4.228591   24.305627
     66          1           0        0.362094    5.784955   24.431028
     67          1           0        2.068717    2.505536   16.173486
     68          1           0        0.974526    3.716210   15.585194
     69          1           0       -0.484977    1.180040   15.446697
     70          1           0        2.137687    2.661976   27.485600
     71          1           0        2.925101    4.220252   27.612017
     72          1           0        0.023690    3.785091   26.775400
     73          1           0        0.814074    5.348272   26.902307
     74          1           0        1.671809    3.092393   25.025529
     75          1           0        2.466289    4.649961   25.153868
     76          7           0        1.528852    3.821984   29.098554
     77          1           0        0.639154    3.349415   29.218256
     78          1           0        1.365377    4.795059   29.334365
 ---------------------------------------------------------------------
 Rotational constants (GHZ):           0.8946160           0.0110817           0.0110452
 Standard basis: def2TZVP (5D, 7F)
  1293 basis functions,  2043 primitive gaussians,  1458 cartesian basis functions
   129 alpha electrons      128 beta electrons
       nuclear repulsion energy      2786.8578194143 Hartrees.
 NAtoms=   78 NActive=   78 NUniq=   78 SFac= 1.00D+00 NAtFMM=   60 NAOKFM=T Big=T
 Integral buffers will be    131072 words long.
 Raffenetti 2 integral format.
 Two-electron integral symmetry is turned off.
 ------------------------------------------------------------------------------
 Polarizable Continuum Model (PCM)
 =================================
 Model                : PCM.
 Atomic radii         : UFF (Universal Force Field).
 Polarization charges : Total charges.
 Charge compensation  : None.
 Solution method      : On-the-fly selection.
 Cavity type          : Scaled VdW (van der Waals Surface) (Alpha=1.100).
 Cavity algorithm     : GePol (No added spheres)
                        Default sphere list used, NSphG=   78.
                        Lebedev-Laikov grids with approx.  5.0 points / Ang**2.
                        Smoothing algorithm: York/Karplus (Gamma=1.0000).
                        Polarization charges: spherical gaussians, with
                                              point-specific exponents (IZeta= 3).
                        Self-potential: point-specific (ISelfS= 7).
                        Self-field    : sphere-specific E.n sum rule (ISelfD= 2).
 1st derivatives      : Analytical E(r).r(x)/FMM algorithm (CHGder, D1EAlg=3).
                        Cavity 1st derivative terms included.
 Solvent              : FluoroBenzene, Eps=   5.420000 Eps(inf)=   2.156199
 ------------------------------------------------------------------------------
 One-electron integrals computed using PRISM.
   1 Symmetry operations used in ECPInt.
 ECPInt:  NShTT=  147696 NPrTT=  433776 LenC2=   68311 LenP2D=  138752.
 LDataN:  DoStor=T MaxTD1= 6 Len=  172
 NBasis=  1293 RedAO= T EigKep=  3.62D-05  NBF=  1293
 NBsUse=  1293 1.00D-06 EigRej= -1.00D+00 NBFU=  1293
 Initial guess from the checkpoint file:  "/dev/shm/nylon66_dimer_49_69_f2_fb.chk"
 B after Tr=     0.003603    0.000083   -0.000262
         Rot=    1.000000   -0.000006    0.000049   -0.000060 Ang=  -0.01 deg.
 Initial guess <Sx>= 0.0000 <Sy>= 0.0000 <Sz>= 0.5000 <S**2>= 0.7564 S= 0.5032
 ExpMin= 9.52D-02 ExpMax= 2.70D+04 ExpMxC= 9.22D+02 IAcc=3 IRadAn=         5 AccDes= 0.00D+00
 Harris functional with IExCor= 1009 and IRadAn=       5 diagonalized for initial guess.
 HarFok:  IExCor= 1009 AccDes= 0.00D+00 IRadAn=         5 IDoV= 1 UseB2=F ITyADJ=14
 ICtDFT=  3500011 ScaDFX=  1.000000  1.000000  1.000000  1.000000
 FoFCou: FMM=F IPFlag=           0 FMFlag=      100000 FMFlg1=        2001
         NFxFlg=           0 DoJE=T BraDBF=F KetDBF=T FulRan=T
         wScrn=  0.000000 ICntrl=       500 IOpCl=  0 I1Cent=   200000004 NGrid=           0
         NMat0=    1 NMatS0=      1 NMatT0=    0 NMatD0=    1 NMtDS0=    0 NMtDT0=    0
 Symmetry not used in FoFCou.
 Requested convergence on RMS density matrix=1.00D-08 within  32 cycles.
 Requested convergence on MAX density matrix=1.00D-06.
 Requested convergence on             energy=1.00D-06.
 No special actions if energy rises.
 Inv3:  Mode=1 IEnd=    85739148.
 Iteration    1 A*A^-1 deviation from unit magnitude is 3.66D-15 for    218.
 Iteration    1 A*A^-1 deviation from orthogonality  is 2.66D-15 for   4120   2678.
 Iteration    1 A^-1*A deviation from unit magnitude is 3.55D-15 for   3205.
 Iteration    1 A^-1*A deviation from orthogonality  is 1.37D-13 for   5073   5055.
 Error on total polarization charges =  0.02278
 SCF Done:  E(UM062X) =  -1536.77154427     A.U. after    9 cycles
            NFock=  9  Conv=0.52D-08     -V/T= 2.0049
 <Sx>= 0.0000 <Sy>= 0.0000 <Sz>= 0.5000 <S**2>= 0.7564 S= 0.5032
 <L.S>= 0.000000000000E+00
 Annihilation of the first spin contaminant:
 S**2 before annihilation     0.7564,   after     0.7500
 QCSCF skips out because SCF is already converged.
   1 Symmetry operations used in ECPInt.
 ECPInt:  NShTT=  147696 NPrTT=  433776 LenC2=   68311 LenP2D=  138752.
 LDataN:  DoStor=T MaxTD1= 7 Len=  274
 D1PCM: PCM CHGder 1st derivatives, ID1Alg=3 FixD1E=F DoIter=F DoCFld=F I1PDM=0.
 Calling FoFJK, ICntrl=      2127 FMM=T ISym2X=0 I1Cent= 0 IOpClX= 1 NMat=1 NMatS=1 NMatT=0.
 -------------------------------------------------------------------
 Center     Atomic                   Forces (Hartrees/Bohr)
 Number     Number              X              Y              Z
 -------------------------------------------------------------------
      1        6          -0.000255161    0.000053400   -0.000009879
      2        6          -0.000020205    0.000019450    0.000028247
      3        6           0.000117246    0.000216914   -0.000191968
      4        6          -0.000001566   -0.000061662   -0.000069166
      5        6          -0.000024887   -0.000009664    0.000071063
      6        6           0.000026245   -0.000087931   -0.000019010
      7        8          -0.000249045   -0.000284620    0.000156288
      8        7           0.000099927    0.000095183    0.000015718
      9        1           0.000031562   -0.000027195    0.000043849
     10        6           0.000068527    0.000010341    0.000054237
     11        6           0.000783548   -0.000127178   -0.000466163
     12        6           0.013194273   -0.001084922   -0.003947592
     13        6          -0.000123516   -0.000149323   -0.000114492
     14        6           0.000086150   -0.000116361   -0.000068351
     15        6           0.000043037   -0.000047507   -0.000037785
     16        8          -0.017403372    0.000557417    0.002745943
     17        8           0.003040707    0.000787287    0.002077027
     18        1           0.000192813   -0.000057912   -0.000169011
     19        1           0.000105509   -0.000075101    0.000033539
     20        1           0.000082379    0.000063349   -0.000027786
     21        1           0.000018112    0.000009280   -0.000034047
     22        1           0.000056410   -0.000049122   -0.000017038
     23        1          -0.000001680    0.000032450    0.000023449
     24        1          -0.000029062    0.000007784    0.000006627
     25        1           0.000011280    0.000005051   -0.000034205
     26        1           0.000000076    0.000017985   -0.000006671
     27        1          -0.000001326    0.000068205    0.000023272
     28        1          -0.000035576    0.000013610   -0.000007601
     29        1           0.000007787    0.000039246   -0.000031148
     30        1           0.000016644   -0.000043349    0.000024094
     31        1           0.000094235   -0.000113323   -0.000108801
     32        1           0.000075664    0.000009552   -0.000159075
     33        1          -0.000034467    0.000012832    0.000015741
     34        1           0.000003567    0.000111169    0.000054075
     35        1          -0.000002729    0.000103144    0.000051966
     36        1          -0.000064659    0.000018794    0.000016036
     37        1          -0.000025504    0.000008899    0.000004117
     38        1          -0.000001076    0.000051827    0.000031738
     39        6          -0.000168931    0.000151538    0.000018957
     40        6           0.000013650   -0.000030502   -0.000031212
     41        6          -0.000215426    0.000190089   -0.000197672
     42        6          -0.000032855   -0.000217984   -0.000016394
     43        6          -0.000067274    0.000125571   -0.000047703
     44        6          -0.000062216   -0.000008214    0.000007629
     45        8           0.000056617   -0.000203912    0.000130183
     46        7           0.000108191    0.000117265    0.000025989
     47        1          -0.000043106    0.000018128   -0.000016027
     48        6           0.000011219   -0.000118287   -0.000012795
     49        6          -0.000159475    0.000048839    0.000060922
     50        6          -0.000503729   -0.000241012    0.000276611
     51        6           0.000016608    0.000029448    0.000061385
     52        6          -0.000111310   -0.000016511   -0.000017467
     53        6           0.000015691    0.000096882    0.000037974
     54        8           0.000819668    0.000432589   -0.000257241
     55        7          -0.000085649   -0.000127583   -0.000132762
     56        1           0.000061560   -0.000072631    0.000048072
     57        1           0.000083021   -0.000008871   -0.000020294
     58        1          -0.000001181   -0.000025318   -0.000014082
     59        1          -0.000009153   -0.000035835    0.000023478
     60        1           0.000100768    0.000020509    0.000031693
     61        1          -0.000019028    0.000057624    0.000035172
     62        1           0.000035168    0.000007371    0.000003689
     63        1           0.000049764    0.000003737    0.000004192
     64        1           0.000031055   -0.000055433    0.000035586
     65        1           0.000023430   -0.000043100    0.000014868
     66        1           0.000027573    0.000008356   -0.000018585
     67        1           0.000000923    0.000005295    0.000045233
     68        1           0.000029279    0.000009839    0.000004571
     69        1           0.000023064   -0.000023922    0.000036797
     70        1          -0.000006043    0.000005099   -0.000022996
     71        1          -0.000001005   -0.000002068   -0.000022978
     72        1           0.000023866   -0.000041612    0.000006124
     73        1           0.000048750    0.000010278   -0.000009477
     74        1           0.000000538    0.000004670   -0.000025005
     75        1           0.000020857   -0.000040825   -0.000000270
     76        7           0.000079095   -0.000051056    0.000015777
     77        1          -0.000026853    0.000045419   -0.000006389
     78        1          -0.000048991   -0.000001868   -0.000012787
 -------------------------------------------------------------------
 Cartesian Forces:  Max     0.017403372 RMS     0.001489496

 GradGradGradGradGradGradGradGradGradGradGradGradGradGradGradGradGradGrad
 Berny optimization.
 Using GEDIIS/GDIIS optimizer.
 FormGI is forming the generalized inverse of G from B-inverse, IUseBI=4.
 Internal  Forces:  Max     0.017618777 RMS     0.000886908
 Search for a local minimum.
 Step number  18 out of a maximum of  430
 All quantities printed in internal units (Hartrees-Bohrs-Radians)
 Mixed Optimization -- En-DIIS/RFO-DIIS
 Update second derivatives using D2CorX and points    2    3    4    5    7
                                                      8    9   10   11   12
                                                     13   14   15   16   17
                                                     18    6
 ITU=  0  0  0  0  0  0  0  0  0 -1  0 -1  1 -1  1  0  1  0
 Use linear search instead of GDIIS.
 Skip linear search -- no minimum in search direction.
 Steepest descent instead of Quadratic search.
 Steepest descent step scaled to max of 0.05000.
 Iteration  1 RMS(Cart)=  0.00289994 RMS(Int)=  0.00000239
 Iteration  2 RMS(Cart)=  0.00002130 RMS(Int)=  0.00000001
 Iteration  3 RMS(Cart)=  0.00000000 RMS(Int)=  0.00000001
