 Entering Gaussian System, Link 0=g16
 Initial command:
 /nopt/nrel/apps/gaussian/g16B/g16/l1.exe "/dev/shm/Gau-103024.inp" -scrdir="/dev/shm/"
 Default linda workers: r6i0n0
 Default is to use  36 SMP processors on each worker.
 Entering Link 1 = /nopt/nrel/apps/gaussian/g16B/g16/l1.exe PID=    103025.
  
 Copyright (c) 1988-2017, Gaussian, Inc.  All Rights Reserved.
  
 This is part of the Gaussian(R) 16 program.  It is based on
 the Gaussian(R) 09 system (copyright 2009, Gaussian, Inc.),
 the Gaussian(R) 03 system (copyright 2003, Gaussian, Inc.),
 the Gaussian(R) 98 system (copyright 1998, Gaussian, Inc.),
 the Gaussian(R) 94 system (copyright 1995, Gaussian, Inc.),
 the Gaussian 92(TM) system (copyright 1992, Gaussian, Inc.),
 the Gaussian 90(TM) system (copyright 1990, Gaussian, Inc.),
 the Gaussian 88(TM) system (copyright 1988, Gaussian, Inc.),
 the Gaussian 86(TM) system (copyright 1986, Carnegie Mellon
 University), and the Gaussian 82(TM) system (copyright 1983,
 Carnegie Mellon University). Gaussian is a federally registered
 trademark of Gaussian, Inc.
  
 This software contains proprietary and confidential information,
 including trade secrets, belonging to Gaussian, Inc.
  
 This software is provided under written license and may be
 used, copied, transmitted, or stored only in accord with that
 written license.
  
 The following legend is applicable only to US Government
 contracts under FAR:
  
                    RESTRICTED RIGHTS LEGEND
  
 Use, reproduction and disclosure by the US Government is
 subject to restrictions as set forth in subparagraphs (a)
 and (c) of the Commercial Computer Software - Restricted
 Rights clause in FAR 52.227-19.
  
 Gaussian, Inc.
 340 Quinnipiac St., Bldg. 40, Wallingford CT 06492
  
  
 ---------------------------------------------------------------
 Warning -- This program may not be used in any manner that
 competes with the business of Gaussian, Inc. or will provide
 assistance to any competitor of Gaussian, Inc.  The licensee
 of this program is prohibited from giving any competitor of
 Gaussian, Inc. access to this program.  By using this program,
 the user acknowledges that Gaussian, Inc. is engaged in the
 business of creating and licensing software in the field of
 computational chemistry and represents and warrants to the
 licensee that it is not a competitor of Gaussian, Inc. and that
 it will not use this program in any manner prohibited above.
 ---------------------------------------------------------------
  

 Cite this work as:
 Gaussian 16, Revision B.01,
 M. J. Frisch, G. W. Trucks, H. B. Schlegel, G. E. Scuseria, 
 M. A. Robb, J. R. Cheeseman, G. Scalmani, V. Barone, 
 G. A. Petersson, H. Nakatsuji, X. Li, M. Caricato, A. V. Marenich, 
 J. Bloino, B. G. Janesko, R. Gomperts, B. Mennucci, H. P. Hratchian, 
 J. V. Ortiz, A. F. Izmaylov, J. L. Sonnenberg, D. Williams-Young, 
 F. Ding, F. Lipparini, F. Egidi, J. Goings, B. Peng, A. Petrone, 
 T. Henderson, D. Ranasinghe, V. G. Zakrzewski, J. Gao, N. Rega, 
 G. Zheng, W. Liang, M. Hada, M. Ehara, K. Toyota, R. Fukuda, 
 J. Hasegawa, M. Ishida, T. Nakajima, Y. Honda, O. Kitao, H. Nakai, 
 T. Vreven, K. Throssell, J. A. Montgomery, Jr., J. E. Peralta, 
 F. Ogliaro, M. J. Bearpark, J. J. Heyd, E. N. Brothers, K. N. Kudin, 
 V. N. Staroverov, T. A. Keith, R. Kobayashi, J. Normand, 
 K. Raghavachari, A. P. Rendell, J. C. Burant, S. S. Iyengar, 
 J. Tomasi, M. Cossi, J. M. Millam, M. Klene, C. Adamo, R. Cammi, 
 J. W. Ochterski, R. L. Martin, K. Morokuma, O. Farkas, 
 J. B. Foresman, and D. J. Fox, Gaussian, Inc., Wallingford CT, 2016.
 
 ******************************************
 Gaussian 16:  ES64L-G16RevB.01 20-Dec-2017
                 1-Jul-2019 
 ******************************************
 %RWF=/dev/shm/,5GB,/tmp/scratch/927338/,-1
 %NoSave
 %OldChk=pet_mono_1.chk
 %Chk=/dev/shm/pet_mono_1_tzvp.chk
 SetLPE:    new flags="-opt 'Tsnet.Node.lindarsharg: ssh'  -nodelist 'r6i0n0.ib0.cm.hpc.nrel.gov' -env GAUSS_MDEF=9663676416 -env GAUSS_EXEDIR="/nopt/nrel/apps/gaussian/g16B/g16/bsd:/nopt/nrel/apps/gaussian/g16B/g16/local:/nopt/nrel/apps/gaussian/g16B/g16/extras:/nopt/nrel/apps/gaussian/g16B/g16""
 Will use up to    1 processors via Linda.
 Copying data from "pet_mono_1.chk" to current chk file "/dev/shm/pet_mono_1_tzvp.chk"
 IOpt=  2 FromEx=T IUOpen= 4 IOptOp= 5 NList=   0 IFRang= 0 IUIn= 4 IUOut= 2.
 Default route: CacheSize=180224 MaxDisk=256GB
 ----------------------------------------------------------------------
 # geom=allcheck guess=read m062x/Def2TZVP nosymm scf=xqc opt=ReadFC fr
 eq=NoRaman
 ----------------------------------------------------------------------
 1/4=180224,10=3,18=20,19=15,26=3,29=7,38=1/1,3;
 2/4=180224,9=110,12=2,15=1,40=1/2;
 3/4=180224,5=44,7=101,11=2,14=-4,25=1,30=1,71=1,74=-55,116=-2/1,2,3;
 4/4=180224,5=1/1;
 5/4=180224,5=2,8=3,13=1,38=6/2,8;
 6/4=180224,7=2,8=2,9=2,10=2,28=1/1;
 7/4=180224,30=1/1,2,3,16;
 1/4=180224,18=20,19=15,26=3/3(2);
 2/4=180224,9=110,15=1/2;
 99/4=180224/99;
 2/4=180224,9=110,15=1/2;
 3/4=180224,5=44,7=101,11=2,14=-2,25=1,30=1,71=1,74=-55/1,2,3;
 4/4=180224,5=5,16=3,69=1/1;
 5/4=180224,5=2,8=3,13=1,38=5/2,8;
 7/4=180224,30=1/1,2,3,16;
 1/4=180224,18=20,19=15,26=3/3(-5);
 2/4=180224,9=110,15=1/2;
 6/4=180224,7=2,8=2,9=2,10=2,19=2,28=1/1;
 99/4=180224,9=1/99;
 Structure from the checkpoint file:  "/dev/shm/pet_mono_1_tzvp.chk"
 --------------------------
 narrow results from confab
 --------------------------
 Charge =  0 Multiplicity = 1
 Redundant internal coordinates found in file.  (old form).
 O,0,3.5712537406,6.8386079479,1.0444321458
 H,0,3.0581780618,6.669975304,1.8436662006
 C,0,-0.7065453737,2.4250595224,4.7318172754
 H,0,-1.0211097103,1.4823619201,5.1784101311
 C,0,0.0685537351,2.4430680326,3.5777154672
 H,0,0.3835953078,1.5205667481,3.0888064338
 O,0,1.5966254278,2.6063512358,1.2049059322
 C,0,2.4771584988,4.8775085939,0.1811945432
 H,0,1.9134346321,4.4546192676,-0.6635494316
 H,0,3.3766761827,4.2652977321,0.339812791
 C,0,2.8353246399,6.3299837603,-0.031807976
 H,0,3.4582885138,6.4153561507,-0.933225832
 H,0,1.9091543882,6.9080349717,-0.2107958527
 C,0,0.4597855581,3.6628591199,3.018484209
 C,0,1.2936728478,3.617007344,1.7770263216
 O,0,-2.1905916405,2.4522232031,7.0457520623
 C,0,-1.0919970722,3.6322688132,5.3238628166
 C,0,-1.9265428088,3.6757562914,6.5647455307
 O,0,1.6729497426,4.8335837237,1.3633537392
 C,0,0.0706695883,4.8697010875,3.6086653133
 H,0,0.374872256,5.8133409555,3.15728672
 C,0,-0.7063674306,4.8523570575,4.7613130453
 H,0,-1.0288650109,5.7751199626,5.2448155036
 O,0,-2.317010383,4.6897832338,7.07685021
 C,0,-2.1120061819,2.5021031744,9.4533586339
 H,0,-2.7357395974,2.4082914202,10.3540235957
 H,0,-1.6561878814,3.5091495471,9.4681080753
 C,0,-2.9966570803,2.379624657,8.2283056586
 H,0,-3.7611578477,3.1670765658,8.2022519488
 H,0,-3.464371176,1.3880348538,8.1946796481
 O,0,-1.1519657908,1.4828074807,9.4948661407
 H,0,-0.6570781357,1.5201203214,8.6678689993
 Recover connectivity data from disk.

 GradGradGradGradGradGradGradGradGradGradGradGradGradGradGradGradGradGrad
 Berny optimization.
 Initialization pass.
 Force constant matrix read from checkpoint file:
 "/dev/shm/pet_mono_1_tzvp.chk"
                           ----------------------------
                           !    Initial Parameters    !
                           ! (Angstroms and Degrees)  !
 --------------------------                            --------------------------
 ! Name  Definition              Value          Derivative Info.                !
 --------------------------------------------------------------------------------
 ! R1    R(1,2)                  0.9646         D2E/DX2 =    0.5539             !
 ! R2    R(1,11)                 1.3995         D2E/DX2 =    0.4378             !
 ! R3    R(3,4)                  1.0895         D2E/DX2 =    0.3608             !
 ! R4    R(3,5)                  1.3903         D2E/DX2 =    0.486              !
 ! R5    R(3,17)                 1.3987         D2E/DX2 =    0.4705             !
 ! R6    R(5,6)                  1.0905         D2E/DX2 =    0.3581             !
 ! R7    R(5,14)                 1.3977         D2E/DX2 =    0.4737             !
 ! R8    R(7,15)                 1.2002         D2E/DX2 =    1.0456             !
 ! R9    R(8,9)                  1.1001         D2E/DX2 =    0.3461             !
 ! R10   R(8,10)                 1.0996         D2E/DX2 =    0.3448             !
 ! R11   R(8,11)                 1.5111         D2E/DX2 =    0.3089             !
 ! R12   R(8,19)                 1.4304         D2E/DX2 =    0.4117             !
 ! R13   R(11,12)                1.0991         D2E/DX2 =    0.3473             !
 ! R14   R(11,13)                1.1063         D2E/DX2 =    0.3417             !
 ! R15   R(14,15)                1.4962         D2E/DX2 =    0.3331             !
 ! R16   R(14,20)                1.3986         D2E/DX2 =    0.4733             !
 ! R17   R(15,19)                1.3398         D2E/DX2 =    0.5713             !
 ! R18   R(16,18)                1.3409         D2E/DX2 =    0.5971             !
 ! R19   R(16,28)                1.433          D2E/DX2 =    0.4333             !
 ! R20   R(17,18)                1.496          D2E/DX2 =    0.3356             !
 ! R21   R(17,22)                1.3978         D2E/DX2 =    0.4756             !
 ! R22   R(18,24)                1.2012         D2E/DX2 =    1.0488             !
 ! R23   R(20,21)                1.0894         D2E/DX2 =    0.3581             !
 ! R24   R(20,22)                1.3902         D2E/DX2 =    0.4894             !
 ! R25   R(22,23)                1.0905         D2E/DX2 =    0.3574             !
 ! R26   R(25,26)                1.0996         D2E/DX2 =    0.3475             !
 ! R27   R(25,27)                1.1055         D2E/DX2 =    0.3436             !
 ! R28   R(25,28)                1.516          D2E/DX2 =    0.3184             !
 ! R29   R(25,31)                1.4008         D2E/DX2 =    0.4346             !
 ! R30   R(28,29)                1.0978         D2E/DX2 =    0.3489             !
 ! R31   R(28,30)                1.0969         D2E/DX2 =    0.3452             !
 ! R32   R(31,32)                0.9645         D2E/DX2 =    0.5526             !
 ! A1    A(2,1,11)             107.0942         D2E/DX2 =    0.1603             !
 ! A2    A(4,3,5)              120.8245         D2E/DX2 =    0.16               !
 ! A3    A(4,3,17)             119.5842         D2E/DX2 =    0.1601             !
 ! A4    A(5,3,17)             119.5908         D2E/DX2 =    0.25               !
 ! A5    A(3,5,6)              121.4821         D2E/DX2 =    0.16               !
 ! A6    A(3,5,14)             119.9642         D2E/DX2 =    0.25               !
 ! A7    A(6,5,14)             118.5537         D2E/DX2 =    0.16               !
 ! A8    A(9,8,10)             108.4174         D2E/DX2 =    0.1597             !
 ! A9    A(9,8,11)             112.5025         D2E/DX2 =    0.1596             !
 ! A10   A(9,8,19)             109.5543         D2E/DX2 =    0.1586             !
 ! A11   A(10,8,11)            111.1989         D2E/DX2 =    0.1591             !
 ! A12   A(10,8,19)            108.881          D2E/DX2 =    0.1595             !
 ! A13   A(11,8,19)            106.2166         D2E/DX2 =    0.2493             !
 ! A14   A(1,11,8)             111.4433         D2E/DX2 =    0.2503             !
 ! A15   A(1,11,12)            107.7243         D2E/DX2 =    0.1581             !
 ! A16   A(1,11,13)            112.0085         D2E/DX2 =    0.1601             !
 ! A17   A(8,11,12)            108.9431         D2E/DX2 =    0.1597             !
 ! A18   A(8,11,13)            109.0631         D2E/DX2 =    0.1589             !
 ! A19   A(12,11,13)           107.5318         D2E/DX2 =    0.1587             !
 ! A20   A(5,14,15)            117.4661         D2E/DX2 =    0.25               !
 ! A21   A(5,14,20)            120.4186         D2E/DX2 =    0.25               !
 ! A22   A(15,14,20)           122.1146         D2E/DX2 =    0.25               !
 ! A23   A(7,15,14)            124.194          D2E/DX2 =    0.25               !
 ! A24   A(7,15,19)            123.092          D2E/DX2 =    0.2501             !
 ! A25   A(14,15,19)           112.714          D2E/DX2 =    0.2502             !
 ! A26   A(18,16,28)           116.9371         D2E/DX2 =    0.3206             !
 ! A27   A(3,17,18)            121.9983         D2E/DX2 =    0.2536             !
 ! A28   A(3,17,22)            120.4629         D2E/DX2 =    0.2504             !
 ! A29   A(18,17,22)           117.5384         D2E/DX2 =    0.2524             !
 ! A30   A(16,18,17)           112.3863         D2E/DX2 =    0.267              !
 ! A31   A(16,18,24)           123.5945         D2E/DX2 =    0.2775             !
 ! A32   A(17,18,24)           124.0191         D2E/DX2 =    0.2666             !
 ! A33   A(8,19,15)            116.2446         D2E/DX2 =    0.25               !
 ! A34   A(14,20,21)           119.6635         D2E/DX2 =    0.16               !
 ! A35   A(14,20,22)           119.6432         D2E/DX2 =    0.25               !
 ! A36   A(21,20,22)           120.6924         D2E/DX2 =    0.16               !
 ! A37   A(17,22,20)           119.9193         D2E/DX2 =    0.2503             !
 ! A38   A(17,22,23)           118.5918         D2E/DX2 =    0.1601             !
 ! A39   A(20,22,23)           121.4889         D2E/DX2 =    0.1601             !
 ! A40   A(26,25,27)           107.4985         D2E/DX2 =    0.1593             !
 ! A41   A(26,25,28)           108.9045         D2E/DX2 =    0.1582             !
 ! A42   A(26,25,31)           107.6022         D2E/DX2 =    0.1579             !
 ! A43   A(27,25,28)           108.9641         D2E/DX2 =    0.16               !
 ! A44   A(27,25,31)           112.3249         D2E/DX2 =    0.161              !
 ! A45   A(28,25,31)           111.4118         D2E/DX2 =    0.2426             !
 ! A46   A(16,28,25)           109.5429         D2E/DX2 =    0.2581             !
 ! A47   A(16,28,29)           109.6208         D2E/DX2 =    0.167              !
 ! A48   A(16,28,30)           105.0913         D2E/DX2 =    0.1506             !
 ! A49   A(25,28,29)           111.5668         D2E/DX2 =    0.1532             !
 ! A50   A(25,28,30)           110.2811         D2E/DX2 =    0.1594             !
 ! A51   A(29,28,30)           110.5342         D2E/DX2 =    0.1536             !
 ! A52   A(25,31,32)           107.3432         D2E/DX2 =    0.1602             !
 ! D1    D(2,1,11,8)           -54.3619         D2E/DX2 =    0.015              !
 ! D2    D(2,1,11,12)         -173.8133         D2E/DX2 =    0.0149             !
 ! D3    D(2,1,11,13)           68.1337         D2E/DX2 =    0.0148             !
 ! D4    D(4,3,5,6)             -0.063          D2E/DX2 =    0.0229             !
 ! D5    D(4,3,5,14)           179.8709         D2E/DX2 =    0.023              !
 ! D6    D(17,3,5,6)          -179.795          D2E/DX2 =    0.023              !
 ! D7    D(17,3,5,14)            0.1389         D2E/DX2 =    0.0231             !
 ! D8    D(4,3,17,18)            0.1974         D2E/DX2 =    0.0217             !
 ! D9    D(4,3,17,22)         -179.5657         D2E/DX2 =    0.0219             !
 ! D10   D(5,3,17,18)          179.9328         D2E/DX2 =    0.0219             !
 ! D11   D(5,3,17,22)            0.1697         D2E/DX2 =    0.0219             !
 ! D12   D(3,5,14,15)          179.9655         D2E/DX2 =    0.0221             !
 ! D13   D(3,5,14,20)           -0.3337         D2E/DX2 =    0.0221             !
 ! D14   D(6,5,14,15)           -0.0986         D2E/DX2 =    0.0221             !
 ! D15   D(6,5,14,20)          179.6021         D2E/DX2 =    0.0221             !
 ! D16   D(9,8,11,1)          -178.9665         D2E/DX2 =    0.0058             !
 ! D17   D(9,8,11,12)          -60.2411         D2E/DX2 =    0.0066             !
 ! D18   D(9,8,11,13)           56.8601         D2E/DX2 =    0.0058             !
 ! D19   D(10,8,11,1)          -57.132          D2E/DX2 =    0.0057             !
 ! D20   D(10,8,11,12)          61.5934         D2E/DX2 =    0.0062             !
 ! D21   D(10,8,11,13)         178.6947         D2E/DX2 =    0.0057             !
 ! D22   D(19,8,11,1)           61.1803         D2E/DX2 =    0.0057             !
 ! D23   D(19,8,11,12)         179.9056         D2E/DX2 =    0.0058             !
 ! D24   D(19,8,11,13)         -62.9931         D2E/DX2 =    0.0057             !
 ! D25   D(9,8,19,15)           61.365          D2E/DX2 =    0.0131             !
 ! D26   D(10,8,19,15)         -57.0475         D2E/DX2 =    0.0131             !
 ! D27   D(11,8,19,15)        -176.8806         D2E/DX2 =    0.0133             !
 ! D28   D(5,14,15,7)            3.3019         D2E/DX2 =    0.0201             !
 ! D29   D(5,14,15,19)        -176.6923         D2E/DX2 =    0.0182             !
 ! D30   D(20,14,15,7)        -176.3934         D2E/DX2 =    0.0189             !
 ! D31   D(20,14,15,19)          3.6124         D2E/DX2 =    0.0194             !
 ! D32   D(5,14,20,21)        -179.4398         D2E/DX2 =    0.022              !
 ! D33   D(5,14,20,22)           0.2177         D2E/DX2 =    0.022              !
 ! D34   D(15,14,20,21)          0.2467         D2E/DX2 =    0.022              !
 ! D35   D(15,14,20,22)        179.9042         D2E/DX2 =    0.0221             !
 ! D36   D(7,15,19,8)           -0.1029         D2E/DX2 =    0.0298             !
 ! D37   D(14,15,19,8)         179.8913         D2E/DX2 =    0.0285             !
 ! D38   D(28,16,18,17)       -179.3966         D2E/DX2 =    0.0292             !
 ! D39   D(28,16,18,24)          0.6834         D2E/DX2 =    0.03               !
 ! D40   D(18,16,28,25)        -86.5677         D2E/DX2 =    0.0174             !
 ! D41   D(18,16,28,29)         36.1596         D2E/DX2 =    0.0172             !
 ! D42   D(18,16,28,30)        154.964          D2E/DX2 =    0.018              !
 ! D43   D(3,17,18,16)           2.7901         D2E/DX2 =    0.019              !
 ! D44   D(3,17,18,24)        -177.2902         D2E/DX2 =    0.0182             !
 ! D45   D(22,17,18,16)       -177.4401         D2E/DX2 =    0.0178             !
 ! D46   D(22,17,18,24)          2.4795         D2E/DX2 =    0.0196             !
 ! D47   D(3,17,22,20)          -0.2855         D2E/DX2 =    0.0221             !
 ! D48   D(3,17,22,23)         179.6419         D2E/DX2 =    0.022              !
 ! D49   D(18,17,22,20)        179.9411         D2E/DX2 =    0.0221             !
 ! D50   D(18,17,22,23)         -0.1315         D2E/DX2 =    0.022              !
 ! D51   D(14,20,22,17)          0.0909         D2E/DX2 =    0.0231             !
 ! D52   D(14,20,22,23)       -179.8344         D2E/DX2 =    0.0231             !
 ! D53   D(21,20,22,17)        179.7448         D2E/DX2 =    0.0231             !
 ! D54   D(21,20,22,23)         -0.1805         D2E/DX2 =    0.023              !
 ! D55   D(26,25,28,16)       -177.9539         D2E/DX2 =    0.0079             !
 ! D56   D(26,25,28,29)         60.4824         D2E/DX2 =    0.0064             !
 ! D57   D(26,25,28,30)        -62.7587         D2E/DX2 =    0.0069             !
 ! D58   D(27,25,28,16)         65.062          D2E/DX2 =    0.0069             !
 ! D59   D(27,25,28,29)        -56.5017         D2E/DX2 =    0.007              !
 ! D60   D(27,25,28,30)       -179.7428         D2E/DX2 =    0.0064             !
 ! D61   D(31,25,28,16)        -59.4226         D2E/DX2 =    0.0067             !
 ! D62   D(31,25,28,29)        179.0137         D2E/DX2 =    0.0067             !
 ! D63   D(31,25,28,30)         55.7726         D2E/DX2 =    0.0066             !
 ! D64   D(26,25,31,32)        175.1351         D2E/DX2 =    0.0139             !
 ! D65   D(27,25,31,32)        -66.7467         D2E/DX2 =    0.0131             !
 ! D66   D(28,25,31,32)         55.8265         D2E/DX2 =    0.0135             !
 --------------------------------------------------------------------------------
 Trust Radius=3.00D-01 FncErr=1.00D-07 GrdErr=1.00D-06 EigMax=2.50D+02 EigMin=1.00D-04
 Number of steps in this run=    160 maximum allowed number of steps=    192.
 GradGradGradGradGradGradGradGradGradGradGradGradGradGradGradGradGradGrad

                          Input orientation:                          
 ---------------------------------------------------------------------
 Center     Atomic      Atomic             Coordinates (Angstroms)
 Number     Number       Type             X           Y           Z
 ---------------------------------------------------------------------
      1          8           0        3.571254    6.838608    1.044432
      2          1           0        3.058178    6.669975    1.843666
      3          6           0       -0.706545    2.425060    4.731817
      4          1           0       -1.021110    1.482362    5.178410
      5          6           0        0.068554    2.443068    3.577715
      6          1           0        0.383595    1.520567    3.088806
      7          8           0        1.596625    2.606351    1.204906
      8          6           0        2.477158    4.877509    0.181195
      9          1           0        1.913435    4.454619   -0.663549
     10          1           0        3.376676    4.265298    0.339813
     11          6           0        2.835325    6.329984   -0.031808
     12          1           0        3.458289    6.415356   -0.933226
     13          1           0        1.909154    6.908035   -0.210796
     14          6           0        0.459786    3.662859    3.018484
     15          6           0        1.293673    3.617007    1.777026
     16          8           0       -2.190592    2.452223    7.045752
     17          6           0       -1.091997    3.632269    5.323863
     18          6           0       -1.926543    3.675756    6.564746
     19          8           0        1.672950    4.833584    1.363354
     20          6           0        0.070670    4.869701    3.608665
     21          1           0        0.374872    5.813341    3.157287
     22          6           0       -0.706367    4.852357    4.761313
     23          1           0       -1.028865    5.775120    5.244816
     24          8           0       -2.317010    4.689783    7.076850
     25          6           0       -2.112006    2.502103    9.453359
     26          1           0       -2.735740    2.408291   10.354024
     27          1           0       -1.656188    3.509150    9.468108
     28          6           0       -2.996657    2.379625    8.228306
     29          1           0       -3.761158    3.167077    8.202252
     30          1           0       -3.464371    1.388035    8.194680
     31          8           0       -1.151966    1.482807    9.494866
     32          1           0       -0.657078    1.520120    8.667869
 ---------------------------------------------------------------------
                    Distance matrix (angstroms):
                    1          2          3          4          5
     1  O    0.000000
     2  H    0.964603   0.000000
     3  C    7.167690   6.366621   0.000000
     4  H    8.177344   7.394081   1.089530   0.000000
     5  C    6.164998   5.459993   1.390343   2.161607   0.000000
     6  H    6.528568   5.934659   2.169331   2.518154   1.090547
     7  O    4.672998   4.365454   4.216227   4.889236   2.826993
     8  C    2.405854   2.512834   6.071132   6.981194   4.823301
     9  H    3.368823   3.536152   6.331934   7.181529   5.043635
    10  H    2.675121   2.854031   6.272868   7.106144   4.974757
    11  C    1.399494   1.919026   7.105308   8.094313   5.982624
    12  H    2.025595   2.817099   8.084616   9.041656   6.900577
    13  H    2.083985   2.365955   7.167174   8.189500   6.138123
    14  C    4.864514   4.144224   2.414122   3.407770   1.397745
    15  C    4.012827   3.526830   3.761968   4.635120   2.474173
    16  O    9.405056   8.508861   2.749077   2.407340   4.138973
    17  C    7.095072   6.209942   1.398730   2.155987   2.410416
    18  C    8.408523   7.490085   2.532244   2.748220   3.797668
    19  O    2.779459   2.349871   4.775933   5.748330   3.632086
    20  C    4.765079   3.909145   2.800322   3.889749   2.426831
    21  H    3.966381   3.107982   3.889609   4.979065   3.410180
    22  C    6.004868   5.097862   2.427477   3.410264   2.793936
    23  H    6.319440   5.391892   3.404403   4.293279   3.884086
    24  O    8.699378   7.758868   3.636173   3.946009   4.794016
    25  C   11.036972  10.099969   4.926886   4.528257   6.267496
    26  H   12.086123  11.142604   5.977216   5.530305   7.333732
    27  H   10.458000   9.505166   4.950709   4.786721   6.229606
    28  C   10.706448   9.789370   4.179965   3.742957   5.570236
    29  H   10.884796   9.960183   4.682431   4.414719   6.047910
    30  H   11.416427  10.525109   4.546695   3.882822   5.908554
    31  O   11.063600  10.157405   4.875743   4.318439   6.117552
    32  H   10.211850   9.321689   4.039043   3.508599   5.223795
                    6          7          8          9         10
     6  H    0.000000
     7  O    2.489870   0.000000
     8  C    4.909814   2.642249   0.000000
     9  H    5.002924   2.647185   1.100097   0.000000
    10  H    4.903983   2.582454   1.099588   1.784280   0.000000
    11  C    6.235359   4.114520   1.511072   2.183110   2.166585
    12  H    7.041977   4.748254   2.137644   2.510735   2.500008
    13  H    6.499194   4.539424   2.144603   2.494845   3.072597
    14  C    2.144800   2.386981   3.687191   4.036998   4.005804
    15  C    2.635161   1.200220   2.352909   2.653697   2.612425
    16  O    4.811636   6.962920   8.648240   8.960243   8.902322
    17  C    3.410592   5.024640   6.382518   6.749666   6.723877
    18  C    4.697205   6.502632   7.847708   8.221940   8.198871
    19  O    3.951671   2.234166   1.430448   2.076002   2.067189
    20  C    3.403656   3.637218   4.187936   4.671177   4.688324
    21  H    4.293329   3.948323   3.761983   4.337290   4.398343
    22  C    3.884086   4.795451   5.577899   6.037441   6.046945
    23  H    4.974399   5.766729   6.223999   6.731242   6.763683
    24  O    5.765561   7.357783   8.400557   8.824157   8.830964
    25  C    6.906444   9.044434  10.614896  11.062022  10.783840
    26  H    7.956236  10.124968  11.694349  12.132155  11.878321
    27  H    6.986463   8.926161  10.256887  10.783627  10.451184
    28  C    6.211162   8.395105  10.047790  10.367241  10.315205
    29  H    6.785079   8.830804  10.304345  10.604773  10.675800
    30  H    6.394869   8.715212  10.568545  10.807079  10.806364
    31  O    6.587638   8.805711  10.556468  11.019154  10.586116
    32  H    5.675292   7.871143   9.649826  10.114059   9.652134
                   11         12         13         14         15
    11  C    0.000000
    12  H    1.099057   0.000000
    13  H    1.106332   1.778891   0.000000
    14  C    4.696916   5.673030   4.802092   0.000000
    15  C    3.606773   4.456656   3.893728   1.496225   0.000000
    16  O    9.507298  10.548951   9.450908   4.970817   6.423106
    17  C    7.168314   8.222033   7.097183   2.779161   4.274541
    18  C    8.557735   9.629195   8.430193   4.274424   5.770225
    19  O    2.353042   3.311150   2.614783   2.362588   1.339789
    20  C    4.798832   5.873141   4.703522   1.398640   2.533748
    21  H    4.060920   5.157729   3.859580   2.156629   2.751944
    22  C    6.140112   7.226002   5.982360   2.410865   3.798976
    23  H    6.563733   7.662418   6.299139   3.410906   4.698637
    24  O    8.931396  10.024620   8.711538   5.023495   6.502001
    25  C   11.362092  12.418650  11.356842   7.026313   8.471584
    26  H   12.421028  13.484233  12.387015   8.099102   9.553117
    27  H   10.880220  11.949546  10.860261   6.789596   8.238085
    28  C   10.855728  11.911638  10.760665   6.382470   7.845830
    29  H   11.014414  12.088370  10.813260   6.703254   8.187629
    30  H   11.479727  12.510629  11.401631   6.882356   8.294189
    31  O   11.408379  12.422946  11.532711   7.020961   8.372635
    32  H   10.536415  11.536056  10.697937   6.144450   7.462310
                   16         17         18         19         20
    16  O    0.000000
    17  C    2.358881   0.000000
    18  C    1.340941   1.496044   0.000000
    19  O    7.272378   4.977321   6.430504   0.000000
    20  C    4.771904   2.413490   3.762017   2.758628   0.000000
    21  H    5.744465   3.406293   4.634280   2.421389   1.089375
    22  C    3.630733   1.397780   2.474992   4.148208   1.390210
    23  H    3.954064   2.145238   2.637303   4.822037   2.169273
    24  O    2.241344   2.385783   1.201236   6.970258   4.214462
    25  C    2.409405   4.401185   3.123451   9.230919   6.673083
    26  H    3.353174   5.431623   4.076751  10.302948   7.709366
    27  H    2.696384   4.184285   2.920679   8.861395   6.258291
    28  C    1.432985   3.692240   2.364854   8.657639   6.078655
    29  H    2.077302   3.952967   2.511174   8.892542   6.219555
    30  H    2.018674   4.348141   3.202385   9.215796   6.756481
    31  O    2.831373   4.692659   3.740936   9.237388   6.900235
    32  H    2.419038   3.979033   3.268247   8.352485   6.111043
                   21         22         23         24         25
    21  H    0.000000
    22  C    2.159970   0.000000
    23  H    2.515893   1.090537   0.000000
    24  O    4.885856   2.825299   2.488700   0.000000
    25  C    7.535873   5.432753   5.440374   3.236628   0.000000
    26  H    8.547707   6.431969   6.352398   4.015022   1.099564
    27  H    7.018616   4.986009   4.833669   2.747489   1.105500
    28  C    6.990912   4.835274   4.929788   2.669195   1.516035
    29  H    7.039967   4.900202   4.797264   2.381329   2.174203
    30  H    7.726477   5.603224   5.820645   3.669812   2.157385
    31  O    7.826217   5.827431   6.041691   4.181964   1.400844
    32  H    7.061387   5.134921   5.473622   3.915799   1.923044
                   26         27         28         29         30
    26  H    0.000000
    27  H    1.778248   0.000000
    28  C    2.141863   2.147043   0.000000
    29  H    2.501471   2.479981   1.097825   0.000000
    30  H    2.496917   3.064355   1.096876   1.803643   0.000000
    31  O    2.025589   2.088305   2.410673   3.363852   2.654559
    32  H    2.820071   2.365341   2.530927   3.544654   2.849956
                   31         32
    31  O    0.000000
    32  H    0.964484   0.000000
 Symmetry turned off by external request.
 Stoichiometry    C12H14O6
 Framework group  C1[X(C12H14O6)]
 Deg. of freedom    90
 Full point group                 C1      NOp   1
 Rotational constants (GHZ):           1.1610387           0.1361636           0.1293941
 Standard basis: def2TZVP (5D, 7F)
   642 basis functions,  1030 primitive gaussians,   732 cartesian basis functions
    67 alpha electrons       67 beta electrons
       nuclear repulsion energy      1265.6562310553 Hartrees.
 NAtoms=   32 NActive=   32 NUniq=   32 SFac= 1.00D+00 NAtFMM=   60 NAOKFM=F Big=F
 Integral buffers will be    131072 words long.
 Raffenetti 2 integral format.
 Two-electron integral symmetry is turned off.
 One-electron integrals computed using PRISM.
   1 Symmetry operations used in ECPInt.
 ECPInt:  NShTT=   32385 NPrTT=   99228 LenC2=   26149 LenP2D=   57458.
 LDataN:  DoStor=T MaxTD1= 6 Len=  172
 NBasis=   642 RedAO= T EigKep=  7.44D-06  NBF=   642
 NBsUse=   642 1.00D-06 EigRej= -1.00D+00 NBFU=   642
 Initial guess from the checkpoint file:  "/dev/shm/pet_mono_1_tzvp.chk"
 B after Tr=     0.000000    0.000000    0.000000
         Rot=    1.000000    0.000000    0.000000    0.000000 Ang=   0.00 deg.
 Requested convergence on RMS density matrix=1.00D-08 within  32 cycles.
 Requested convergence on MAX density matrix=1.00D-06.
 Requested convergence on             energy=1.00D-06.
 No special actions if energy rises.
 SCF Done:  E(RM062X) =  -917.068230960     A.U. after   11 cycles
            NFock= 11  Conv=0.91D-08     -V/T= 2.0047
 QCSCF skips out because SCF is already converged.

 **********************************************************************

            Population analysis using the SCF Density.

 **********************************************************************

 Alpha  occ. eigenvalues --  -19.69158 -19.69076 -19.63466 -19.63263 -19.63244
 Alpha  occ. eigenvalues --  -19.63159 -10.69207 -10.69064 -10.60747 -10.60629
 Alpha  occ. eigenvalues --  -10.59881 -10.59451 -10.58334 -10.58309 -10.57476
 Alpha  occ. eigenvalues --  -10.57402 -10.57214 -10.57162  -1.25935  -1.25838
 Alpha  occ. eigenvalues --   -1.17003  -1.16825  -1.15476  -1.15412  -0.99567
 Alpha  occ. eigenvalues --   -0.91293  -0.88001  -0.87317  -0.85844  -0.78588
 Alpha  occ. eigenvalues --   -0.75519  -0.73133  -0.70979  -0.67549  -0.65836
 Alpha  occ. eigenvalues --   -0.64705  -0.62819  -0.61365  -0.60497  -0.59232
 Alpha  occ. eigenvalues --   -0.58057  -0.57619  -0.56385  -0.54582  -0.53732
 Alpha  occ. eigenvalues --   -0.53660  -0.51990  -0.51879  -0.51537  -0.51239
 Alpha  occ. eigenvalues --   -0.49578  -0.48248  -0.47035  -0.45494  -0.45389
 Alpha  occ. eigenvalues --   -0.44150  -0.42657  -0.42242  -0.41808  -0.40234
 Alpha  occ. eigenvalues --   -0.39624  -0.37941  -0.37587  -0.36515  -0.35552
 Alpha  occ. eigenvalues --   -0.33889  -0.33574
 Alpha virt. eigenvalues --   -0.05611  -0.00477   0.03798   0.04937   0.05753
 Alpha virt. eigenvalues --    0.07899   0.08730   0.09438   0.10081   0.10564
 Alpha virt. eigenvalues --    0.10599   0.11593   0.12358   0.12597   0.13674
 Alpha virt. eigenvalues --    0.13755   0.13931   0.14503   0.15031   0.15471
 Alpha virt. eigenvalues --    0.16129   0.16731   0.17128   0.18567   0.19358
 Alpha virt. eigenvalues --    0.20064   0.20505   0.21964   0.22556   0.22872
 Alpha virt. eigenvalues --    0.24191   0.24718   0.24854   0.25536   0.25826
 Alpha virt. eigenvalues --    0.26652   0.27189   0.27874   0.28667   0.28993
 Alpha virt. eigenvalues --    0.29692   0.29999   0.30740   0.32266   0.32879
 Alpha virt. eigenvalues --    0.33905   0.34314   0.34801   0.35676   0.36019
 Alpha virt. eigenvalues --    0.36994   0.37486   0.37926   0.38197   0.38695
 Alpha virt. eigenvalues --    0.38779   0.39276   0.39678   0.39979   0.40436
 Alpha virt. eigenvalues --    0.40536   0.41237   0.42100   0.42768   0.43359
 Alpha virt. eigenvalues --    0.43507   0.43809   0.44152   0.44723   0.45335
 Alpha virt. eigenvalues --    0.45846   0.46274   0.46972   0.47398   0.48098
 Alpha virt. eigenvalues --    0.48310   0.48947   0.49877   0.50156   0.50594
 Alpha virt. eigenvalues --    0.51952   0.52637   0.53221   0.53323   0.54629
 Alpha virt. eigenvalues --    0.55352   0.55883   0.56848   0.57265   0.58296
 Alpha virt. eigenvalues --    0.58657   0.59533   0.60831   0.61194   0.62069
 Alpha virt. eigenvalues --    0.62778   0.63380   0.64916   0.65825   0.66384
 Alpha virt. eigenvalues --    0.67032   0.67712   0.68011   0.68515   0.69158
 Alpha virt. eigenvalues --    0.69778   0.71417   0.72248   0.72458   0.73112
 Alpha virt. eigenvalues --    0.73746   0.74876   0.75568   0.76813   0.77568
 Alpha virt. eigenvalues --    0.77765   0.78310   0.79042   0.79855   0.81177
 Alpha virt. eigenvalues --    0.81741   0.83314   0.83527   0.84484   0.86308
 Alpha virt. eigenvalues --    0.86610   0.87681   0.88547   0.89230   0.89675
 Alpha virt. eigenvalues --    0.90734   0.91463   0.91928   0.92357   0.92425
 Alpha virt. eigenvalues --    0.93229   0.94018   0.95413   0.95876   0.97009
 Alpha virt. eigenvalues --    0.97479   0.99572   1.00472   1.01925   1.02764
 Alpha virt. eigenvalues --    1.03264   1.05341   1.06739   1.08158   1.08679
 Alpha virt. eigenvalues --    1.10628   1.11660   1.12844   1.13738   1.14960
 Alpha virt. eigenvalues --    1.15101   1.17090   1.17583   1.18947   1.19998
 Alpha virt. eigenvalues --    1.21778   1.22747   1.23382   1.24564   1.25073
 Alpha virt. eigenvalues --    1.26026   1.27676   1.30999   1.31428   1.31539
 Alpha virt. eigenvalues --    1.31854   1.33840   1.34224   1.37560   1.38372
 Alpha virt. eigenvalues --    1.39548   1.41575   1.42341   1.42656   1.44161
 Alpha virt. eigenvalues --    1.45000   1.48685   1.49916   1.50138   1.51354
 Alpha virt. eigenvalues --    1.51455   1.51987   1.52399   1.53119   1.53779
 Alpha virt. eigenvalues --    1.54543   1.55334   1.56841   1.57201   1.57573
 Alpha virt. eigenvalues --    1.58800   1.59110   1.60008   1.60918   1.61744
 Alpha virt. eigenvalues --    1.62432   1.62823   1.63631   1.64006   1.65207
 Alpha virt. eigenvalues --    1.65527   1.66229   1.67708   1.71018   1.71238
 Alpha virt. eigenvalues --    1.72367   1.72937   1.74063   1.74422   1.75096
 Alpha virt. eigenvalues --    1.75842   1.76876   1.79357   1.80025   1.82325
 Alpha virt. eigenvalues --    1.83561   1.84317   1.84812   1.85707   1.85933
 Alpha virt. eigenvalues --    1.86880   1.88505   1.88758   1.91054   1.91558
 Alpha virt. eigenvalues --    1.92248   1.92557   1.93520   1.93980   1.96407
 Alpha virt. eigenvalues --    1.97239   1.99413   2.00433   2.00813   2.02444
 Alpha virt. eigenvalues --    2.03145   2.03932   2.05391   2.06255   2.06741
 Alpha virt. eigenvalues --    2.07349   2.08365   2.10105   2.11072   2.12652
 Alpha virt. eigenvalues --    2.13629   2.14747   2.16319   2.16937   2.18288
 Alpha virt. eigenvalues --    2.20730   2.21386   2.22791   2.23499   2.25903
 Alpha virt. eigenvalues --    2.26666   2.28041   2.29304   2.29635   2.31066
 Alpha virt. eigenvalues --    2.31514   2.32056   2.33219   2.33476   2.34459
 Alpha virt. eigenvalues --    2.36016   2.36550   2.37211   2.38758   2.39157
 Alpha virt. eigenvalues --    2.39624   2.41638   2.43357   2.43772   2.44729
 Alpha virt. eigenvalues --    2.45380   2.46635   2.48009   2.49168   2.49317
 Alpha virt. eigenvalues --    2.50727   2.52023   2.52496   2.53245   2.53964
 Alpha virt. eigenvalues --    2.55846   2.57592   2.57868   2.58733   2.59460
 Alpha virt. eigenvalues --    2.60573   2.60864   2.62633   2.63125   2.65156
 Alpha virt. eigenvalues --    2.65403   2.65940   2.67371   2.67894   2.69242
 Alpha virt. eigenvalues --    2.69857   2.70715   2.71574   2.72134   2.72288
 Alpha virt. eigenvalues --    2.73039   2.74409   2.76829   2.77645   2.78749
 Alpha virt. eigenvalues --    2.80788   2.80950   2.82271   2.82542   2.83703
 Alpha virt. eigenvalues --    2.83876   2.84527   2.85165   2.86170   2.87396
 Alpha virt. eigenvalues --    2.87775   2.89471   2.90301   2.90656   2.90820
 Alpha virt. eigenvalues --    2.93310   2.93821   2.94431   2.95560   2.96403
 Alpha virt. eigenvalues --    2.97262   2.98354   2.99053   2.99728   3.01291
 Alpha virt. eigenvalues --    3.02714   3.03186   3.05006   3.05636   3.06645
 Alpha virt. eigenvalues --    3.07324   3.07754   3.09216   3.09989   3.10787
 Alpha virt. eigenvalues --    3.12092   3.12377   3.13063   3.14376   3.14643
 Alpha virt. eigenvalues --    3.14900   3.16390   3.16784   3.18250   3.18912
 Alpha virt. eigenvalues --    3.19595   3.20051   3.21389   3.21559   3.22212
 Alpha virt. eigenvalues --    3.23577   3.23960   3.24494   3.25369   3.26296
 Alpha virt. eigenvalues --    3.27325   3.28238   3.28851   3.29416   3.31179
 Alpha virt. eigenvalues --    3.31892   3.32440   3.33157   3.33879   3.35839
 Alpha virt. eigenvalues --    3.36399   3.36762   3.37093   3.37992   3.38799
 Alpha virt. eigenvalues --    3.39671   3.39855   3.40566   3.41287   3.42422
 Alpha virt. eigenvalues --    3.43415   3.43729   3.44889   3.46044   3.46801
 Alpha virt. eigenvalues --    3.47630   3.48397   3.49224   3.50600   3.52047
 Alpha virt. eigenvalues --    3.52675   3.53305   3.55206   3.55983   3.56262
 Alpha virt. eigenvalues --    3.57249   3.57638   3.61216   3.62386   3.63878
 Alpha virt. eigenvalues --    3.64044   3.65754   3.68671   3.70780   3.75043
 Alpha virt. eigenvalues --    3.76410   3.77638   3.78703   3.81433   3.81936
 Alpha virt. eigenvalues --    3.83385   3.84822   3.87285   3.87808   3.88852
 Alpha virt. eigenvalues --    3.90421   3.91394   3.92595   3.93809   3.95893
 Alpha virt. eigenvalues --    3.97879   3.98905   4.01618   4.02677   4.04134
 Alpha virt. eigenvalues --    4.05252   4.06093   4.08657   4.12383   4.13183
 Alpha virt. eigenvalues --    4.13794   4.16793   4.17637   4.18251   4.18453
 Alpha virt. eigenvalues --    4.22650   4.23260   4.23690   4.25413   4.27851
 Alpha virt. eigenvalues --    4.29417   4.31351   4.31390   4.36070   4.37859
 Alpha virt. eigenvalues --    4.42833   4.43536   4.45683   4.46470   4.49289
 Alpha virt. eigenvalues --    4.51684   4.54654   4.57373   4.58564   4.60554
 Alpha virt. eigenvalues --    4.60966   4.62329   4.65046   4.69063   4.71174
 Alpha virt. eigenvalues --    4.73853   4.76512   4.79206   4.86403   4.87522
 Alpha virt. eigenvalues --    4.89758   4.95252   4.96222   5.06547   5.11765
 Alpha virt. eigenvalues --    5.17227   5.17316   5.19074   5.24160   5.27179
 Alpha virt. eigenvalues --    5.27702   5.27967   5.28541   5.30795   5.31281
 Alpha virt. eigenvalues --    5.35456   5.36703   5.36875   5.42859   5.46801
 Alpha virt. eigenvalues --    5.46928   5.47477   5.49671   5.50158   5.50804
 Alpha virt. eigenvalues --    5.56599   5.65961   5.66661   5.67665   5.68787
 Alpha virt. eigenvalues --    5.72731   5.75099   5.77658   5.78736   5.87425
 Alpha virt. eigenvalues --    5.88771   5.91130   5.91989   5.96857   5.98258
 Alpha virt. eigenvalues --    6.11892   6.13458   6.17403   6.17731   6.22239
 Alpha virt. eigenvalues --    6.25238   6.25702   6.26857   6.34628   6.35674
 Alpha virt. eigenvalues --    6.41234   6.41436   6.44845   6.45291   6.53966
 Alpha virt. eigenvalues --    6.56615   6.62104   6.64137   6.67755   6.69281
 Alpha virt. eigenvalues --    6.70315   6.72876   6.73853   6.76584   6.77583
 Alpha virt. eigenvalues --    6.77729   6.87982   6.90632   6.91274   6.92456
 Alpha virt. eigenvalues --    6.94447   6.94480   7.04626   7.06538   7.11663
 Alpha virt. eigenvalues --    7.12546   7.12846   7.14433   7.30565   7.34058
 Alpha virt. eigenvalues --    7.41442   7.43631  22.30278  22.50334  22.52600
 Alpha virt. eigenvalues --   22.58585  22.59802  22.76290  22.79541  22.81846
 Alpha virt. eigenvalues --   22.96247  23.33875  23.50474  23.62425  43.92127
 Alpha virt. eigenvalues --   43.95491  44.06594  44.09336  44.36824  44.43926
          Condensed to atoms (all electrons):
               1          2          3          4          5          6
     1  O    8.024470   0.304275   0.000001  -0.000000   0.000010  -0.000000
     2  H    0.304275   0.413153  -0.000000   0.000000  -0.000027  -0.000001
     3  C    0.000001  -0.000000   5.053604   0.405195   0.463249  -0.031973
     4  H   -0.000000   0.000000   0.405195   0.465251  -0.032095  -0.002542
     5  C    0.000010  -0.000027   0.463249  -0.032095   5.043388   0.399003
     6  H   -0.000000  -0.000001  -0.031973  -0.002542   0.399003   0.454930
     7  O   -0.000025  -0.000025   0.004557  -0.000040   0.025272   0.014610
     8  C   -0.020016  -0.016915   0.000101  -0.000001  -0.000483  -0.000137
     9  H    0.005991   0.000623   0.000021   0.000000  -0.000154  -0.000027
    10  H   -0.002203  -0.002172  -0.000009  -0.000000  -0.000085  -0.000005
    11  C    0.233498  -0.037937  -0.000026   0.000000  -0.000014   0.000001
    12  H   -0.033710   0.009493   0.000000  -0.000000  -0.000006  -0.000000
    13  H   -0.049582  -0.006204   0.000002  -0.000000   0.000002  -0.000001
    14  C   -0.001623  -0.000796  -0.040845   0.004370   0.441473  -0.017384
    15  C    0.000775   0.001552   0.011675  -0.000203  -0.063862  -0.013827
    16  O    0.000000   0.000000   0.028924   0.013198   0.000311  -0.000051
    17  C    0.000000   0.000009   0.421494  -0.023540  -0.042683   0.005067
    18  C   -0.000000   0.000000  -0.044963  -0.011449   0.007800  -0.000074
    19  O   -0.002016   0.011933   0.000189   0.000003   0.007488   0.000773
    20  C   -0.000120   0.000324  -0.049898  -0.000691  -0.059337   0.008692
    21  H    0.000787   0.001510  -0.000270   0.000060   0.004839  -0.000110
    22  C    0.000014   0.000026  -0.065440   0.004858  -0.029404  -0.001871
    23  H   -0.000001  -0.000006   0.007170  -0.000167  -0.001385   0.000040
    24  O   -0.000000   0.000000   0.006069   0.000273   0.000029   0.000004
    25  C   -0.000000  -0.000000  -0.000077  -0.000418   0.000031   0.000001
    26  H    0.000000  -0.000000  -0.000012  -0.000008  -0.000000   0.000000
    27  H   -0.000000  -0.000000   0.000024   0.000083  -0.000011  -0.000000
    28  C   -0.000000   0.000000  -0.000456   0.000621  -0.000215  -0.000005
    29  H    0.000000  -0.000000   0.000802   0.000203   0.000005  -0.000001
    30  H   -0.000000  -0.000000  -0.000872  -0.000172  -0.000041   0.000000
    31  O   -0.000000   0.000000   0.000179   0.000173   0.000000  -0.000000
    32  H    0.000000  -0.000000   0.000371   0.000028  -0.000015  -0.000001
               7          8          9         10         11         12
     1  O   -0.000025  -0.020016   0.005991  -0.002203   0.233498  -0.033710
     2  H   -0.000025  -0.016915   0.000623  -0.002172  -0.037937   0.009493
     3  C    0.004557   0.000101   0.000021  -0.000009  -0.000026   0.000000
     4  H   -0.000040  -0.000001   0.000000  -0.000000   0.000000  -0.000000
     5  C    0.025272  -0.000483  -0.000154  -0.000085  -0.000014  -0.000006
     6  H    0.014610  -0.000137  -0.000027  -0.000005   0.000001  -0.000000
     7  O    7.828247  -0.001098   0.003457   0.004760   0.003769   0.000061
     8  C   -0.001098   5.042158   0.417968   0.420989   0.296235  -0.045827
     9  H    0.003457   0.417968   0.541532  -0.033656  -0.042840  -0.000880
    10  H    0.004760   0.420989  -0.033656   0.519072  -0.023228  -0.004631
    11  C    0.003769   0.296235  -0.042840  -0.023228   4.829163   0.410254
    12  H    0.000061  -0.045827  -0.000880  -0.004631   0.410254   0.566337
    13  H   -0.000044  -0.057267  -0.000120   0.007943   0.425737  -0.039405
    14  C   -0.141788  -0.002824  -0.002536  -0.004070   0.005147   0.000048
    15  C    0.664533  -0.038716  -0.002541  -0.009807   0.000552   0.001111
    16  O    0.000000  -0.000000  -0.000000  -0.000000  -0.000000   0.000000
    17  C   -0.000220  -0.000130  -0.000010  -0.000003   0.000017   0.000000
    18  C   -0.000015  -0.000001  -0.000000  -0.000000   0.000000   0.000000
    19  O   -0.082352   0.165939  -0.034298  -0.037854  -0.040680   0.004842
    20  C    0.006362  -0.004535   0.000081   0.000517  -0.000986   0.000036
    21  H    0.000181  -0.003044  -0.000231   0.000052   0.000550   0.000099
    22  C   -0.000085   0.000319   0.000051   0.000034  -0.000099   0.000001
    23  H    0.000004   0.000013   0.000000  -0.000000  -0.000003  -0.000000
    24  O    0.000000   0.000000   0.000000   0.000000  -0.000000   0.000000
    25  C    0.000000   0.000000  -0.000000   0.000000   0.000000  -0.000000
    26  H    0.000000  -0.000000  -0.000000   0.000000   0.000000   0.000000
    27  H   -0.000000   0.000000  -0.000000  -0.000000   0.000000  -0.000000
    28  C    0.000000  -0.000000  -0.000000  -0.000000   0.000000   0.000000
    29  H    0.000000   0.000000   0.000000  -0.000000  -0.000000  -0.000000
    30  H   -0.000000   0.000000  -0.000000  -0.000000   0.000000  -0.000000
    31  O   -0.000000  -0.000000   0.000000  -0.000000  -0.000000   0.000000
    32  H    0.000000  -0.000000  -0.000000   0.000000   0.000000   0.000000
              13         14         15         16         17         18
     1  O   -0.049582  -0.001623   0.000775   0.000000   0.000000  -0.000000
     2  H   -0.006204  -0.000796   0.001552   0.000000   0.000009   0.000000
     3  C    0.000002  -0.040845   0.011675   0.028924   0.421494  -0.044963
     4  H   -0.000000   0.004370  -0.000203   0.013198  -0.023540  -0.011449
     5  C    0.000002   0.441473  -0.063862   0.000311  -0.042683   0.007800
     6  H   -0.000001  -0.017384  -0.013827  -0.000051   0.005067  -0.000074
     7  O   -0.000044  -0.141788   0.664533   0.000000  -0.000220  -0.000015
     8  C   -0.057267  -0.002824  -0.038716  -0.000000  -0.000130  -0.000001
     9  H   -0.000120  -0.002536  -0.002541  -0.000000  -0.000010  -0.000000
    10  H    0.007943  -0.004070  -0.009807  -0.000000  -0.000003  -0.000000
    11  C    0.425737   0.005147   0.000552  -0.000000   0.000017   0.000000
    12  H   -0.039405   0.000048   0.001111   0.000000   0.000000   0.000000
    13  H    0.599189  -0.001884  -0.001787  -0.000000  -0.000008  -0.000000
    14  C   -0.001884   5.286674   0.270285   0.000134  -0.062638  -0.004456
    15  C   -0.001787   0.270285   4.560887  -0.000010  -0.008272  -0.001090
    16  O   -0.000000   0.000134  -0.000010   8.048969  -0.159367   0.364628
    17  C   -0.000008  -0.062638  -0.008272  -0.159367   5.330336   0.228007
    18  C   -0.000000  -0.004456  -0.001090   0.364628   0.228007   4.583496
    19  O   -0.002335  -0.125329   0.371472   0.000000   0.000086  -0.000003
    20  C    0.000473   0.406944  -0.095670   0.000018  -0.023573   0.011575
    21  H   -0.001160  -0.032560  -0.017657   0.000005   0.006128  -0.000180
    22  C    0.000052  -0.024317   0.019917   0.006093   0.440525  -0.064687
    23  H    0.000002   0.005494   0.000198   0.000670  -0.015992  -0.013163
    24  O    0.000000  -0.000221  -0.000017  -0.081910  -0.146883   0.654868
    25  C    0.000000  -0.000010   0.000000  -0.029117  -0.001818   0.008585
    26  H    0.000000  -0.000000  -0.000000   0.005160  -0.000154   0.001436
    27  H   -0.000000   0.000010   0.000000  -0.005649   0.005444  -0.001846
    28  C   -0.000000   0.000059   0.000000   0.162127   0.011050  -0.065177
    29  H    0.000000   0.000004  -0.000000  -0.028249  -0.000625  -0.009897
    30  H   -0.000000   0.000004   0.000000  -0.034486   0.004595   0.001601
    31  O   -0.000000  -0.000000  -0.000000  -0.004368  -0.001671   0.003235
    32  H    0.000000  -0.000002   0.000000   0.012302  -0.000971   0.003782
              19         20         21         22         23         24
     1  O   -0.002016  -0.000120   0.000787   0.000014  -0.000001  -0.000000
     2  H    0.011933   0.000324   0.001510   0.000026  -0.000006   0.000000
     3  C    0.000189  -0.049898  -0.000270  -0.065440   0.007170   0.006069
     4  H    0.000003  -0.000691   0.000060   0.004858  -0.000167   0.000273
     5  C    0.007488  -0.059337   0.004839  -0.029404  -0.001385   0.000029
     6  H    0.000773   0.008692  -0.000110  -0.001871   0.000040   0.000004
     7  O   -0.082352   0.006362   0.000181  -0.000085   0.000004   0.000000
     8  C    0.165939  -0.004535  -0.003044   0.000319   0.000013   0.000000
     9  H   -0.034298   0.000081  -0.000231   0.000051   0.000000   0.000000
    10  H   -0.037854   0.000517   0.000052   0.000034  -0.000000   0.000000
    11  C   -0.040680  -0.000986   0.000550  -0.000099  -0.000003  -0.000000
    12  H    0.004842   0.000036   0.000099   0.000001  -0.000000   0.000000
    13  H   -0.002335   0.000473  -0.001160   0.000052   0.000002   0.000000
    14  C   -0.125329   0.406944  -0.032560  -0.024317   0.005494  -0.000221
    15  C    0.371472  -0.095670  -0.017657   0.019917   0.000198  -0.000017
    16  O    0.000000   0.000018   0.000005   0.006093   0.000670  -0.081910
    17  C    0.000086  -0.023573   0.006128   0.440525  -0.015992  -0.146883
    18  C   -0.000003   0.011575  -0.000180  -0.064687  -0.013163   0.654868
    19  O    8.033509   0.022864   0.010533   0.000405  -0.000021   0.000000
    20  C    0.022864   5.116355   0.412526   0.433698  -0.031924   0.004083
    21  H    0.010533   0.412526   0.489064  -0.033374  -0.003114  -0.000049
    22  C    0.000405   0.433698  -0.033374   5.060990   0.398457   0.026628
    23  H   -0.000021  -0.031924  -0.003114   0.398457   0.455183   0.014113
    24  O    0.000000   0.004083  -0.000049   0.026628   0.014113   7.848146
    25  C    0.000000   0.000043   0.000000   0.000404   0.000032  -0.015125
    26  H    0.000000   0.000001  -0.000000   0.000001  -0.000001   0.000313
    27  H   -0.000000  -0.000036   0.000000  -0.000122   0.000037   0.003663
    28  C    0.000000  -0.000184  -0.000000  -0.001735  -0.000103   0.015013
    29  H   -0.000000  -0.000011  -0.000000  -0.000368  -0.000007   0.004369
    30  H   -0.000000  -0.000007   0.000000   0.000060   0.000002   0.000989
    31  O    0.000000   0.000003  -0.000000   0.000007  -0.000001   0.000158
    32  H   -0.000000   0.000006   0.000000  -0.000054  -0.000004  -0.000147
              25         26         27         28         29         30
     1  O   -0.000000   0.000000  -0.000000  -0.000000   0.000000  -0.000000
     2  H   -0.000000  -0.000000  -0.000000   0.000000  -0.000000  -0.000000
     3  C   -0.000077  -0.000012   0.000024  -0.000456   0.000802  -0.000872
     4  H   -0.000418  -0.000008   0.000083   0.000621   0.000203  -0.000172
     5  C    0.000031  -0.000000  -0.000011  -0.000215   0.000005  -0.000041
     6  H    0.000001   0.000000  -0.000000  -0.000005  -0.000001   0.000000
     7  O    0.000000   0.000000  -0.000000   0.000000   0.000000  -0.000000
     8  C    0.000000  -0.000000   0.000000  -0.000000   0.000000   0.000000
     9  H   -0.000000  -0.000000  -0.000000  -0.000000   0.000000  -0.000000
    10  H    0.000000   0.000000  -0.000000  -0.000000  -0.000000  -0.000000
    11  C    0.000000   0.000000   0.000000   0.000000  -0.000000   0.000000
    12  H   -0.000000   0.000000  -0.000000   0.000000  -0.000000  -0.000000
    13  H    0.000000   0.000000  -0.000000  -0.000000   0.000000  -0.000000
    14  C   -0.000010  -0.000000   0.000010   0.000059   0.000004   0.000004
    15  C    0.000000  -0.000000   0.000000   0.000000  -0.000000   0.000000
    16  O   -0.029117   0.005160  -0.005649   0.162127  -0.028249  -0.034486
    17  C   -0.001818  -0.000154   0.005444   0.011050  -0.000625   0.004595
    18  C    0.008585   0.001436  -0.001846  -0.065177  -0.009897   0.001601
    19  O    0.000000   0.000000  -0.000000   0.000000  -0.000000  -0.000000
    20  C    0.000043   0.000001  -0.000036  -0.000184  -0.000011  -0.000007
    21  H    0.000000  -0.000000   0.000000  -0.000000  -0.000000   0.000000
    22  C    0.000404   0.000001  -0.000122  -0.001735  -0.000368   0.000060
    23  H    0.000032  -0.000001   0.000037  -0.000103  -0.000007   0.000002
    24  O   -0.015125   0.000313   0.003663   0.015013   0.004369   0.000989
    25  C    4.944641   0.409215   0.413695   0.285698  -0.063655  -0.030112
    26  H    0.409215   0.561480  -0.033892  -0.051038   0.002929  -0.005833
    27  H    0.413695  -0.033892   0.550582  -0.043262   0.002662   0.005804
    28  C    0.285698  -0.051038  -0.043262   5.034541   0.426261   0.405255
    29  H   -0.063655   0.002929   0.002662   0.426261   0.519751  -0.021413
    30  H   -0.030112  -0.005833   0.005804   0.405255  -0.021413   0.522116
    31  O    0.212396  -0.033149  -0.046676  -0.012815   0.006115  -0.001225
    32  H   -0.041397   0.010168  -0.006054  -0.016812   0.000801  -0.001344
              31         32
     1  O   -0.000000   0.000000
     2  H    0.000000  -0.000000
     3  C    0.000179   0.000371
     4  H    0.000173   0.000028
     5  C    0.000000  -0.000015
     6  H   -0.000000  -0.000001
     7  O   -0.000000   0.000000
     8  C   -0.000000  -0.000000
     9  H    0.000000  -0.000000
    10  H   -0.000000   0.000000
    11  C   -0.000000   0.000000
    12  H    0.000000   0.000000
    13  H   -0.000000   0.000000
    14  C   -0.000000  -0.000002
    15  C   -0.000000   0.000000
    16  O   -0.004368   0.012302
    17  C   -0.001671  -0.000971
    18  C    0.003235   0.003782
    19  O    0.000000  -0.000000
    20  C    0.000003   0.000006
    21  H   -0.000000   0.000000
    22  C    0.000007  -0.000054
    23  H   -0.000001  -0.000004
    24  O    0.000158  -0.000147
    25  C    0.212396  -0.041397
    26  H   -0.033149   0.010168
    27  H   -0.046676  -0.006054
    28  C   -0.012815  -0.016812
    29  H    0.006115   0.000801
    30  H   -0.001225  -0.001344
    31  O    8.035493   0.302025
    32  H    0.302025   0.418519
 Mulliken charges:
               1
     1  O   -0.460526
     2  H    0.321184
     3  C   -0.168786
     4  H    0.177009
     5  C   -0.163082
     6  H    0.184887
     7  O   -0.330124
     8  C   -0.152728
     9  H    0.147569
    10  H    0.164356
    11  C   -0.059113
    12  H    0.132177
    13  H    0.126396
    14  C    0.042637
    15  C    0.350501
    16  O   -0.299330
    17  C    0.035801
    18  C    0.347990
    19  O   -0.305149
    20  C   -0.157632
    21  H    0.165416
    22  C   -0.170985
    23  H    0.184478
    24  O   -0.334365
    25  C   -0.093010
    26  H    0.133384
    27  H    0.155542
    28  C   -0.148822
    29  H    0.160324
    30  H    0.155078
    31  O   -0.459877
    32  H    0.318799
 Sum of Mulliken charges =  -0.00000
 Mulliken charges with hydrogens summed into heavy atoms:
               1
     1  O   -0.139342
     3  C    0.008223
     5  C    0.021805
     7  O   -0.330124
     8  C    0.159198
    11  C    0.199460
    14  C    0.042637
    15  C    0.350501
    16  O   -0.299330
    17  C    0.035801
    18  C    0.347990
    19  O   -0.305149
    20  C    0.007784
    22  C    0.013493
    24  O   -0.334365
    25  C    0.195916
    28  C    0.166580
    31  O   -0.141078
 Electronic spatial extent (au):  <R**2>=          24171.0676
 Charge=             -0.0000 electrons
 Dipole moment (field-independent basis, Debye):
    X=             -1.5669    Y=              0.2534    Z=             -1.0373  Tot=              1.8961
 Quadrupole moment (field-independent basis, Debye-Ang):
   XX=           -108.9263   YY=           -109.3328   ZZ=           -115.8755
   XY=             -4.6332   XZ=             -8.6766   YZ=             -5.4897
 Traceless Quadrupole moment (field-independent basis, Debye-Ang):
   XX=              2.4519   YY=              2.0454   ZZ=             -4.4973
   XY=             -4.6332   XZ=             -8.6766   YZ=             -5.4897
 Octapole moment (field-independent basis, Debye-Ang**2):
  XXX=            -38.3399  YYY=          -1267.1169  ZZZ=          -1559.3104  XYY=            -32.0807
  XXY=           -459.6469  XXZ=           -433.0844  XZZ=            -52.5905  YZZ=           -402.4737
  YYZ=           -519.5743  XYZ=             -8.1439
 Hexadecapole moment (field-independent basis, Debye-Ang**3):
 XXXX=          -2584.6686 YYYY=         -11340.8208 ZZZZ=         -20418.7377 XXXY=           -817.1753
 XXXZ=           1558.0243 YYYX=           -942.5313 YYYZ=          -4717.6585 ZZZX=           1124.6920
 ZZZY=          -4318.3914 XXYY=          -2723.1925 XXZZ=          -2997.7562 YYZZ=          -5073.9857
 XXYZ=          -1525.9316 YYXZ=            684.7050 ZZXY=           -148.2887
 N-N= 1.265656231055D+03 E-N=-4.676451711050D+03  KE= 9.127876156508D+02
   1 Symmetry operations used in ECPInt.
 ECPInt:  NShTT=   32385 NPrTT=   99228 LenC2=   26149 LenP2D=   57458.
 LDataN:  DoStor=T MaxTD1= 7 Len=  274
 Calling FoFJK, ICntrl=      2127 FMM=F ISym2X=0 I1Cent= 0 IOpClX= 0 NMat=1 NMatS=1 NMatT=0.
 -------------------------------------------------------------------
 Center     Atomic                   Forces (Hartrees/Bohr)
 Number     Number              X              Y              Z
 -------------------------------------------------------------------
      1        8           0.000332551    0.001802866    0.004589753
      2        1           0.002010819    0.001169265   -0.000441833
      3        6           0.000057290    0.000817370    0.000027860
      4        1           0.001971753    0.005069064   -0.002847414
      5        6           0.000080821    0.000632404   -0.000101291
      6        1          -0.001906310    0.005012252    0.002962476
      7        8          -0.000563009    0.000614399    0.000651590
      8        6           0.004097602   -0.006065221   -0.005386151
      9        1           0.002524942    0.002941319    0.004272629
     10        1          -0.004436016    0.003331155   -0.000511447
     11        6          -0.005628003   -0.000983731   -0.010925071
     12        1          -0.002493111   -0.000352616    0.005078964
     13        1           0.005242949   -0.002200282    0.002047096
     14        6          -0.002477265   -0.000483152    0.003386974
     15        6          -0.000472074   -0.001011526    0.000924919
     16        8           0.000708886   -0.001223400   -0.002523575
     17        6           0.002274654    0.000448999   -0.003587067
     18        6           0.000692052    0.001509705   -0.000339505
     19        8          -0.001973882    0.000967588    0.001786990
     20        6           0.000075311   -0.000855099    0.000051154
     21        1          -0.001942370   -0.005031537    0.002819403
     22        6          -0.000087233   -0.000634792    0.000040804
     23        1           0.001968089   -0.005017966   -0.002908923
     24        8           0.000442652   -0.000825140   -0.001025005
     25        6          -0.007056163    0.010207682    0.003351388
     26        1           0.003449368   -0.000416323   -0.004551328
     27        1          -0.001151222   -0.006216970   -0.000111130
     28        6          -0.006600108   -0.000718577    0.002602175
     29        1           0.003982438   -0.003967780    0.000477328
     30        1           0.002435170    0.004849874   -0.000293110
     31        8           0.004181654   -0.002242427   -0.001571547
     32        1           0.000257767   -0.001127399    0.002052895
 -------------------------------------------------------------------
 Cartesian Forces:  Max     0.010925071 RMS     0.003212699

 GradGradGradGradGradGradGradGradGradGradGradGradGradGradGradGradGradGrad
 Berny optimization.
 FormGI is forming the generalized inverse of G from B-inverse, IUseBI=4.
 Internal  Forces:  Max     0.006791036 RMS     0.002336537
 Search for a local minimum.
 Step number   1 out of a maximum of  160
 All quantities printed in internal units (Hartrees-Bohrs-Radians)
 Mixed Optimization -- RFO/linear search
 Second derivative matrix not updated -- first step.
 ITU=  0
     Eigenvalues ---    0.00354   0.00468   0.00571   0.00677   0.00877
     Eigenvalues ---    0.01306   0.01355   0.01521   0.01764   0.01850
     Eigenvalues ---    0.02166   0.02224   0.02231   0.02240   0.02256
     Eigenvalues ---    0.02268   0.02272   0.02491   0.02608   0.05048
     Eigenvalues ---    0.05067   0.05470   0.05539   0.05745   0.05913
     Eigenvalues ---    0.05971   0.06110   0.06779   0.06915   0.11167
     Eigenvalues ---    0.11442   0.11511   0.11646   0.13469   0.13561
     Eigenvalues ---    0.13898   0.14061   0.15926   0.15981   0.15999
     Eigenvalues ---    0.16000   0.16001   0.16088   0.21678   0.21942
     Eigenvalues ---    0.22010   0.22070   0.22992   0.23999   0.24863
     Eigenvalues ---    0.24960   0.24994   0.24998   0.25015   0.25214
     Eigenvalues ---    0.25418   0.27887   0.30883   0.32264   0.32506
     Eigenvalues ---    0.33282   0.34068   0.34146   0.34399   0.34481
     Eigenvalues ---    0.34579   0.34637   0.34734   0.35078   0.35297
     Eigenvalues ---    0.35749   0.35789   0.35812   0.36228   0.41156
     Eigenvalues ---    0.42990   0.43055   0.43468   0.44166   0.44658
     Eigenvalues ---    0.47053   0.47613   0.47772   0.49650   0.55285
     Eigenvalues ---    0.55443   0.57141   0.61364   1.04561   1.05030
 RFO step:  Lambda=-2.35267760D-03 EMin= 3.54172715D-03
 Linear search not attempted -- first point.
 Iteration  1 RMS(Cart)=  0.02370881 RMS(Int)=  0.00038778
 Iteration  2 RMS(Cart)=  0.00050914 RMS(Int)=  0.00001336
 Iteration  3 RMS(Cart)=  0.00000029 RMS(Int)=  0.00001336
 Variable       Old X    -DE/DX   Delta X   Delta X   Delta X     New X
                                 (Linear)    (Quad)   (Total)
    R1        1.82284  -0.00164   0.00000  -0.00370  -0.00370   1.81914
    R2        2.64466   0.00550   0.00000   0.01283   0.01283   2.65749
    R3        2.05891  -0.00612   0.00000  -0.01657  -0.01657   2.04235
    R4        2.62737  -0.00674   0.00000  -0.01365  -0.01365   2.61372
    R5        2.64322  -0.00651   0.00000  -0.01368  -0.01368   2.62953
    R6        2.06083  -0.00612   0.00000  -0.01693  -0.01693   2.04391
    R7        2.64136  -0.00679   0.00000  -0.01407  -0.01407   2.62729
    R8        2.26809  -0.00097   0.00000  -0.00065  -0.00065   2.26744
    R9        2.07888  -0.00571   0.00000  -0.01664  -0.01664   2.06224
   R10        2.07792  -0.00556   0.00000  -0.01624  -0.01624   2.06168
   R11        2.85551  -0.00072   0.00000  -0.00254  -0.00254   2.85297
   R12        2.70315   0.00197   0.00000   0.00443   0.00443   2.70758
   R13        2.07692  -0.00561   0.00000  -0.01644  -0.01644   2.06048
   R14        2.09067  -0.00587   0.00000  -0.01756  -0.01756   2.07310
   R15        2.82745  -0.00250   0.00000  -0.00721  -0.00721   2.82024
   R16        2.64305  -0.00655   0.00000  -0.01346  -0.01346   2.62958
   R17        2.53183   0.00031   0.00000   0.00039   0.00039   2.53222
   R18        2.53401   0.00054   0.00000  -0.00011  -0.00011   2.53390
   R19        2.70795   0.00188   0.00000   0.00366   0.00366   2.71161
   R20        2.82711  -0.00236   0.00000  -0.00755  -0.00755   2.81957
   R21        2.64142  -0.00677   0.00000  -0.01374  -0.01374   2.62768
   R22        2.27001  -0.00128   0.00000  -0.00073  -0.00073   2.26928
   R23        2.05862  -0.00607   0.00000  -0.01688  -0.01688   2.04174
   R24        2.62712  -0.00676   0.00000  -0.01332  -0.01332   2.61380
   R25        2.06082  -0.00612   0.00000  -0.01702  -0.01702   2.04379
   R26        2.07788  -0.00565   0.00000  -0.01665  -0.01665   2.06123
   R27        2.08909  -0.00614   0.00000  -0.01867  -0.01867   2.07043
   R28        2.86489  -0.00084   0.00000  -0.00273  -0.00273   2.86216
   R29        2.64721   0.00551   0.00000   0.01344   0.01344   2.66065
   R30        2.07459  -0.00563   0.00000  -0.01606  -0.01606   2.05853
   R31        2.07280  -0.00541   0.00000  -0.01582  -0.01582   2.05698
   R32        1.82261  -0.00167   0.00000  -0.00369  -0.00369   1.81892
    A1        1.86915   0.00310   0.00000   0.01941   0.01941   1.88855
    A2        2.10879  -0.00056   0.00000  -0.00308  -0.00308   2.10571
    A3        2.08714   0.00038   0.00000   0.00213   0.00213   2.08927
    A4        2.08725   0.00017   0.00000   0.00095   0.00095   2.08820
    A5        2.12026  -0.00030   0.00000  -0.00188  -0.00188   2.11839
    A6        2.09377  -0.00003   0.00000  -0.00025  -0.00025   2.09352
    A7        2.06915   0.00033   0.00000   0.00212   0.00212   2.07127
    A8        1.89224   0.00056   0.00000   0.00580   0.00581   1.89805
    A9        1.96354  -0.00086   0.00000  -0.00781  -0.00782   1.95572
   A10        1.91208  -0.00025   0.00000  -0.00551  -0.00553   1.90656
   A11        1.94079  -0.00002   0.00000   0.00173   0.00172   1.94251
   A12        1.90033   0.00003   0.00000   0.00425   0.00425   1.90458
   A13        1.85383   0.00055   0.00000   0.00159   0.00157   1.85540
   A14        1.94505   0.00237   0.00000   0.00972   0.00972   1.95478
   A15        1.88014  -0.00122   0.00000  -0.01124  -0.01124   1.86890
   A16        1.95492  -0.00162   0.00000  -0.01018  -0.01023   1.94469
   A17        1.90142  -0.00047   0.00000  -0.00072  -0.00070   1.90072
   A18        1.90351   0.00041   0.00000   0.00730   0.00731   1.91081
   A19        1.87678   0.00046   0.00000   0.00489   0.00484   1.88162
   A20        2.05017   0.00013   0.00000   0.00065   0.00065   2.05082
   A21        2.10170  -0.00013   0.00000  -0.00056  -0.00056   2.10114
   A22        2.13130   0.00001   0.00000  -0.00007  -0.00007   2.13123
   A23        2.16759  -0.00039   0.00000  -0.00189  -0.00190   2.16570
   A24        2.14836   0.00051   0.00000   0.00207   0.00207   2.15043
   A25        1.96723  -0.00011   0.00000  -0.00018  -0.00018   1.96705
   A26        2.04094  -0.00143   0.00000  -0.00496  -0.00496   2.03598
   A27        2.12927   0.00009   0.00000  -0.00159  -0.00159   2.12768
   A28        2.10247  -0.00017   0.00000  -0.00056  -0.00056   2.10192
   A29        2.05143   0.00008   0.00000   0.00215   0.00215   2.05358
   A30        1.96151  -0.00017   0.00000  -0.00271  -0.00271   1.95880
   A31        2.15713   0.00064   0.00000   0.00379   0.00379   2.16092
   A32        2.16454  -0.00047   0.00000  -0.00108  -0.00108   2.16347
   A33        2.02885  -0.00142   0.00000  -0.00596  -0.00596   2.02289
   A34        2.08852   0.00038   0.00000   0.00232   0.00232   2.09084
   A35        2.08817   0.00017   0.00000   0.00086   0.00086   2.08903
   A36        2.10648  -0.00055   0.00000  -0.00318  -0.00318   2.10330
   A37        2.09299  -0.00001   0.00000  -0.00043  -0.00043   2.09256
   A38        2.06982   0.00031   0.00000   0.00212   0.00212   2.07194
   A39        2.12038  -0.00030   0.00000  -0.00169  -0.00169   2.11869
   A40        1.87620   0.00052   0.00000   0.00563   0.00558   1.88179
   A41        1.90074  -0.00049   0.00000  -0.00211  -0.00209   1.89865
   A42        1.87801  -0.00115   0.00000  -0.01060  -0.01061   1.86741
   A43        1.90178   0.00053   0.00000   0.00812   0.00812   1.90990
   A44        1.96044  -0.00155   0.00000  -0.00908  -0.00912   1.95132
   A45        1.94450   0.00208   0.00000   0.00783   0.00783   1.95233
   A46        1.91188   0.00109   0.00000   0.00487   0.00487   1.91675
   A47        1.91324  -0.00022   0.00000   0.00019   0.00019   1.91343
   A48        1.83419  -0.00056   0.00000  -0.00358  -0.00358   1.83061
   A49        1.94721  -0.00070   0.00000  -0.00187  -0.00187   1.94534
   A50        1.92477   0.00025   0.00000   0.00144   0.00145   1.92621
   A51        1.92919   0.00017   0.00000  -0.00106  -0.00106   1.92813
   A52        1.87349   0.00297   0.00000   0.02067   0.02067   1.89416
    D1       -0.94879  -0.00044   0.00000  -0.03117  -0.03116  -0.97995
    D2       -3.03361  -0.00049   0.00000  -0.02891  -0.02886  -3.06247
    D3        1.18916   0.00065   0.00000  -0.02196  -0.02203   1.16713
    D4       -0.00110  -0.00001   0.00000   0.00172   0.00172   0.00062
    D5        3.13934  -0.00001   0.00000  -0.00060  -0.00060   3.13874
    D6       -3.13802   0.00001   0.00000   0.00111   0.00110  -3.13691
    D7        0.00242   0.00001   0.00000  -0.00122  -0.00122   0.00121
    D8        0.00344   0.00001   0.00000  -0.00000  -0.00001   0.00344
    D9       -3.13401  -0.00000   0.00000  -0.00166  -0.00166  -3.13567
   D10        3.14042  -0.00002   0.00000   0.00059   0.00059   3.14100
   D11        0.00296  -0.00003   0.00000  -0.00106  -0.00107   0.00190
   D12        3.14099   0.00000   0.00000   0.00062   0.00062  -3.14158
   D13       -0.00582   0.00002   0.00000   0.00267   0.00267  -0.00315
   D14       -0.00172   0.00000   0.00000  -0.00164  -0.00164  -0.00336
   D15        3.13465   0.00002   0.00000   0.00042   0.00041   3.13506
   D16       -3.12355   0.00003   0.00000   0.01908   0.01910  -3.10445
   D17       -1.05141  -0.00034   0.00000   0.01065   0.01066  -1.04075
   D18        0.99240   0.00018   0.00000   0.02022   0.02021   1.01261
   D19       -0.99714   0.00012   0.00000   0.02228   0.02229  -0.97485
   D20        1.07501  -0.00025   0.00000   0.01386   0.01385   1.08886
   D21        3.11881   0.00027   0.00000   0.02342   0.02341  -3.14097
   D22        1.06780   0.00048   0.00000   0.02927   0.02928   1.09708
   D23        3.13995   0.00011   0.00000   0.02085   0.02084  -3.12240
   D24       -1.09944   0.00062   0.00000   0.03041   0.03040  -1.06904
   D25        1.07102   0.00041   0.00000  -0.00086  -0.00086   1.07016
   D26       -0.99567  -0.00014   0.00000  -0.00718  -0.00717  -1.00283
   D27       -3.08715  -0.00044   0.00000  -0.01237  -0.01237  -3.09952
   D28        0.05763   0.00007   0.00000  -0.00067  -0.00067   0.05696
   D29       -3.08386  -0.00003   0.00000  -0.00469  -0.00469  -3.08855
   D30       -3.07865   0.00006   0.00000  -0.00276  -0.00276  -3.08140
   D31        0.06305  -0.00004   0.00000  -0.00678  -0.00678   0.05627
   D32       -3.13181   0.00000   0.00000  -0.00246  -0.00246  -3.13427
   D33        0.00380  -0.00004   0.00000  -0.00182  -0.00182   0.00198
   D34        0.00431   0.00002   0.00000  -0.00030  -0.00031   0.00400
   D35        3.13992  -0.00002   0.00000   0.00033   0.00033   3.14025
   D36       -0.00180  -0.00014   0.00000  -0.00742  -0.00742  -0.00921
   D37        3.13970  -0.00004   0.00000  -0.00344  -0.00344   3.13626
   D38       -3.13106  -0.00008   0.00000  -0.01188  -0.01187   3.14025
   D39        0.01193  -0.00026   0.00000  -0.01425  -0.01426  -0.00233
   D40       -1.51089   0.00027   0.00000  -0.00003  -0.00004  -1.51093
   D41        0.63110  -0.00004   0.00000   0.00094   0.00094   0.63205
   D42        2.70463  -0.00026   0.00000  -0.00219  -0.00219   2.70245
   D43        0.04870  -0.00009   0.00000  -0.00375  -0.00375   0.04495
   D44       -3.09430   0.00009   0.00000  -0.00136  -0.00136  -3.09566
   D45       -3.09691  -0.00008   0.00000  -0.00215  -0.00215  -3.09906
   D46        0.04327   0.00010   0.00000   0.00024   0.00024   0.04352
   D47       -0.00498   0.00001   0.00000   0.00191   0.00191  -0.00307
   D48        3.13534   0.00002   0.00000   0.00175   0.00175   3.13709
   D49        3.14056   0.00000   0.00000   0.00034   0.00034   3.14090
   D50       -0.00230   0.00001   0.00000   0.00018   0.00017  -0.00212
   D51        0.00159   0.00002   0.00000  -0.00046  -0.00046   0.00112
   D52       -3.13870   0.00001   0.00000  -0.00030  -0.00030  -3.13900
   D53        3.13714  -0.00002   0.00000   0.00020   0.00020   3.13734
   D54       -0.00315  -0.00002   0.00000   0.00037   0.00036  -0.00279
   D55       -3.10588   0.00020   0.00000  -0.01460  -0.01460  -3.12048
   D56        1.05562   0.00020   0.00000  -0.01693  -0.01693   1.03869
   D57       -1.09535   0.00030   0.00000  -0.01530  -0.01530  -1.11064
   D58        1.13555  -0.00043   0.00000  -0.02470  -0.02469   1.11086
   D59       -0.98614  -0.00044   0.00000  -0.02703  -0.02701  -1.01316
   D60       -3.13710  -0.00034   0.00000  -0.02540  -0.02538   3.12070
   D61       -1.03712  -0.00026   0.00000  -0.02428  -0.02429  -1.06141
   D62        3.12438  -0.00027   0.00000  -0.02660  -0.02662   3.09776
   D63        0.97342  -0.00017   0.00000  -0.02498  -0.02499   0.94843
   D64        3.05668   0.00048   0.00000   0.03855   0.03851   3.09519
   D65       -1.16495  -0.00051   0.00000   0.03346   0.03351  -1.13144
   D66        0.97436   0.00058   0.00000   0.04321   0.04320   1.01755
         Item               Value     Threshold  Converged?
 Maximum Force            0.006791     0.000450     NO 
 RMS     Force            0.002337     0.000300     NO 
 Maximum Displacement     0.121269     0.001800     NO 
 RMS     Displacement     0.023896     0.001200     NO 
 Predicted change in Energy=-1.203808D-03
 GradGradGradGradGradGradGradGradGradGradGradGradGradGradGradGradGradGrad

                          Input orientation:                          
 ---------------------------------------------------------------------
 Center     Atomic      Atomic             Coordinates (Angstroms)
 Number     Number       Type             X           Y           Z
 ---------------------------------------------------------------------
      1          8           0        3.582359    6.858754    1.011249
      2          1           0        3.092832    6.734148    1.830714
      3          6           0       -0.710398    2.437154    4.731780
      4          1           0       -1.022996    1.501490    5.173212
      5          6           0        0.064819    2.452203    3.586425
      6          1           0        0.376178    1.535020    3.105106
      7          8           0        1.595689    2.604353    1.225658
      8          6           0        2.479212    4.867308    0.195887
      9          1           0        1.921169    4.436719   -0.637239
     10          1           0        3.376884    4.270105    0.362628
     11          6           0        2.822142    6.318332   -0.041200
     12          1           0        3.426728    6.395253   -0.945325
     13          1           0        1.900280    6.890212   -0.204356
     14          6           0        0.455932    3.664274    3.028886
     15          6           0        1.291511    3.616795    1.793233
     16          8           0       -2.198265    2.456198    7.027802
     17          6           0       -1.095277    3.638901    5.318218
     18          6           0       -1.931468    3.681571    6.553200
     19          8           0        1.667033    4.833465    1.375765
     20          6           0        0.068901    4.865834    3.614354
     21          1           0        0.372568    5.802312    3.169211
     22          6           0       -0.707499    4.851492    4.758966
     23          1           0       -1.025799    5.768810    5.235323
     24          8           0       -2.322257    4.695699    7.063954
     25          6           0       -2.109026    2.497825    9.439692
     26          1           0       -2.729895    2.421427   10.333241
     27          1           0       -1.625402    3.480870    9.450527
     28          6           0       -2.997056    2.386652    8.217798
     29          1           0       -3.750175    3.173492    8.199555
     30          1           0       -3.469341    1.406644    8.180688
     31          8           0       -1.168691    1.451733    9.501293
     32          1           0       -0.634692    1.472955    8.700754
 ---------------------------------------------------------------------
                    Distance matrix (angstroms):
                    1          2          3          4          5
     1  O    0.000000
     2  H    0.962645   0.000000
     3  C    7.198656   6.430000   0.000000
     4  H    8.199482   7.449366   1.080763   0.000000
     5  C    6.198573   5.530501   1.383122   2.145948   0.000000
     6  H    6.557893   6.002934   2.154196   2.497174   1.081590
     7  O    4.700293   4.434269   4.199867   4.863847   2.817789
     8  C    2.418182   2.556224   6.054220   6.954708   4.812252
     9  H    3.367983   3.569561   6.304742   7.144581   5.022318
    10  H    2.676571   2.882268   6.257401   7.082789   4.966630
    11  C    1.406284   1.936553   7.093921   8.073237   5.975738
    12  H    2.016739   2.816510   8.062994   9.010298   6.883809
    13  H    2.075590   2.363905   7.142185   8.154883   6.118403
    14  C    4.904091   4.220543   2.401248   3.385705   1.390300
    15  C    4.045959   3.600563   3.746231   4.610392   2.465072
    16  O    9.433823   8.561909   2.736025   2.394207   4.118816
    17  C    7.127251   6.267655   1.391488   2.143544   2.398580
    18  C    8.438602   7.540802   2.521341   2.735405   3.781305
    19  O    2.811252   2.419190   4.759970   5.723541   3.622777
    20  C    4.805441   3.976949   2.784679   3.865371   2.413796
    21  H    4.009442   3.171708   3.865065   4.945775   3.389987
    22  C    6.039649   5.153791   2.414493   3.390229   2.779913
    23  H    6.345541   5.430134   3.384224   4.267774   3.861114
    24  O    8.728031   7.801620   3.624659   3.932678   4.777512
    25  C   11.065632  10.144078   4.911648   4.513867   6.244071
    26  H   12.100990  11.171243   5.954409   5.512321   7.302801
    27  H   10.476272   9.534521   4.918653   4.751448   6.188917
    28  C   10.734186   9.837800   4.169375   3.734960   5.552387
    29  H   10.909581  10.003357   4.669894   4.403618   6.029545
[...]
 1,0.00000342,-0.00001057,0.00000973,0.00001828,0.00000472,0.00000046,-
 0.00000725,-0.00000053,-0.00000007,0.00000097,-0.00000047,0.00000007,0
 .00000096,0.00000053,0.00000070,0.00000008,-0.00000066,-0.00000052,0.0
 0000030,-0.00000011,-0.00000006,-0.00000058,-0.00001791,0.00002492,0.0
 0002328,0.00002435,0.00000377,-0.00003631,0.00214355,0.00257838,0.0000
 6669,-0.00016264,0.00025695,-0.00008108,0.00052482,-0.00231113,-0.0008
 7050,-0.00001058,-0.00000792,0.00001375,0.00001731,0.00001703,-0.00002
 012,0.00000215,-0.00000229,-0.00000163,-0.00000664,-0.00002276,-0.0000
 0467,0.00001461,0.00001247,-0.00001500,-0.00003469,0.00103970,0.001206
 39,-0.11384870,-0.11253034,0.00369468,-0.00766753,-0.01465510,-0.00107
 948,0.12124142,-0.00000119,-0.00000028,0.00000645,0.00000244,0.0000012
 3,-0.00000414,-0.00001966,-0.00007275,0.00002604,0.00000935,-0.0000026
 9,0.00001940,-0.00000192,0.00001994,0.00000507,-0.00000548,-0.00000258
 ,0.00000970,-0.00002449,0.00002750,0.00003815,0.00001152,0.00000163,-0
 .00001709,-0.00000057,0.00000002,0.00000233,-0.00000146,-0.00000051,0.
 00000168,-0.00000149,0.00000020,-0.00000342,-0.00000129,-0.00000094,0.
 00000133,0.00000055,0.00000033,-0.00000078,-0.00002499,0.00000418,0.00
 003392,0.00005041,-0.00000893,-0.00007405,0.00067044,0.00068151,-0.000
 13189,-0.00012067,0.00006377,-0.00007007,-0.00001627,-0.00092805,-0.00
 084198,-0.00002110,-0.00000948,0.00003167,0.00001366,0.00001287,-0.000
 00941,-0.00000372,-0.00000071,-0.00000041,0.00000384,0.00002199,0.0000
 1034,0.00000800,0.00001719,-0.00002121,0.00059396,-0.00027943,0.001853
 33,-0.11010376,-0.24269287,0.00009741,-0.00197096,-0.00004374,0.000437
 75,0.11169162,0.27553093,-0.00000921,-0.00001515,0.00000017,0.00000818
 ,0.00001173,-0.00000147,-0.00002297,-0.00007654,0.00002550,-0.00000938
 ,-0.00001540,-0.00000955,0.00000161,-0.00000565,0.00003186,-0.00000804
 ,-0.00000101,0.00000521,-0.00004952,0.00002526,0.00007749,0.00003051,0
 .00000681,-0.00004342,-0.00000324,-0.00000003,0.00000544,-0.00000283,-
 0.00000005,0.00000549,0.00000306,0.00001187,0.00000302,-0.00000338,-0.
 00000311,0.00000169,0.00000081,-0.00000031,-0.00000234,-0.00005804,0.0
 0001602,0.00007952,0.00011616,0.00003551,-0.00016771,0.00160532,0.0009
 3946,0.00365836,-0.00016763,0.00010482,-0.00004117,0.00035770,-0.00139
 236,-0.00160778,-0.00006247,-0.00005941,0.00008360,0.00001548,0.000013
 80,-0.00002196,-0.00000332,-0.00000401,0.00000489,-0.00001765,0.000030
 04,0.00004215,0.00000575,0.00002776,-0.00002249,-0.00026159,0.00134661
 ,0.00024429,0.00473374,0.00354408,-0.05449545,0.01368380,0.02297510,0.
 00161030,0.00115017,-0.00303963,0.05256397,0.00006039,0.00009759,-0.00
 000903,-0.00005608,-0.00007668,0.00001178,0.00014980,0.00007804,-0.000
 61496,-0.00031559,0.00040439,0.00016276,-0.00001891,0.00009943,0.00013
 152,0.00005165,0.00000207,-0.00002266,0.00034845,-0.00017817,-0.000532
 85,-0.00020983,-0.00004505,0.00031221,0.00002065,-0.00000095,-0.000037
 47,0.00002175,0.00000124,-0.00004085,-0.00001599,-0.00007879,-0.000015
 75,0.00002400,0.00002243,-0.00001236,-0.00000632,0.00000173,0.00001631
 ,0.00036918,0.00021998,-0.00051540,-0.00082231,-0.00018143,0.00113352,
 -0.11013424,0.00148348,0.06182722,0.00532366,0.00118608,0.00071073,-0.
 01112237,-0.03146928,0.01613100,0.00045177,0.00040339,-0.00060040,-0.0
 0008746,-0.00002480,-0.00043460,-0.00000370,0.00003225,-0.00009504,0.0
 0043150,-0.00042287,0.00005351,-0.00000039,-0.00007745,0.00019469,-0.0
 0703576,0.01067464,0.00222926,-0.12271056,-0.01668951,-0.05043454,0.01
 253372,0.00076882,0.01721661,-0.01123284,-0.00412411,-0.01766374,0.549
 79868,0.00002288,0.00002592,-0.00000019,-0.00001844,-0.00002006,0.0000
 0163,0.00042318,-0.00036475,-0.00066127,0.00000397,0.00073044,0.000173
 46,-0.00013478,0.00035718,0.00001963,0.00000007,0.00000278,-0.00000299
 ,0.00011264,-0.00006940,-0.00017646,-0.00006961,-0.00000758,0.00009581
 ,0.00000619,0.00000112,-0.00001161,0.00000702,0.00000005,-0.00001112,-
 0.00000908,-0.00002225,-0.00000879,0.00000782,0.00000759,-0.00000382,-
 0.00000039,-0.00000049,0.00000548,0.00021856,0.00009019,-0.00026918,-0
 .00025343,-0.00001601,0.00039919,0.01418983,-0.09078703,-0.01711189,0.
 00025420,-0.00487425,0.00043144,-0.02852419,-0.00416492,0.03843221,0.0
 0014856,0.00013044,-0.00019958,-0.00003772,-0.00046330,-0.00008744,-0.
 00006100,0.00001884,0.00007613,-0.00063992,0.00036606,0.00107336,-0.00
 000174,-0.00003654,0.00002104,-0.00074845,-0.00017967,0.00060788,-0.02
 045570,-0.08708388,-0.02055893,0.00142272,-0.00044658,0.00375664,-0.01
 971064,-0.00170970,-0.02560602,-0.01161322,0.66887576,-0.00010214,-0.0
 0014697,-0.00001005,0.00008857,0.00011160,-0.00000656,-0.00045977,0.00
 001732,0.00045687,0.00024685,-0.00055073,-0.00046473,0.00007044,-0.000
 21055,-0.00000600,-0.00002197,-0.00000111,0.00005396,-0.00048847,0.000
 20408,0.00072449,0.00032106,0.00006172,-0.00042949,-0.00003327,0.00000
 006,0.00005352,-0.00003010,0.00000177,0.00005482,0.00003826,0.00011979
 ,0.00003899,-0.00003423,-0.00003227,0.00001610,0.00000539,-0.00000070,
 -0.00002455,-0.00043640,-0.00024037,0.00065162,0.00109127,0.00030130,-
 0.00155203,0.06229321,0.00174398,-0.14915692,-0.00024525,-0.00189204,0
 .00469178,0.01670044,0.03678084,-0.02388913,-0.00064752,-0.00058194,0.
 00084924,-0.00047152,-0.00003838,0.00022394,-0.00008135,-0.00005046,0.
 00008287,-0.00002254,0.00056618,0.00041076,0.00023417,0.00009821,-0.00
 012121,0.00006962,-0.01606998,-0.00363132,-0.07349656,-0.01409406,-0.1
 5139891,-0.01235376,-0.00479607,-0.01925419,0.00186174,0.00001704,-0.0
 0209196,0.02386000,-0.00290706,0.44135276,-0.00000214,-0.00000631,-0.0
 0000139,0.00000139,0.00000496,0.00000048,-0.00001762,0.00013117,0.0000
 4143,-0.00000725,-0.00012787,-0.00007937,0.00008109,-0.00005014,-0.000
 07103,0.00000516,0.00000082,-0.00000609,-0.00000660,-0.00000243,0.0000
 1223,0.00000880,0.00000160,-0.00001115,-0.00000108,-0.00000007,0.00000
 164,-0.00000070,0.00000007,0.00000133,0.00000082,0.00000465,0.00000202
 ,-0.00000084,-0.00000104,0.00000022,0.00000037,-0.00000024,-0.00000040
 ,-0.00001421,-0.00009037,0.00000986,0.00001727,0.00000106,-0.00003430,
 -0.01894334,0.00882213,0.01042910,0.00018259,-0.00032875,0.00020892,-0
 .00016701,0.00761612,0.00030327,-0.00001896,-0.00001946,0.00002628,-0.
 00007947,-0.00001058,0.00007277,-0.00000470,0.00000082,0.00000359,0.00
 006424,0.00008100,-0.00006923,-0.00000955,-0.00004109,0.00003030,0.001
 46216,-0.00240475,-0.00205530,-0.01063122,0.01446609,0.00080073,0.0006
 4779,-0.00013696,-0.00034521,0.00024407,-0.00038363,0.00059205,-0.1772
 4127,0.12997063,-0.00968715,0.19381451,0.00000209,0.00000512,-0.000005
 59,-0.00000353,-0.00000456,0.00000327,-0.00002018,0.00000059,-0.000059
 17,-0.00000693,0.00000952,0.00001215,0.00003569,0.00000906,-0.00007976
 ,0.00001295,0.00000005,0.00000138,0.00002342,-0.00000880,-0.00003943,-
 0.00001401,-0.00000323,0.00002440,0.00000111,-0.00000061,-0.00000298,0
 .00000129,0.00000009,-0.00000278,0.00000121,-0.00000372,0.00000256,0.0
 0000193,0.00000137,-0.00000133,-0.00000103,0.00000042,0.00000121,0.000
 00636,-0.00004854,-0.00001567,-0.00005453,-0.00001844,0.00006871,-0.00
 255127,0.00395797,-0.00301785,0.00059407,-0.00005455,0.00023247,-0.001
 52397,0.00038630,0.00121113,0.00003113,0.00002589,-0.00004232,-0.00001
 341,0.00002981,0.00002697,0.00000093,0.00000280,-0.00000348,0.00001341
 ,-0.00000415,-0.00005540,-0.00002343,-0.00000839,0.00002212,-0.0020638
 3,-0.00219821,0.00172573,-0.00360801,0.00251561,0.00025381,0.00049664,
 0.00016882,0.00058592,0.00003778,0.00009224,0.00038321,0.13893333,-0.1
 9451056,0.00655167,-0.14820409,0.20418989,0.00000868,0.00001295,0.0000
 0053,-0.00000813,-0.00001031,0.00000051,0.00008941,-0.00010776,-0.0000
 9363,-0.00000616,0.00016566,0.00012256,-0.00008314,0.00007452,0.000034
 73,-0.00000173,-0.00000146,-0.00000647,0.00004853,-0.00002545,-0.00007
 627,-0.00003215,-0.00000460,0.00004177,0.00000391,0.00000003,-0.000005
 89,0.00000289,-0.00000004,-0.00000560,-0.00000179,-0.00001161,-0.00000
 389,0.00000315,0.00000357,-0.00000145,-0.00000066,0.00000042,0.0000021
 3,0.00007247,0.00008382,-0.00009331,-0.00010547,-0.00001466,0.00017316
 ,0.03096937,-0.01817313,-0.01142918,-0.00028127,0.00012115,-0.00053743
 ,0.00068215,-0.00645374,0.00183461,0.00006630,0.00005975,-0.00009094,0
 .00008424,-0.00000449,-0.00006956,0.00001259,0.00000411,-0.00000567,-0
 .00006136,-0.00011063,0.00002663,-0.00000089,0.00002491,-0.00000262,-0
 .00065936,0.00260706,0.00010760,-0.01439238,0.02074204,0.00511430,0.00
 098233,0.00033287,0.00039932,0.00038432,-0.00092369,0.00066235,-0.0158
 2406,0.01209512,-0.05198171,0.00329997,-0.00917423,0.06091702,-0.00000
 688,-0.00000699,-0.00000047,0.00000628,0.00000562,-0.00000066,-0.00006
 336,-0.00010342,0.00003356,-0.00000601,-0.00001338,0.00005892,0.000002
 58,0.00005843,-0.00006310,-0.00000593,-0.00000228,0.00001619,-0.000038
 64,0.00003365,0.00005483,0.00002134,0.00000401,-0.00002638,-0.00000223
 ,-0.00000046,0.00000367,-0.00000237,-0.00000020,0.00000354,0.00000254,
 0.00000621,0.00000230,-0.00000205,-0.00000203,0.00000109,0.00000001,0.
 00000038,-0.00000158,-0.00003343,-0.00005519,0.00006048,0.00008919,0.0
 0000047,-0.00011924,-0.01281455,-0.02236772,0.01036658,0.00030674,-0.0
 0095557,0.00041944,-0.00273705,0.00561489,0.00164216,-0.00004134,-0.00
 002844,0.00005323,-0.00006658,-0.00005807,0.00002301,-0.00002023,0.000
 00062,0.00002166,-0.00008712,0.00018083,0.00019414,0.00001979,-0.00000
 591,-0.00000520,0.00173259,-0.00067828,-0.00194649,-0.00861371,-0.0193
 8971,-0.00376824,0.00048135,0.00053233,0.00016385,-0.00129139,0.000062
 12,-0.00325924,-0.09606300,-0.09638349,-0.00622768,0.01252877,0.018934
 39,0.00107698,0.10482993,-0.00000349,-0.00000694,0.00000538,0.00000470
 ,0.00000609,-0.00000331,-0.00000805,-0.00000675,0.00003423,-0.00002237
 ,-0.00004490,-0.00000682,-0.00000250,-0.00001016,0.00002804,-0.0000083
 5,0.00000007,0.00000326,-0.00003283,0.00002274,0.00005761,0.00001959,0
 .00000408,-0.00003061,-0.00000185,0.00000028,0.00000404,-0.00000191,-0
 .00000023,0.00000364,-0.00000084,0.00000546,-0.00000177,-0.00000240,-0
 .00000198,0.00000155,0.00000109,-0.00000037,-0.00000151,-0.00003675,0.
 00000925,0.00005635,0.00007459,0.00001456,-0.00011620,0.00009307,0.001
 56277,0.00253763,-0.00020026,-0.00001656,-0.00012293,0.00047249,-0.000
 21881,-0.00151741,-0.00004085,-0.00003474,0.00005820,0.00001376,0.0000
 0331,0.00000077,-0.00000536,-0.00000199,0.00000258,-0.00001552,0.00002
 492,0.00007089,0.00000427,0.00002800,-0.00002207,-0.00101804,0.0005050
 8,0.00131783,0.00015338,-0.00394109,-0.00055328,-0.00030257,0.00010039
 ,-0.00067267,0.00049257,0.00106831,-0.00058556,-0.10426695,-0.28038919
 ,-0.00806207,-0.00959600,-0.01611925,-0.00206621,0.11437217,0.29542172
 ,0.00001073,0.00001503,0.00000130,-0.00001048,-0.00001207,0.00000022,0
 .00001283,0.00015431,-0.00002745,0.00004612,-0.00001600,-0.00000021,0.
 00000419,-0.00007202,0.00002032,0.00001481,0.00000166,-0.00002003,0.00
 005907,-0.00004268,-0.00009466,-0.00003486,-0.00000771,0.00004786,0.00
 000419,0.00000039,-0.00000662,0.00000353,0.00000006,-0.00000659,-0.000
 00362,-0.00001261,-0.00000447,0.00000372,0.00000367,-0.00000161,-0.000
 00055,0.00000017,0.00000276,0.00005712,0.00004040,-0.00008930,-0.00013
 836,-0.00002216,0.00019931,0.02062339,0.03365297,-0.01219007,-0.000237
 78,0.00140049,-0.00050273,0.00433589,-0.00397326,-0.00286124,0.0000716
 8,0.00005784,-0.00009509,0.00007150,0.00010757,-0.00002720,0.00003093,
 0.00000160,-0.00003747,0.00019496,-0.00023283,-0.00035718,-0.00003740,
 -0.00001245,0.00001576,-0.00059930,0.00104619,0.00102921,-0.01309507,-
 0.02842105,-0.00136864,0.00087915,0.00020382,0.00093647,-0.00381890,0.
 00040121,-0.00420422,-0.01008563,-0.01691866,-0.04555121,-0.00002331,0
 .00215933,0.00086750,-0.00101962,0.00909835,0.06229910,0.00005722,0.00
 001843,0.00004313,-0.00004186,-0.00000788,-0.00001842,0.00022487,0.000
 11912,-0.00011833,-0.00022438,0.00005511,0.00002954,0.00005574,-0.0000
 1793,0.00002958,-0.00001279,-0.00000128,-0.00006387,0.00017620,-0.0001
 1658,-0.00018245,-0.00008625,-0.00000368,0.00008156,0.00001005,0.00000
 331,-0.00000870,0.00001061,-0.00000225,-0.00001532,-0.00003677,-0.0000
 2682,-0.00003965,0.00000671,0.00000849,-0.00000140,0.00000905,-0.00000
 520,0.00000906,0.00018145,0.00005747,-0.00026140,-0.00034324,-0.000005
 31,0.00041117,0.00480458,0.00024350,-0.00059271,0.00009063,0.00028840,
 -0.00033862,-0.00183036,-0.00167542,0.00226260,0.00016718,0.00010738,-
 0.00018060,0.00005232,-0.00002061,-0.00004208,0.00000202,0.00001174,-0
 .00003881,0.00012979,-0.00016523,-0.00013410,-0.00009528,-0.00005442,0
 .00005795,0.00102789,0.00084443,-0.00115371,-0.14912240,0.10003903,-0.
 01023313,-0.02096300,0.02365429,-0.00114321,0.00829231,0.00423545,-0.0
 0026317,-0.03134081,0.03204479,-0.00377412,-0.00241394,-0.00084814,-0.
 00668178,0.00234537,-0.00005102,0.00297430,0.36913280,-0.00002174,0.00
 000540,0.00001457,0.00002261,-0.00000195,-0.00001140,-0.00022217,-0.00
 033222,0.00019597,0.00012219,-0.00008470,0.00010656,-0.00000922,0.0000
 9677,-0.00003518,-0.00001849,-0.00001161,0.00006695,-0.00014869,0.0001
 6805,0.00020109,0.00006664,0.00000369,-0.00007967,-0.00000425,-0.00000
 174,0.00001066,-0.00000902,-0.00000145,0.00000941,0.00000548,0.0000010
 9,-0.00000352,-0.00000639,-0.00000539,0.00000566,-0.00000183,0.0000040
 0,-0.00000570,-0.00014890,-0.00005008,0.00022792,0.00028716,-0.0000785
 8,-0.00040672,-0.00158280,0.00182448,-0.00039950,-0.00013167,0.0000448
 2,0.00018988,0.00068815,-0.00237620,-0.00268878,-0.00011884,-0.0000380
 9,0.00015808,-0.00000992,0.00009536,0.00001547,-0.00000862,-0.00000599
 ,0.00001064,-0.00002399,0.00014390,0.00007343,0.00004857,0.00007923,-0
 .00009392,-0.00024990,0.00115986,0.00282084,0.08071778,-0.18042069,0.0
 3160530,0.00722904,-0.00275227,-0.00180251,0.03318086,-0.03182233,0.00
 228506,0.01371354,-0.00660721,0.00307096,0.00049560,0.00169392,0.00079
 890,0.00053658,0.00211389,0.00144815,-0.14974083,0.24693799,0.00003848
 ,0.00004979,0.00001567,-0.00002898,-0.00003520,-0.00000391,-0.00003034
 ,-0.00007808,0.00000166,-0.00002334,0.00006011,0.00018274,0.00000077,0
 .00008091,-0.00001275,-0.00000937,-0.00000321,0.00000122,0.00013736,-0
 .00003024,-0.00019005,-0.00009551,-0.00001874,0.00012350,0.00001001,0.
 00000009,-0.00001403,0.00000858,-0.00000179,-0.00001620,-0.00002007,-0
 .00004052,-0.00002029,0.00000990,0.00000942,-0.00000394,0.00000020,-0.
 00000016,0.00000780,0.00012710,0.00000341,-0.00017633,-0.00031008,-0.0
 0012864,0.00042371,-0.00132799,0.00304065,0.00235140,0.00003398,0.0001
 0004,-0.00017897,-0.00136848,-0.00327183,0.00136466,0.00019182,0.00018
 930,-0.00024150,0.00002275,0.00003513,0.00000189,0.00000600,0.00001102
 ,-0.00001945,0.00005896,-0.00009578,-0.00008160,-0.00003825,-0.0000198
 1,0.00001852,0.00059534,0.00161241,0.00035337,0.01988371,0.00150154,-0
 .08760875,0.02134644,-0.02516666,0.00544039,-0.00201385,0.00127845,0.0
 0360728,-0.02387555,0.02616185,-0.00248996,-0.00353163,-0.00062386,-0.
 00522624,0.00218866,0.00063215,0.00213355,-0.23299644,-0.04938373,0.44
 193708,-0.00003437,-0.00001423,-0.00002870,0.00002536,0.00000658,0.000
 01292,-0.00011328,0.00003944,0.00001608,0.00016293,-0.00001855,-0.0001
 4797,-0.00004851,-0.00003315,-0.00000566,0.00001545,0.00000610,0.00003
 849,-0.00010939,0.00006175,0.00010879,0.00005307,0.00000240,-0.0000505
 4,-0.00000690,-0.00000159,0.00000542,-0.00000640,0.00000137,0.00001050
 ,0.00002146,0.00001951,0.00002607,-0.00000414,-0.00000558,0.00000040,-
 0.00000503,0.00000263,-0.00000547,-0.00012290,-0.00004348,0.00016870,0
 .00021527,0.00001262,-0.00025110,0.00033555,-0.00304961,0.00134867,-0.
 00014852,-0.00022846,0.00016773,0.00157285,0.00393473,-0.00191857,-0.0
 0010729,-0.00007712,0.00011634,-0.00004363,0.00000282,0.00004625,-0.00
 000306,-0.00000809,0.00002701,-0.00007166,0.00011305,0.00005341,0.0000
 5667,0.00002486,-0.00003241,-0.00026247,-0.00169267,-0.00004216,-0.020
 91799,0.00088916,0.02491499,-0.00200901,0.00419279,-0.00151126,0.00182
 723,-0.00052661,-0.00043890,-0.00116778,-0.00017125,0.00173279,0.00050
 085,-0.00019137,0.00035303,-0.00047062,-0.00008378,-0.00029325,-0.1802
 6568,0.01534305,0.22100981,0.20113196,0.00000404,-0.00000088,-0.000017
 71,-0.00000743,-0.00000267,0.00001188,0.00011560,0.00024198,-0.0001132
 3,-0.00005563,0.00008686,-0.00008621,-0.00004820,-0.00007424,0.0000716
 2,0.00001799,0.00001066,-0.00003880,0.00007697,-0.00009932,-0.00011628
 ,-0.00003475,-0.00000408,0.00004711,0.00000189,0.00000066,-0.00000698,
 0.00000466,0.00000187,-0.00000469,0.00000407,0.00000025,0.00000889,0.0
 0000351,0.00000280,-0.00000374,-0.00000123,-0.00000146,0.00000220,0.00
 007605,0.00007114,-0.00011406,-0.00015376,0.00005364,0.00023683,-0.001
 41214,0.00013678,-0.00040970,-0.00003861,0.00000655,-0.00000904,0.0002
 1618,-0.00085363,0.00142169,0.00006057,0.00001748,-0.00009135,0.000025
 45,-0.00006970,-0.00003328,0.00001036,0.00000005,-0.00000296,-0.000054
 31,-0.00015091,-0.00000462,-0.00000270,-0.00004008,0.00004208,-0.00011
 006,-0.00004017,-0.00043064,0.02465057,-0.00344819,-0.02879421,0.00358
 186,-0.00386232,0.00072226,-0.00007754,0.00003113,-0.00095289,0.001126
 82,0.00114703,0.00002825,-0.00019295,-0.00010651,-0.00004487,-0.000291
 58,-0.00009797,-0.00004971,-0.00898836,-0.02978194,0.04413200,-0.01850
 734,0.03682518,-0.00003101,-0.00004175,-0.00001241,0.00002411,0.000030
 39,0.00000329,0.00015716,0.00018334,0.00002150,-0.00011390,-0.00014357
 ,-0.00023249,0.00006160,-0.00011175,-0.00002285,0.00001069,0.00000067,
 -0.00001335,-0.00011257,0.00002100,0.00016308,0.00008072,0.00001489,-0
 .00010663,-0.00000871,0.00000012,0.00001249,-0.00000718,0.00000151,0.0
 0001396,0.00001492,0.00003449,0.00001696,-0.00000832,-0.00000843,0.000
 00325,0.00000014,-0.00000033,-0.00000639,-0.00010795,-0.00002389,0.000
 12074,0.00025546,0.00010337,-0.00035921,0.00094549,-0.00190576,0.00085
 715,-0.00006642,-0.00002103,0.00007519,0.00044711,0.00368882,-0.000559
 81,-0.00016501,-0.00016278,0.00021088,-0.00003266,-0.00004654,0.000028
 38,-0.00000157,-0.00000979,0.00001250,-0.00001689,0.00007290,0.0000135
 7,0.00001110,-0.00000816,0.00000123,0.00017929,-0.00150147,-0.00081821
 ,-0.00331739,0.00217562,0.00200532,-0.00157757,-0.00029555,0.00137419,
 -0.00052912,0.00086652,-0.00000305,-0.00317624,0.00118414,0.00239821,0
 .00007937,-0.00014220,-0.00067487,0.00005360,-0.00015007,-0.00010739,0
 .25238315,0.01159514,-0.36168047,-0.24543142,-0.01539986,0.35726523\\0
 .00001778,0.00000330,0.00000350,-0.00000947,0.00000076,-0.00000013,0.0
 0000102,0.00000559,-0.00000112,-0.00000110,-0.00000279,-0.00000084,0.,
 0.00000617,0.00000062,0.00000080,-0.00000302,-0.00000037,-0.00000105,-
 0.00000156,0.00000216,0.00000826,0.00000676,0.00000275,-0.00000296,0.0
 0000038,-0.00000601,0.00000128,-0.00000167,0.00000045,-0.00000849,-0.0
 0001004,-0.00000637,0.00000303,0.00000242,-0.00000023,-0.00000324,0.00
 000203,0.00000430,0.00000036,0.00000240,-0.00000245,0.00000453,-0.0000
 0527,0.00000344,0.00001102,0.00000278,0.00000271,-0.00000009,-0.000004
 41,-0.00000204,-0.00000506,0.00000736,-0.00000880,-0.00001029,0.000004
 86,0.00000102,0.00000305,-0.00000486,-0.00000212,0.00000025,0.00000278
 ,-0.00000107,-0.00000137,-0.00000414,0.00000071,0.00000160,0.00000184,
 0.00000053,-0.00000169,-0.00000808,0.00000456,-0.00000619,0.00000813,-
 0.00000577,0.00000120,-0.00000379,0.00000227,0.00000372,0.00000243,-0.
 00000077,-0.00000071,-0.00000805,0.00000727,-0.00000025,0.00000599,0.0
 0000128,-0.00000429,-0.00000321,-0.00000463,0.00000011,-0.00001093,0.0
 0001156,-0.00000177,0.00000584,-0.00000639\\\@


 ACHIEVEMENT--  THE MAN WHO ROWS THE BOAT GENERALLY 
                DOESN'T HAVE TIME TO ROCK IT.

                   -- FROM THE BACK OF A SUGAR PACKET
 Job cpu time:       0 days  9 hours 35 minutes  8.9 seconds.
 Elapsed time:       0 days  0 hours 15 minutes 59.5 seconds.
 File lengths (MBytes):  RWF=   1017 Int=      0 D2E=      0 Chk=     35 Scr=      1
 Normal termination of Gaussian 16 at Mon Jul  1 17:45:15 2019.
