 Entering Gaussian System, Link 0=g16
 Initial command:
 /nopt/nrel/apps/gaussian/g16B/g16/l1.exe "/dev/shm/Gau-234142.inp" -scrdir="/dev/shm/"
 Default linda workers: r6i0n0
 Default is to use  36 SMP processors on each worker.
 Entering Link 1 = /nopt/nrel/apps/gaussian/g16B/g16/l1.exe PID=    234144.
  
 Copyright (c) 1988-2017, Gaussian, Inc.  All Rights Reserved.
  
 This is part of the Gaussian(R) 16 program.  It is based on
 the Gaussian(R) 09 system (copyright 2009, Gaussian, Inc.),
 the Gaussian(R) 03 system (copyright 2003, Gaussian, Inc.),
 the Gaussian(R) 98 system (copyright 1998, Gaussian, Inc.),
 the Gaussian(R) 94 system (copyright 1995, Gaussian, Inc.),
 the Gaussian 92(TM) system (copyright 1992, Gaussian, Inc.),
 the Gaussian 90(TM) system (copyright 1990, Gaussian, Inc.),
 the Gaussian 88(TM) system (copyright 1988, Gaussian, Inc.),
 the Gaussian 86(TM) system (copyright 1986, Carnegie Mellon
 University), and the Gaussian 82(TM) system (copyright 1983,
 Carnegie Mellon University). Gaussian is a federally registered
 trademark of Gaussian, Inc.
  
 This software contains proprietary and confidential information,
 including trade secrets, belonging to Gaussian, Inc.
  
 This software is provided under written license and may be
 used, copied, transmitted, or stored only in accord with that
 written license.
  
 The following legend is applicable only to US Government
 contracts under FAR:
  
                    RESTRICTED RIGHTS LEGEND
  
 Use, reproduction and disclosure by the US Government is
 subject to restrictions as set forth in subparagraphs (a)
 and (c) of the Commercial Computer Software - Restricted
 Rights clause in FAR 52.227-19.
  
 Gaussian, Inc.
 340 Quinnipiac St., Bldg. 40, Wallingford CT 06492
  
  
 ---------------------------------------------------------------
 Warning -- This program may not be used in any manner that
 competes with the business of Gaussian, Inc. or will provide
 assistance to any competitor of Gaussian, Inc.  The licensee
 of this program is prohibited from giving any competitor of
 Gaussian, Inc. access to this program.  By using this program,
 the user acknowledges that Gaussian, Inc. is engaged in the
 business of creating and licensing software in the field of
 computational chemistry and represents and warrants to the
 licensee that it is not a competitor of Gaussian, Inc. and that
 it will not use this program in any manner prohibited above.
 ---------------------------------------------------------------
  

 Cite this work as:
 Gaussian 16, Revision B.01,
 M. J. Frisch, G. W. Trucks, H. B. Schlegel, G. E. Scuseria, 
 M. A. Robb, J. R. Cheeseman, G. Scalmani, V. Barone, 
 G. A. Petersson, H. Nakatsuji, X. Li, M. Caricato, A. V. Marenich, 
 J. Bloino, B. G. Janesko, R. Gomperts, B. Mennucci, H. P. Hratchian, 
 J. V. Ortiz, A. F. Izmaylov, J. L. Sonnenberg, D. Williams-Young, 
 F. Ding, F. Lipparini, F. Egidi, J. Goings, B. Peng, A. Petrone, 
 T. Henderson, D. Ranasinghe, V. G. Zakrzewski, J. Gao, N. Rega, 
 G. Zheng, W. Liang, M. Hada, M. Ehara, K. Toyota, R. Fukuda, 
 J. Hasegawa, M. Ishida, T. Nakajima, Y. Honda, O. Kitao, H. Nakai, 
 T. Vreven, K. Throssell, J. A. Montgomery, Jr., J. E. Peralta, 
 F. Ogliaro, M. J. Bearpark, J. J. Heyd, E. N. Brothers, K. N. Kudin, 
 V. N. Staroverov, T. A. Keith, R. Kobayashi, J. Normand, 
 K. Raghavachari, A. P. Rendell, J. C. Burant, S. S. Iyengar, 
 J. Tomasi, M. Cossi, J. M. Millam, M. Klene, C. Adamo, R. Cammi, 
 J. W. Ochterski, R. L. Martin, K. Morokuma, O. Farkas, 
 J. B. Foresman, and D. J. Fox, Gaussian, Inc., Wallingford CT, 2016.
 
 ******************************************
 Gaussian 16:  ES64L-G16RevB.01 20-Dec-2017
                28-Jun-2019 
 ******************************************
 %RWF=/dev/shm/,5GB,/tmp/scratch/920780/,-1
 %NoSave
 %OldChk=pet_mono_901.chk
 %Chk=/dev/shm/pet_mono_901_tzvp.chk
 SetLPE:    new flags="-opt 'Tsnet.Node.lindarsharg: ssh'  -nodelist 'r6i0n0.ib0.cm.hpc.nrel.gov' -env GAUSS_MDEF=9663676416 -env GAUSS_EXEDIR="/nopt/nrel/apps/gaussian/g16B/g16/bsd:/nopt/nrel/apps/gaussian/g16B/g16/local:/nopt/nrel/apps/gaussian/g16B/g16/extras:/nopt/nrel/apps/gaussian/g16B/g16""
 Will use up to    1 processors via Linda.
 Copying data from "pet_mono_901.chk" to current chk file "/dev/shm/pet_mono_901_tzvp.chk"
 IOpt=  2 FromEx=T IUOpen= 4 IOptOp= 5 NList=   0 IFRang= 0 IUIn= 4 IUOut= 2.
 Default route: CacheSize=180224 MaxDisk=256GB
 ----------------------------------------------------------------------
 # geom=allcheck guess=read m062x/Def2TZVP nosymm scf=xqc opt=ReadFC fr
 eq=NoRaman
 ----------------------------------------------------------------------
 1/4=180224,10=3,18=20,19=15,26=3,29=7,38=1/1,3;
 2/4=180224,9=110,12=2,15=1,40=1/2;
 3/4=180224,5=44,7=101,11=2,14=-4,25=1,30=1,71=1,74=-55,116=-2/1,2,3;
 4/4=180224,5=1/1;
 5/4=180224,5=2,8=3,13=1,38=6/2,8;
 6/4=180224,7=2,8=2,9=2,10=2,28=1/1;
 7/4=180224,30=1/1,2,3,16;
 1/4=180224,18=20,19=15,26=3/3(2);
 2/4=180224,9=110,15=1/2;
 99/4=180224/99;
 2/4=180224,9=110,15=1/2;
 3/4=180224,5=44,7=101,11=2,14=-2,25=1,30=1,71=1,74=-55/1,2,3;
 4/4=180224,5=5,16=3,69=1/1;
 5/4=180224,5=2,8=3,13=1,38=5/2,8;
 7/4=180224,30=1/1,2,3,16;
 1/4=180224,18=20,19=15,26=3/3(-5);
 2/4=180224,9=110,15=1/2;
 6/4=180224,7=2,8=2,9=2,10=2,19=2,28=1/1;
 99/4=180224,9=1/99;
 Structure from the checkpoint file:  "/dev/shm/pet_mono_901_tzvp.chk"
 --------------------------
 narrow results from confab
 --------------------------
 Charge =  0 Multiplicity = 1
 Redundant internal coordinates found in file.  (old form).
 O,0,2.4771356602,3.6333349641,-1.2453936572
 H,0,2.1274422565,4.2137872156,-0.5541499585
 C,0,-0.4537487599,2.1555768531,5.0164887702
 H,0,-0.612952195,1.2639699782,5.6236630717
 C,0,0.3790783782,2.1367252013,3.903695506
 H,0,0.8979167162,1.2256474606,3.6078853854
 O,0,1.620721553,4.335925645,1.290076988
 C,0,2.9411322398,2.0875541204,0.6056099182
 H,0,3.3388765268,1.0700377699,0.6918259544
 H,0,3.7510280631,2.8122210233,0.782166629
 C,0,2.3531590033,2.3253900482,-0.7844801845
 H,0,2.9027420016,1.6860662441,-1.491764815
 H,0,1.3056106056,1.9615259415,-0.7765303304
 C,0,0.5526115563,3.3039098816,3.1525718848
 C,0,1.4357264388,3.3393031715,1.9479522335
 O,0,-2.5439840474,4.4851222397,6.8484457137
 C,0,-1.1089718397,3.3365049756,5.3771748932
 C,0,-1.9908494769,3.299541168,6.5836208977
 O,0,1.9911303619,2.1646605205,1.6783987806
 C,0,-0.1035266231,4.4847139448,3.5125082421
 H,0,0.0532451063,5.3763474566,2.9046945775
 C,0,-0.935487002,4.5033321736,4.6260692936
 H,0,-1.4564544586,5.4134293013,4.9207136079
 O,0,-2.1658530533,2.3112216029,7.2514216109
 C,0,-4.8399460389,4.1818627759,7.5681200568
 H,0,-5.219627329,4.9208637078,6.8465129781
 H,0,-5.4716232651,4.2545373658,8.4750606294
 C,0,-3.4231018839,4.5557669907,7.9688626352
 H,0,-3.0471091949,3.8906427194,8.7599371789
 H,0,-3.3843685444,5.5935693514,8.3229633238
 O,0,-4.9229987242,2.9307852803,6.9520926034
 H,0,-4.3409540313,2.3131229073,7.4137855815
 Recover connectivity data from disk.

 GradGradGradGradGradGradGradGradGradGradGradGradGradGradGradGradGradGrad
 Berny optimization.
 Initialization pass.
 Force constant matrix read from checkpoint file:
 "/dev/shm/pet_mono_901_tzvp.chk"
                           ----------------------------
                           !    Initial Parameters    !
                           ! (Angstroms and Degrees)  !
 --------------------------                            --------------------------
 ! Name  Definition              Value          Derivative Info.                !
 --------------------------------------------------------------------------------
 ! R1    R(1,2)                  0.968          D2E/DX2 =    0.5537             !
 ! R2    R(1,11)                 1.3923         D2E/DX2 =    0.4578             !
 ! R3    R(3,4)                  1.0904         D2E/DX2 =    0.3614             !
 ! R4    R(3,5)                  1.3901         D2E/DX2 =    0.4857             !
 ! R5    R(3,17)                 1.3979         D2E/DX2 =    0.4703             !
 ! R6    R(5,6)                  1.0894         D2E/DX2 =    0.3591             !
 ! R7    R(5,14)                 1.3988         D2E/DX2 =    0.4773             !
 ! R8    R(7,15)                 1.2084         D2E/DX2 =    1.0451             !
 ! R9    R(8,9)                  1.0959         D2E/DX2 =    0.3481             !
 ! R10   R(8,10)                 1.101          D2E/DX2 =    0.3469             !
 ! R11   R(8,11)                 1.5279         D2E/DX2 =    0.3288             !
 ! R12   R(8,19)                 1.435          D2E/DX2 =    0.4477             !
 ! R13   R(11,12)                1.1005         D2E/DX2 =    0.3484             !
 ! R14   R(11,13)                1.109          D2E/DX2 =    0.3438             !
 ! R15   R(14,15)                1.4941         D2E/DX2 =    0.3624             !
 ! R16   R(14,20)                1.398          D2E/DX2 =    0.4703             !
 ! R17   R(15,19)                1.327          D2E/DX2 =    0.5761             !
 ! R18   R(16,18)                1.3348         D2E/DX2 =    0.5819             !
 ! R19   R(16,28)                1.4259         D2E/DX2 =    0.4386             !
 ! R20   R(17,18)                1.4949         D2E/DX2 =    0.3421             !
 ! R21   R(17,22)                1.3985         D2E/DX2 =    0.4774             !
 ! R22   R(18,24)                1.2056         D2E/DX2 =    1.0424             !
 ! R23   R(20,21)                1.0904         D2E/DX2 =    0.3598             !
 ! R24   R(20,22)                1.3902         D2E/DX2 =    0.4872             !
 ! R25   R(22,23)                1.0893         D2E/DX2 =    0.3579             !
 ! R26   R(25,26)                1.1005         D2E/DX2 =    0.351              !
 ! R27   R(25,27)                1.1076         D2E/DX2 =    0.3427             !
 ! R28   R(25,28)                1.5192         D2E/DX2 =    0.3334             !
 ! R29   R(25,31)                1.397          D2E/DX2 =    0.4413             !
 ! R30   R(28,29)                1.0998         D2E/DX2 =    0.3512             !
 ! R31   R(28,30)                1.0972         D2E/DX2 =    0.3449             !
 ! R32   R(31,32)                0.9661         D2E/DX2 =    0.5523             !
 ! A1    A(2,1,11)             107.1421         D2E/DX2 =    0.1838             !
 ! A2    A(4,3,5)              121.4769         D2E/DX2 =    0.1601             !
 ! A3    A(4,3,17)             118.5991         D2E/DX2 =    0.1601             !
 ! A4    A(5,3,17)             119.924          D2E/DX2 =    0.2503             !
 ! A5    A(3,5,6)              120.935          D2E/DX2 =    0.1609             !
 ! A6    A(3,5,14)             119.5303         D2E/DX2 =    0.2501             !
 ! A7    A(6,5,14)             119.5347         D2E/DX2 =    0.16               !
 ! A8    A(9,8,10)             109.3609         D2E/DX2 =    0.1579             !
 ! A9    A(9,8,11)             110.8402         D2E/DX2 =    0.1695             !
 ! A10   A(9,8,19)             103.3763         D2E/DX2 =    0.1651             !
 ! A11   A(10,8,11)            109.0566         D2E/DX2 =    0.1649             !
 ! A12   A(10,8,19)            109.3732         D2E/DX2 =    0.1695             !
 ! A13   A(11,8,19)            114.6459         D2E/DX2 =    0.3483             !
 ! A14   A(1,11,8)             114.4018         D2E/DX2 =    0.2679             !
 ! A15   A(1,11,12)            106.7694         D2E/DX2 =    0.1599             !
 ! A16   A(1,11,13)            113.2481         D2E/DX2 =    0.158              !
 ! A17   A(8,11,12)            107.5847         D2E/DX2 =    0.1543             !
 ! A18   A(8,11,13)            107.8125         D2E/DX2 =    0.1591             !
 ! A19   A(12,11,13)           106.603          D2E/DX2 =    0.1572             !
 ! A20   A(5,14,15)            121.7386         D2E/DX2 =    0.2513             !
 ! A21   A(5,14,20)            120.5513         D2E/DX2 =    0.2527             !
 ! A22   A(15,14,20)           117.7101         D2E/DX2 =    0.2507             !
 ! A23   A(7,15,14)            123.2959         D2E/DX2 =    0.2647             !
 ! A24   A(7,15,19)            123.7371         D2E/DX2 =    0.34               !
 ! A25   A(14,15,19)           112.9669         D2E/DX2 =    0.2898             !
 ! A26   A(18,16,28)           117.0901         D2E/DX2 =    0.4222             !
 ! A27   A(3,17,18)            117.6379         D2E/DX2 =    0.2599             !
 ! A28   A(3,17,22)            120.5402         D2E/DX2 =    0.2513             !
 ! A29   A(18,17,22)           121.8219         D2E/DX2 =    0.2559             !
 ! A30   A(16,18,17)           112.4966         D2E/DX2 =    0.2614             !
 ! A31   A(16,18,24)           123.9246         D2E/DX2 =    0.2954             !
 ! A32   A(17,18,24)           123.5713         D2E/DX2 =    0.2637             !
 ! A33   A(8,19,15)            118.4567         D2E/DX2 =    0.629              !
 ! A34   A(14,20,21)           118.6637         D2E/DX2 =    0.16               !
 ! A35   A(14,20,22)           119.8969         D2E/DX2 =    0.2509             !
 ! A36   A(21,20,22)           121.4394         D2E/DX2 =    0.1603             !
 ! A37   A(17,22,20)           119.5573         D2E/DX2 =    0.2501             !
 ! A38   A(17,22,23)           119.5052         D2E/DX2 =    0.1604             !
 ! A39   A(20,22,23)           120.9373         D2E/DX2 =    0.1602             !
 ! A40   A(26,25,27)           107.2234         D2E/DX2 =    0.1602             !
 ! A41   A(26,25,28)           109.2372         D2E/DX2 =    0.1586             !
 ! A42   A(26,25,31)           106.9616         D2E/DX2 =    0.1641             !
 ! A43   A(27,25,28)           107.4421         D2E/DX2 =    0.1628             !
 ! A44   A(27,25,31)           112.7012         D2E/DX2 =    0.1646             !
 ! A45   A(28,25,31)           113.0908         D2E/DX2 =    0.2813             !
 ! A46   A(16,28,25)           110.8266         D2E/DX2 =    0.2897             !
 ! A47   A(16,28,29)           108.9323         D2E/DX2 =    0.1601             !
 ! A48   A(16,28,30)           106.1814         D2E/DX2 =    0.1551             !
 ! A49   A(25,28,29)           111.0844         D2E/DX2 =    0.1507             !
 ! A50   A(25,28,30)           110.5393         D2E/DX2 =    0.1701             !
 ! A51   A(29,28,30)           109.1361         D2E/DX2 =    0.1603             !
 ! A52   A(25,31,32)           109.0255         D2E/DX2 =    0.1635             !
 ! D1    D(2,1,11,8)           -51.7219         D2E/DX2 =    0.0172             !
 ! D2    D(2,1,11,12)         -170.6158         D2E/DX2 =    0.0168             !
 ! D3    D(2,1,11,13)           72.3673         D2E/DX2 =    0.0174             !
 ! D4    D(4,3,5,6)             -0.0415         D2E/DX2 =    0.023              !
 ! D5    D(4,3,5,14)           179.9122         D2E/DX2 =    0.023              !
 ! D6    D(17,3,5,6)           179.9854         D2E/DX2 =    0.023              !
 ! D7    D(17,3,5,14)           -0.0608         D2E/DX2 =    0.0231             !
 ! D8    D(4,3,17,18)            0.1006         D2E/DX2 =    0.0219             !
 ! D9    D(4,3,17,22)         -179.9067         D2E/DX2 =    0.0219             !
 ! D10   D(5,3,17,18)         -179.9256         D2E/DX2 =    0.022              !
 ! D11   D(5,3,17,22)            0.0671         D2E/DX2 =    0.0219             !
 ! D12   D(3,5,14,15)         -179.998          D2E/DX2 =    0.022              !
 ! D13   D(3,5,14,20)            0.0054         D2E/DX2 =    0.0221             !
 ! D14   D(6,5,14,15)           -0.0436         D2E/DX2 =    0.022              !
 ! D15   D(6,5,14,20)          179.9597         D2E/DX2 =    0.0221             !
 ! D16   D(9,8,11,1)          -147.6468         D2E/DX2 =    0.0123             !
 ! D17   D(9,8,11,12)          -29.214          D2E/DX2 =    0.0102             !
 ! D18   D(9,8,11,13)           85.4104         D2E/DX2 =    0.0087             !
 ! D19   D(10,8,11,1)          -27.1967         D2E/DX2 =    0.0072             !
 ! D20   D(10,8,11,12)          91.2361         D2E/DX2 =    0.0082             !
 ! D21   D(10,8,11,13)        -154.1396         D2E/DX2 =    0.0129             !
 ! D22   D(19,8,11,1)           95.8016         D2E/DX2 =    0.0271             !
 ! D23   D(19,8,11,12)        -145.7656         D2E/DX2 =    0.0156             !
 ! D24   D(19,8,11,13)         -31.1412         D2E/DX2 =    0.0095             !
 ! D25   D(9,8,19,15)          172.2806         D2E/DX2 =    0.0184             !
 ! D26   D(10,8,19,15)          55.8682         D2E/DX2 =    0.0114             !
 ! D27   D(11,8,19,15)         -66.9597         D2E/DX2 =    0.0372             !
 ! D28   D(5,14,15,7)         -178.9189         D2E/DX2 =    0.0185             !
 ! D29   D(5,14,15,19)           1.1524         D2E/DX2 =    0.0171             !
 ! D30   D(20,14,15,7)           1.0778         D2E/DX2 =    0.0194             !
 ! D31   D(20,14,15,19)       -178.8509         D2E/DX2 =    0.0162             !
 ! D32   D(5,14,20,21)        -179.9508         D2E/DX2 =    0.022              !
 ! D33   D(5,14,20,22)           0.0448         D2E/DX2 =    0.0221             !
 ! D34   D(15,14,20,21)          0.0524         D2E/DX2 =    0.022              !
 ! D35   D(15,14,20,22)       -179.952          D2E/DX2 =    0.0221             !
 ! D36   D(7,15,19,8)            4.7075         D2E/DX2 =    0.0316             !
 ! D37   D(14,15,19,8)        -175.3642         D2E/DX2 =    0.03               !
 ! D38   D(28,16,18,17)        178.9949         D2E/DX2 =    0.032              !
 ! D39   D(28,16,18,24)         -1.9721         D2E/DX2 =    0.0359             !
 ! D40   D(18,16,28,25)        -86.8053         D2E/DX2 =    0.0441             !
 ! D41   D(18,16,28,29)         35.7003         D2E/DX2 =    0.0166             !
 ! D42   D(18,16,28,30)        153.1125         D2E/DX2 =    0.0286             !
 ! D43   D(3,17,18,16)         178.824          D2E/DX2 =    0.0182             !
 ! D44   D(3,17,18,24)          -0.213          D2E/DX2 =    0.0213             !
 ! D45   D(22,17,18,16)         -1.1686         D2E/DX2 =    0.0193             !
 ! D46   D(22,17,18,24)        179.7944         D2E/DX2 =    0.0198             !
 ! D47   D(3,17,22,20)          -0.0168         D2E/DX2 =    0.0221             !
 ! D48   D(3,17,22,23)         179.8286         D2E/DX2 =    0.0221             !
 ! D49   D(18,17,22,20)        179.9756         D2E/DX2 =    0.022              !
 ! D50   D(18,17,22,23)         -0.179          D2E/DX2 =    0.022              !
 ! D51   D(14,20,22,17)         -0.0388         D2E/DX2 =    0.0231             !
 ! D52   D(14,20,22,23)       -179.882          D2E/DX2 =    0.0232             !
 ! D53   D(21,20,22,17)        179.9567         D2E/DX2 =    0.0231             !
 ! D54   D(21,20,22,23)          0.1136         D2E/DX2 =    0.0231             !
 ! D55   D(26,25,28,16)        -64.032          D2E/DX2 =    0.0077             !
 ! D56   D(26,25,28,29)        174.7227         D2E/DX2 =    0.0092             !
 ! D57   D(26,25,28,30)         53.4147         D2E/DX2 =    0.0081             !
 ! D58   D(27,25,28,16)        179.9684         D2E/DX2 =    0.0119             !
 ! D59   D(27,25,28,29)         58.7231         D2E/DX2 =    0.0069             !
 ! D60   D(27,25,28,30)        -62.5849         D2E/DX2 =    0.0071             !
 ! D61   D(31,25,28,16)         54.9591         D2E/DX2 =    0.0162             !
 ! D62   D(31,25,28,29)        -66.2862         D2E/DX2 =    0.0085             !
 ! D63   D(31,25,28,30)        172.4058         D2E/DX2 =    0.0074             !
 ! D64   D(26,25,31,32)        161.0867         D2E/DX2 =    0.0174             !
 ! D65   D(27,25,31,32)        -81.3227         D2E/DX2 =    0.0182             !
 ! D66   D(28,25,31,32)         40.7886         D2E/DX2 =    0.0143             !
 --------------------------------------------------------------------------------
 Trust Radius=3.00D-01 FncErr=1.00D-07 GrdErr=1.00D-06 EigMax=2.50D+02 EigMin=1.00D-04
 Number of steps in this run=    160 maximum allowed number of steps=    192.
 GradGradGradGradGradGradGradGradGradGradGradGradGradGradGradGradGradGrad

                          Input orientation:                          
 ---------------------------------------------------------------------
 Center     Atomic      Atomic             Coordinates (Angstroms)
 Number     Number       Type             X           Y           Z
 ---------------------------------------------------------------------
      1          8           0        2.477136    3.633335   -1.245394
      2          1           0        2.127442    4.213787   -0.554150
      3          6           0       -0.453749    2.155577    5.016489
      4          1           0       -0.612952    1.263970    5.623663
      5          6           0        0.379078    2.136725    3.903696
      6          1           0        0.897917    1.225647    3.607885
      7          8           0        1.620722    4.335926    1.290077
      8          6           0        2.941132    2.087554    0.605610
      9          1           0        3.338877    1.070038    0.691826
     10          1           0        3.751028    2.812221    0.782167
     11          6           0        2.353159    2.325390   -0.784480
     12          1           0        2.902742    1.686066   -1.491765
     13          1           0        1.305611    1.961526   -0.776530
     14          6           0        0.552612    3.303910    3.152572
     15          6           0        1.435726    3.339303    1.947952
     16          8           0       -2.543984    4.485122    6.848446
     17          6           0       -1.108972    3.336505    5.377175
     18          6           0       -1.990849    3.299541    6.583621
     19          8           0        1.991130    2.164661    1.678399
     20          6           0       -0.103527    4.484714    3.512508
     21          1           0        0.053245    5.376347    2.904695
     22          6           0       -0.935487    4.503332    4.626069
     23          1           0       -1.456454    5.413429    4.920714
     24          8           0       -2.165853    2.311222    7.251422
     25          6           0       -4.839946    4.181863    7.568120
     26          1           0       -5.219627    4.920864    6.846513
     27          1           0       -5.471623    4.254537    8.475061
     28          6           0       -3.423102    4.555767    7.968863
     29          1           0       -3.047109    3.890643    8.759937
     30          1           0       -3.384369    5.593569    8.322963
     31          8           0       -4.922999    2.930785    6.952093
     32          1           0       -4.340954    2.313123    7.413786
 ---------------------------------------------------------------------
                    Distance matrix (angstroms):
                    1          2          3          4          5
     1  O    0.000000
     2  H    0.968002   0.000000
     3  C    7.070009   6.475399   0.000000
     4  H    7.895978   7.374046   1.090399   0.000000
     5  C    5.758021   5.219516   1.390059   2.168897   0.000000
     6  H    5.643156   5.269084   2.162390   2.519435   1.089385
     7  O    2.766892   1.916470   4.789937   5.762480   3.634441
     8  C    2.455798   2.554995   5.566480   6.204084   4.176590
     9  H    3.326546   3.592101   5.853641   6.322782   4.496035
    10  H    2.531409   2.527085   6.003400   6.699365   4.644382
    11  C    1.392312   1.915736   6.446612   7.140639   5.090342
    12  H    2.008406   2.805278   7.337836   7.947804   5.973522
    13  H    2.094576   2.407808   6.057398   6.717882   4.774272
    14  C    4.811903   4.128893   2.409485   3.409719   1.398793
    15  C    3.371713   2.739290   3.793052   4.692008   2.527376
    16  O    9.562814   8.757526   3.626559   3.950291   4.767685
    17  C    7.537021   6.813561   1.397857   2.145272   2.413484
    18  C    9.020409   8.291197   2.475325   2.638877   3.761742
    19  O    3.307834   3.033443   4.137676   4.812234   2.747988
    20  C    5.479260   4.646325   2.794547   3.884544   2.428783
    21  H    5.112394   4.197314   3.884595   4.974762   3.405778
    22  C    6.846676   6.024952   2.428262   3.404804   2.801916
    23  H    7.527466   6.652638   3.410014   4.292278   3.891053
    24  O    9.772471   9.109286   2.819654   2.481499   4.208847
    25  C   11.468156  10.701252   5.464008   5.492039   6.696925
    26  H   11.241746  10.452234   5.805980   6.007469   6.910652
    27  H   12.572028  11.801445   6.445651   6.378138   7.720960
    28  C   10.980264  10.176799   4.826436   4.922685   6.069096
    29  H   11.431979  10.659860   4.873333   4.760330   6.196618
    30  H   11.390926  10.539782   5.598312   5.806238   6.755978
    31  O   11.065909  10.377788   4.931704   4.808274   6.167275
    32  H   11.100031  10.437465   4.569707   4.266528   5.884773
                    6          7          8          9         10
     6  H    0.000000
     7  O    3.945696   0.000000
     8  C    3.732462   2.695766   0.000000
     9  H    3.806035   3.738447   1.095889   0.000000
    10  H    4.317655   2.667931   1.101020   1.792549   0.000000
    11  C    4.756053   2.980353   1.527949   2.174173   2.155325
    12  H    5.498886   4.050182   2.135801   2.310362   2.675552
    13  H    4.464396   3.163532   2.145023   2.661765   3.022133
    14  C    2.155393   2.382184   3.697508   4.336903   4.011290
    15  C    2.740832   1.208420   2.373817   3.217048   2.645278
    16  O    5.742133   6.947121   8.649152   9.174684   8.900872
    17  C    3.407889   5.015420   6.382088   6.846366   6.708843
    18  C    4.636918   6.491467   7.844104   8.251661   8.177011
    19  O    2.408273   2.236602   1.435035   1.996984   2.078414
    20  C    3.410792   2.816801   4.844211   5.609492   5.010947
    21  H    4.293746   2.479203   4.943869   5.851193   4.975286
    22  C    3.891180   4.206076   6.085085   6.748034   6.292763
    23  H    4.980371   4.879708   7.001452   7.729407   7.142250
    24  O    4.882675   7.346782   8.384399   8.652796   8.781329
    25  C    7.572697   9.009872  10.649312  11.129241  11.033128
    26  H    7.846507   8.832129  10.657134  11.223058  11.031561
    27  H    8.569400  10.096136  11.721712  12.179683  12.096206
    28  C    6.984198   8.372256  10.040570  10.527579  10.303237
    29  H    7.014917   8.819622  10.276343  10.669163  10.536721
    30  H    7.723255   8.723192  10.576467  11.130976  10.747716
    31  O    6.926346   8.766591  10.140682  10.531472  10.645224
    32  H    6.566068   8.782546   9.971505  10.281527  10.474142
                   11         12         13         14         15
    11  C    0.000000
    12  H    1.100467   0.000000
    13  H    1.108972   1.771515   0.000000
    14  C    4.438451   5.450724   4.219816   0.000000
    15  C    3.055469   4.088640   3.055815   1.494073   0.000000
    16  O    9.322447  10.347012   8.906637   4.964237   6.416061
    17  C    7.139657   8.124046   6.751953   2.776829   4.270254
    18  C    8.608617   9.579269   8.174886   4.270985   5.764757
    19  O    2.494528   3.333170   2.556927   2.353808   1.326996
    20  C    5.400194   6.474012   5.171847   1.397988   2.475702
    21  H    5.311116   6.408328   5.175021   2.146115   2.641242
    22  C    6.695720   7.752218   6.377412   2.413347   3.761639
    23  H    7.523189   8.603238   7.211326   3.407748   4.637243
    24  O    9.219403  10.125452   8.753363   5.017574   6.492697
    25  C   11.178246  12.176195  10.598630   7.024781   8.466419
    26  H   11.059640  12.081543  10.461702   7.041199   8.413737
    27  H   12.275501  13.268935  11.695330   8.094689   9.547370
    28  C   10.721977  11.736906  10.274858   6.369466   7.831945
    29  H   11.077401  12.056462  10.658887   6.689155   8.173306
    30  H   11.249255  12.293300  10.862248   6.890232   8.303963
    31  O   10.637835  11.579735   9.973297   6.675169   8.101956
    32  H   10.584085  11.496659   9.954325   6.564037   8.018629
                   16         17         18         19         20
    16  O    0.000000
    17  C    2.354404   0.000000
    18  C    1.334801   1.494853   0.000000
    19  O    7.258181   4.966367   6.419137   0.000000
    20  C    4.133317   2.409624   3.794516   3.624113   0.000000
    21  H    4.805523   3.409526   4.693181   3.946408   1.090424
    22  C    2.743456   1.398479   2.528816   4.766890   1.390152
    23  H    2.400130   2.154696   2.742145   5.740466   2.162399
    24  O    2.243037   2.383486   1.205554   6.954177   4.791318
    25  C    2.425147   4.408519   3.140873   9.242377   6.242866
    26  H    2.710893   4.643989   3.622541   9.289838   6.122116
    27  H    3.357099   5.428850   4.074966  10.308001   7.314121
    28  C    1.425894   3.682206   2.355493   8.637201   5.557313
    29  H    2.064059   3.937833   2.490269   8.860647   6.045917
    30  H    2.027092   4.353095   3.198402   9.208889   5.927391
    31  O    2.843663   4.146297   2.978129   8.729489   6.121499
    32  H    2.875116   3.954845   2.680520   8.544706   6.155612
                   21         22         23         24         25
    21  H    0.000000
    22  C    2.168612   0.000000
    23  H    2.518909   1.089265   0.000000
    24  O    5.763109   3.634780   3.944507   0.000000
    25  C    6.864230   4.899368   4.469176   3.278776   0.000000
    26  H    6.599135   4.843404   4.255913   4.037291   1.100453
    27  H    7.925377   5.954256   5.486164   4.025157   1.107628
    28  C    6.197107   4.167163   3.727533   2.670839   1.519160
    29  H    6.789947   4.682222   4.425912   2.355165   2.172441
    30  H    6.420437   4.566472   3.914666   3.661528   2.163657
    31  O    6.864780   4.876837   4.723024   2.841709   1.396991
    32  H    7.001731   4.915850   4.914025   2.181153   1.940361
                   26         27         28         29         30
    26  H    0.000000
    27  H    1.777543   0.000000
    28  C    2.149527   2.131529   0.000000
    29  H    3.072846   2.468166   1.099800   0.000000
    30  H    2.449615   2.484506   1.097233   1.790153   0.000000
    31  O    2.014832   2.091110   2.433943   2.776435   3.367059
    32  H    2.809658   2.484715   2.485964   2.444326   3.535957
                   31         32
    31  O    0.000000
    32  H    0.966149   0.000000
 Symmetry turned off by external request.
 Stoichiometry    C12H14O6
 Framework group  C1[X(C12H14O6)]
 Deg. of freedom    90
 Full point group                 C1      NOp   1
 Rotational constants (GHZ):           1.4597083           0.1347277           0.1304152
 Standard basis: def2TZVP (5D, 7F)
   642 basis functions,  1030 primitive gaussians,   732 cartesian basis functions
    67 alpha electrons       67 beta electrons
       nuclear repulsion energy      1279.8065673789 Hartrees.
 NAtoms=   32 NActive=   32 NUniq=   32 SFac= 1.00D+00 NAtFMM=   60 NAOKFM=F Big=F
 Integral buffers will be    131072 words long.
 Raffenetti 2 integral format.
 Two-electron integral symmetry is turned off.
 One-electron integrals computed using PRISM.
   1 Symmetry operations used in ECPInt.
 ECPInt:  NShTT=   32385 NPrTT=   99228 LenC2=   26215 LenP2D=   57714.
 LDataN:  DoStor=T MaxTD1= 6 Len=  172
 NBasis=   642 RedAO= T EigKep=  7.56D-06  NBF=   642
 NBsUse=   642 1.00D-06 EigRej= -1.00D+00 NBFU=   642
 Initial guess from the checkpoint file:  "/dev/shm/pet_mono_901_tzvp.chk"
 B after Tr=     0.000000    0.000000    0.000000
         Rot=    1.000000    0.000000    0.000000    0.000000 Ang=   0.00 deg.
 Requested convergence on RMS density matrix=1.00D-08 within  32 cycles.
 Requested convergence on MAX density matrix=1.00D-06.
 Requested convergence on             energy=1.00D-06.
 No special actions if energy rises.
 SCF Done:  E(RM062X) =  -917.070234879     A.U. after   12 cycles
            NFock= 12  Conv=0.46D-08     -V/T= 2.0047
 QCSCF skips out because SCF is already converged.

 **********************************************************************

            Population analysis using the SCF Density.

 **********************************************************************

 Alpha  occ. eigenvalues --  -19.69121 -19.68960 -19.63767 -19.63195 -19.62659
 Alpha  occ. eigenvalues --  -19.61041 -10.69657 -10.69296 -10.61038 -10.60872
 Alpha  occ. eigenvalues --  -10.59665 -10.59043 -10.58175 -10.58094 -10.57198
 Alpha  occ. eigenvalues --  -10.57142 -10.57007 -10.56960  -1.26197  -1.25926
 Alpha  occ. eigenvalues --   -1.16605  -1.16378  -1.15349  -1.14227  -0.99366
 Alpha  occ. eigenvalues --   -0.91186  -0.87843  -0.87107  -0.85605  -0.78606
 Alpha  occ. eigenvalues --   -0.75664  -0.73043  -0.70988  -0.67314  -0.65745
 Alpha  occ. eigenvalues --   -0.64548  -0.62814  -0.60701  -0.60255  -0.59740
 Alpha  occ. eigenvalues --   -0.59143  -0.55952  -0.55091  -0.54631  -0.54236
 Alpha  occ. eigenvalues --   -0.53725  -0.52599  -0.51432  -0.51207  -0.49795
 Alpha  occ. eigenvalues --   -0.49309  -0.47591  -0.46419  -0.45891  -0.45090
 Alpha  occ. eigenvalues --   -0.43962  -0.43714  -0.42437  -0.42223  -0.39234
 Alpha  occ. eigenvalues --   -0.38926  -0.37629  -0.37518  -0.35393  -0.34594
 Alpha  occ. eigenvalues --   -0.33659  -0.33355
 Alpha virt. eigenvalues --   -0.05647  -0.00129   0.03528   0.06567   0.07253
 Alpha virt. eigenvalues --    0.08814   0.09458   0.09970   0.10317   0.10809
 Alpha virt. eigenvalues --    0.11143   0.11333   0.11896   0.12565   0.13240
 Alpha virt. eigenvalues --    0.13699   0.14156   0.14543   0.14746   0.15702
 Alpha virt. eigenvalues --    0.15998   0.16824   0.18349   0.18792   0.19343
 Alpha virt. eigenvalues --    0.20988   0.21397   0.22144   0.22917   0.23543
 Alpha virt. eigenvalues --    0.23736   0.24599   0.24739   0.26102   0.26371
 Alpha virt. eigenvalues --    0.26848   0.27081   0.27503   0.28812   0.29402
 Alpha virt. eigenvalues --    0.29952   0.30962   0.31657   0.32498   0.32830
 Alpha virt. eigenvalues --    0.33994   0.34815   0.35670   0.35854   0.36229
 Alpha virt. eigenvalues --    0.36965   0.37591   0.37851   0.38615   0.38802
 Alpha virt. eigenvalues --    0.39172   0.39356   0.39470   0.39981   0.40187
 Alpha virt. eigenvalues --    0.41392   0.42017   0.42242   0.42572   0.43226
 Alpha virt. eigenvalues --    0.43685   0.44050   0.44834   0.45341   0.45879
 Alpha virt. eigenvalues --    0.46219   0.46607   0.47500   0.47854   0.48598
 Alpha virt. eigenvalues --    0.49017   0.49464   0.49823   0.50241   0.51126
 Alpha virt. eigenvalues --    0.51367   0.52972   0.53459   0.54220   0.54587
 Alpha virt. eigenvalues --    0.54988   0.55152   0.56224   0.57511   0.57909
 Alpha virt. eigenvalues --    0.58480   0.59796   0.60871   0.62248   0.63247
 Alpha virt. eigenvalues --    0.64217   0.65424   0.65890   0.66597   0.66753
 Alpha virt. eigenvalues --    0.67850   0.68973   0.69198   0.69587   0.70588
 Alpha virt. eigenvalues --    0.71244   0.72135   0.72609   0.73094   0.73803
 Alpha virt. eigenvalues --    0.74765   0.75514   0.75869   0.76622   0.77428
 Alpha virt. eigenvalues --    0.78639   0.78911   0.79774   0.80185   0.80872
 Alpha virt. eigenvalues --    0.81926   0.83672   0.85311   0.87005   0.87307
 Alpha virt. eigenvalues --    0.88189   0.88374   0.89011   0.89583   0.90260
 Alpha virt. eigenvalues --    0.90782   0.91240   0.92523   0.93264   0.94303
 Alpha virt. eigenvalues --    0.95265   0.96017   0.97343   0.98306   0.99494
 Alpha virt. eigenvalues --    1.00107   1.00759   1.02151   1.02734   1.03579
 Alpha virt. eigenvalues --    1.04782   1.07255   1.07981   1.08880   1.10461
 Alpha virt. eigenvalues --    1.11576   1.11818   1.12199   1.12821   1.13980
 Alpha virt. eigenvalues --    1.15247   1.16888   1.17187   1.18345   1.18839
 Alpha virt. eigenvalues --    1.20167   1.22904   1.24622   1.25153   1.25614
 Alpha virt. eigenvalues --    1.26079   1.27664   1.30494   1.30804   1.31248
 Alpha virt. eigenvalues --    1.31977   1.32482   1.34303   1.36383   1.37419
 Alpha virt. eigenvalues --    1.40684   1.41817   1.42288   1.42600   1.44819
 Alpha virt. eigenvalues --    1.45625   1.48684   1.49202   1.50624   1.51265
 Alpha virt. eigenvalues --    1.51944   1.52317   1.53323   1.54267   1.54487
 Alpha virt. eigenvalues --    1.55122   1.55655   1.56582   1.58167   1.58812
 Alpha virt. eigenvalues --    1.59644   1.60392   1.60989   1.61702   1.61991
 Alpha virt. eigenvalues --    1.62797   1.62960   1.64649   1.65030   1.66412
 Alpha virt. eigenvalues --    1.67740   1.69355   1.69955   1.71891   1.72265
 Alpha virt. eigenvalues --    1.73755   1.73931   1.74427   1.74512   1.76377
 Alpha virt. eigenvalues --    1.76965   1.77877   1.79244   1.81567   1.83056
 Alpha virt. eigenvalues --    1.83585   1.84402   1.85007   1.85869   1.87121
 Alpha virt. eigenvalues --    1.88153   1.88999   1.89342   1.90738   1.91098
 Alpha virt. eigenvalues --    1.92079   1.93074   1.93955   1.95264   1.97206
 Alpha virt. eigenvalues --    1.98286   1.99533   2.00524   2.01849   2.02757
 Alpha virt. eigenvalues --    2.04202   2.04659   2.04848   2.05497   2.06680
 Alpha virt. eigenvalues --    2.07091   2.08816   2.10476   2.13319   2.15090
 Alpha virt. eigenvalues --    2.15734   2.16294   2.17063   2.17764   2.18588
 Alpha virt. eigenvalues --    2.20128   2.21466   2.23443   2.24975   2.25765
 Alpha virt. eigenvalues --    2.27432   2.28471   2.29343   2.30128   2.31248
 Alpha virt. eigenvalues --    2.31747   2.32643   2.33136   2.33351   2.33771
 Alpha virt. eigenvalues --    2.35242   2.36062   2.36943   2.37779   2.38221
 Alpha virt. eigenvalues --    2.40379   2.40698   2.41673   2.42006   2.45099
 Alpha virt. eigenvalues --    2.46878   2.47723   2.48858   2.49875   2.50684
 Alpha virt. eigenvalues --    2.51550   2.54040   2.54368   2.55203   2.56027
 Alpha virt. eigenvalues --    2.56646   2.58049   2.58562   2.59089   2.59758
 Alpha virt. eigenvalues --    2.60570   2.61504   2.62825   2.64256   2.65324
 Alpha virt. eigenvalues --    2.66056   2.66886   2.67605   2.68217   2.69857
 Alpha virt. eigenvalues --    2.70113   2.70776   2.71919   2.72679   2.72926
 Alpha virt. eigenvalues --    2.73422   2.75050   2.76802   2.77314   2.78056
 Alpha virt. eigenvalues --    2.79455   2.82136   2.83111   2.83655   2.84140
 Alpha virt. eigenvalues --    2.84706   2.85280   2.87295   2.88183   2.88406
 Alpha virt. eigenvalues --    2.90120   2.90415   2.91137   2.93063   2.93707
 Alpha virt. eigenvalues --    2.94325   2.95672   2.96875   2.97267   2.97589
 Alpha virt. eigenvalues --    2.98552   2.99901   3.00439   3.00858   3.03079
 Alpha virt. eigenvalues --    3.03619   3.03801   3.04609   3.05499   3.07258
 Alpha virt. eigenvalues --    3.08378   3.09849   3.10214   3.11084   3.11445
 Alpha virt. eigenvalues --    3.12322   3.12695   3.13362   3.13805   3.14474
 Alpha virt. eigenvalues --    3.15895   3.16825   3.18458   3.18573   3.20141
 Alpha virt. eigenvalues --    3.20301   3.21597   3.21855   3.22818   3.22901
 Alpha virt. eigenvalues --    3.23998   3.24802   3.25652   3.26021   3.27633
 Alpha virt. eigenvalues --    3.28321   3.28813   3.29779   3.30297   3.30578
 Alpha virt. eigenvalues --    3.31875   3.32962   3.34236   3.34827   3.35234
 Alpha virt. eigenvalues --    3.35916   3.36422   3.37008   3.38692   3.38971
 Alpha virt. eigenvalues --    3.39359   3.39646   3.39710   3.41295   3.43142
 Alpha virt. eigenvalues --    3.43374   3.44836   3.45578   3.46115   3.47679
 Alpha virt. eigenvalues --    3.48670   3.48908   3.50516   3.50856   3.52466
 Alpha virt. eigenvalues --    3.53577   3.53888   3.54985   3.55980   3.57116
 Alpha virt. eigenvalues --    3.57886   3.59025   3.61475   3.61990   3.62887
 Alpha virt. eigenvalues --    3.65123   3.66855   3.68288   3.70671   3.74999
 Alpha virt. eigenvalues --    3.76438   3.77421   3.78094   3.79364   3.81746
 Alpha virt. eigenvalues --    3.82784   3.84888   3.86179   3.87668   3.88394
 Alpha virt. eigenvalues --    3.89807   3.92185   3.92509   3.93815   3.94326
 Alpha virt. eigenvalues --    3.96063   3.97467   3.98898   4.00832   4.04109
 Alpha virt. eigenvalues --    4.05500   4.06323   4.09602   4.13803   4.14368
 Alpha virt. eigenvalues --    4.15340   4.17477   4.18055   4.18397   4.19175
 Alpha virt. eigenvalues --    4.22205   4.22824   4.24018   4.25383   4.28135
 Alpha virt. eigenvalues --    4.30270   4.31815   4.33381   4.37794   4.38815
 Alpha virt. eigenvalues --    4.42446   4.42857   4.44059   4.44903   4.49494
 Alpha virt. eigenvalues --    4.51540   4.54445   4.57706   4.59004   4.59341
 Alpha virt. eigenvalues --    4.62327   4.63791   4.64483   4.69356   4.70177
 Alpha virt. eigenvalues --    4.73592   4.76301   4.79748   4.86463   4.86595
 Alpha virt. eigenvalues --    4.90341   4.95760   4.96930   5.06643   5.12386
 Alpha virt. eigenvalues --    5.17050   5.17364   5.19316   5.23654   5.25798
 Alpha virt. eigenvalues --    5.27352   5.28714   5.29835   5.30402   5.31745
 Alpha virt. eigenvalues --    5.35012   5.35852   5.39556   5.42998   5.47531
 Alpha virt. eigenvalues --    5.48066   5.49448   5.49568   5.50111   5.50627
 Alpha virt. eigenvalues --    5.55846   5.66518   5.67363   5.68176   5.69950
 Alpha virt. eigenvalues --    5.76482   5.76793   5.78286   5.81304   5.85488
 Alpha virt. eigenvalues --    5.88114   5.93199   5.95726   5.98838   5.99822
 Alpha virt. eigenvalues --    6.12048   6.13413   6.15799   6.17134   6.21062
 Alpha virt. eigenvalues --    6.25730   6.26427   6.28451   6.37651   6.37910
 Alpha virt. eigenvalues --    6.40080   6.40786   6.47003   6.47456   6.53698
 Alpha virt. eigenvalues --    6.56762   6.64282   6.65524   6.68907   6.69997
 Alpha virt. eigenvalues --    6.71607   6.73916   6.75894   6.76881   6.78760
 Alpha virt. eigenvalues --    6.79236   6.89791   6.90566   6.91851   6.92072
 Alpha virt. eigenvalues --    6.96020   6.99172   7.05041   7.05463   7.12270
 Alpha virt. eigenvalues --    7.14137   7.16364   7.18455   7.31203   7.32408
 Alpha virt. eigenvalues --    7.41029   7.43245  22.32238  22.50674  22.54345
 Alpha virt. eigenvalues --   22.58660  22.59106  22.76770  22.79869  22.82353
 Alpha virt. eigenvalues --   22.96779  23.34790  23.51826  23.63564  43.94738
 Alpha virt. eigenvalues --   43.96288  44.07909  44.10482  44.36416  44.42507
          Condensed to atoms (all electrons):
               1          2          3          4          5          6
     1  O    8.041990   0.317719  -0.000002   0.000000  -0.000089  -0.000001
     2  H    0.317719   0.360862   0.000000  -0.000000  -0.000144  -0.000007
     3  C   -0.000002   0.000000   5.039801   0.398346   0.467219  -0.035554
     4  H    0.000000  -0.000000   0.398346   0.458298  -0.032650  -0.002649
     5  C   -0.000089  -0.000144   0.467219  -0.032650   5.018722   0.405780
     6  H   -0.000001  -0.000007  -0.035554  -0.002649   0.405780   0.470330
     7  O   -0.027848   0.014735   0.000178   0.000004   0.004316   0.000295
     8  C   -0.034271  -0.002115  -0.000201  -0.000003  -0.000124   0.000012
     9  H    0.007756  -0.000261  -0.000091   0.000000  -0.000875  -0.000268
    10  H    0.000115  -0.000277   0.000015  -0.000000   0.000718   0.000128
    11  C    0.248672  -0.044154   0.000036   0.000000   0.000380   0.000037
    12  H   -0.037822   0.008678  -0.000001   0.000000  -0.000047  -0.000000
    13  H   -0.047068  -0.004783  -0.000005  -0.000000   0.000555   0.000085
    14  C    0.000953   0.000870  -0.041428   0.004645   0.449904  -0.021159
    15  C   -0.001281  -0.001616   0.003806  -0.000149  -0.058890  -0.011454
    16  O    0.000000   0.000000   0.006067   0.000661  -0.000146   0.000003
    17  C    0.000001   0.000001   0.427949  -0.017305  -0.027145   0.004265
    18  C    0.000000  -0.000000  -0.047399  -0.011809  -0.000338  -0.000232
    19  O    0.003689   0.000961   0.000528  -0.000058   0.031723   0.014370
    20  C    0.000139   0.000224  -0.032026  -0.001138  -0.057620   0.005095
    21  H    0.000012   0.000047  -0.001299   0.000046   0.007022  -0.000185
    22  C   -0.000000   0.000011  -0.055159   0.007384  -0.050138  -0.000532
    23  H   -0.000000  -0.000000   0.006006  -0.000169  -0.000824   0.000058
    24  O   -0.000000   0.000000   0.026744   0.013888   0.002256  -0.000051
    25  C   -0.000000   0.000000   0.000004  -0.000006   0.000025   0.000000
    26  H   -0.000000   0.000000   0.000041   0.000004  -0.000008  -0.000000
    27  H    0.000000  -0.000000   0.000002  -0.000002   0.000000  -0.000000
    28  C    0.000000  -0.000000  -0.001238  -0.000038  -0.000197  -0.000000
    29  H    0.000000   0.000000  -0.000142   0.000023  -0.000029  -0.000000
    30  H    0.000000  -0.000000   0.000087   0.000001  -0.000006   0.000000
    31  O   -0.000000  -0.000000   0.000022  -0.000067   0.000006   0.000000
    32  H    0.000000  -0.000000   0.000229   0.000101  -0.000035  -0.000000
               7          8          9         10         11         12
     1  O   -0.027848  -0.034271   0.007756   0.000115   0.248672  -0.037822
     2  H    0.014735  -0.002115  -0.000261  -0.000277  -0.044154   0.008678
     3  C    0.000178  -0.000201  -0.000091   0.000015   0.000036  -0.000001
     4  H    0.000004  -0.000003   0.000000  -0.000000   0.000000   0.000000
     5  C    0.004316  -0.000124  -0.000875   0.000718   0.000380  -0.000047
     6  H    0.000295   0.000012  -0.000268   0.000128   0.000037  -0.000000
     7  O    8.015564   0.024957   0.000856   0.000025   0.014407   0.000331
     8  C    0.024957   5.075496   0.379587   0.439793   0.254096  -0.037538
     9  H    0.000856   0.379587   0.557293  -0.019580  -0.038467  -0.006704
    10  H    0.000025   0.439793  -0.019580   0.506557  -0.064258  -0.000430
    11  C    0.014407   0.254096  -0.038467  -0.064258   4.938929   0.399449
    12  H    0.000331  -0.037538  -0.006704  -0.000430   0.399449   0.576565
    13  H   -0.003672  -0.062084   0.007925   0.009604   0.410544  -0.039186
    14  C   -0.133622   0.007465   0.001532  -0.001485  -0.003168   0.000420
    15  C    0.560327  -0.055430   0.002758  -0.009089   0.006492   0.001766
    16  O    0.000000   0.000000   0.000000  -0.000000  -0.000000   0.000000
    17  C   -0.000038   0.000003   0.000003  -0.000000  -0.000001   0.000000
    18  C   -0.000011  -0.000001   0.000000  -0.000000  -0.000000   0.000000
    19  O   -0.086555   0.190438  -0.035335  -0.032998  -0.042319   0.003842
    20  C    0.024389  -0.002198   0.000126  -0.000203   0.000128   0.000005
    21  H    0.012880  -0.000148   0.000001  -0.000005   0.000025  -0.000000
    22  C    0.001539   0.000015  -0.000004  -0.000006   0.000001   0.000000
    23  H   -0.000051   0.000000   0.000000  -0.000000   0.000000  -0.000000
    24  O    0.000000   0.000000  -0.000000   0.000000  -0.000000  -0.000000
    25  C    0.000000   0.000000  -0.000000   0.000000  -0.000000  -0.000000
    26  H    0.000000   0.000000  -0.000000   0.000000  -0.000000  -0.000000
    27  H    0.000000   0.000000   0.000000  -0.000000  -0.000000  -0.000000
    28  C    0.000000  -0.000000  -0.000000  -0.000000   0.000000   0.000000
    29  H   -0.000000   0.000000  -0.000000   0.000000  -0.000000  -0.000000
    30  H   -0.000000   0.000000   0.000000  -0.000000  -0.000000   0.000000
    31  O    0.000000  -0.000000  -0.000000  -0.000000   0.000000   0.000000
    32  H   -0.000000   0.000000   0.000000  -0.000000  -0.000000  -0.000000
              13         14         15         16         17         18
     1  O   -0.047068   0.000953  -0.001281   0.000000   0.000001   0.000000
     2  H   -0.004783   0.000870  -0.001616   0.000000   0.000001  -0.000000
     3  C   -0.000005  -0.041428   0.003806   0.006067   0.427949  -0.047399
     4  H   -0.000000   0.004645  -0.000149   0.000661  -0.017305  -0.011809
     5  C    0.000555   0.449904  -0.058890  -0.000146  -0.027145  -0.000338
     6  H    0.000085  -0.021159  -0.011454   0.000003   0.004265  -0.000232
     7  O   -0.003672  -0.133622   0.560327   0.000000  -0.000038  -0.000011
     8  C   -0.062084   0.007465  -0.055430   0.000000   0.000003  -0.000001
     9  H    0.007925   0.001532   0.002758   0.000000   0.000003   0.000000
    10  H    0.009604  -0.001485  -0.009089  -0.000000  -0.000000  -0.000000
    11  C    0.410544  -0.003168   0.006492  -0.000000  -0.000001  -0.000000
    12  H   -0.039186   0.000420   0.001766   0.000000   0.000000   0.000000
    13  H    0.603567  -0.003504  -0.004083   0.000000   0.000002  -0.000000
    14  C   -0.003504   5.200964   0.306160   0.000299  -0.052338  -0.000905
    15  C   -0.004083   0.306160   4.507419  -0.000009  -0.002429  -0.001008
    16  O    0.000000   0.000299  -0.000009   7.982687  -0.154378   0.386678
    17  C    0.000002  -0.052338  -0.002429  -0.154378   5.245398   0.291833
    18  C   -0.000000  -0.000905  -0.001008   0.386678   0.291833   4.522356
    19  O    0.005225  -0.150494   0.388888   0.000000   0.000176  -0.000009
    20  C   -0.000022   0.450788  -0.048131  -0.000398  -0.035941   0.004576
    21  H    0.000002  -0.015758  -0.012477  -0.000067   0.004827  -0.000061
    22  C   -0.000010  -0.033415   0.002518   0.030779   0.430977  -0.051748
    23  H   -0.000000   0.004357  -0.000167   0.015950  -0.021703  -0.012238
    24  O    0.000000  -0.000149  -0.000018  -0.083152  -0.138142   0.597506
    25  C    0.000000  -0.000007  -0.000000  -0.025175  -0.002471  -0.000878
    26  H    0.000000   0.000003  -0.000000   0.002374  -0.000758  -0.008261
    27  H    0.000000  -0.000000  -0.000000   0.005445   0.000014   0.004748
    28  C   -0.000000   0.000078   0.000000   0.156406   0.011102  -0.072939
    29  H    0.000000   0.000007  -0.000000  -0.033876  -0.001797  -0.023797
    30  H   -0.000000   0.000002   0.000000  -0.028905   0.002834   0.002711
    31  O    0.000000  -0.000010  -0.000000   0.001878  -0.001225   0.034711
    32  H   -0.000000   0.000009   0.000000  -0.000774   0.000358  -0.016486
              19         20         21         22         23         24
     1  O    0.003689   0.000139   0.000012  -0.000000  -0.000000  -0.000000
     2  H    0.000961   0.000224   0.000047   0.000011  -0.000000   0.000000
     3  C    0.000528  -0.032026  -0.001299  -0.055159   0.006006   0.026744
     4  H   -0.000058  -0.001138   0.000046   0.007384  -0.000169   0.013888
     5  C    0.031723  -0.057620   0.007022  -0.050138  -0.000824   0.002256
     6  H    0.014370   0.005095  -0.000185  -0.000532   0.000058  -0.000051
     7  O   -0.086555   0.024389   0.012880   0.001539  -0.000051   0.000000
     8  C    0.190438  -0.002198  -0.000148   0.000015   0.000000   0.000000
     9  H   -0.035335   0.000126   0.000001  -0.000004   0.000000  -0.000000
    10  H   -0.032998  -0.000203  -0.000005  -0.000006  -0.000000   0.000000
    11  C   -0.042319   0.000128   0.000025   0.000001   0.000000  -0.000000
    12  H    0.003842   0.000005  -0.000000   0.000000  -0.000000  -0.000000
    13  H    0.005225  -0.000022   0.000002  -0.000010  -0.000000   0.000000
    14  C   -0.150494   0.450788  -0.015758  -0.033415   0.004357  -0.000149
    15  C    0.388888  -0.048131  -0.012477   0.002518  -0.000167  -0.000018
    16  O    0.000000  -0.000398  -0.000067   0.030779   0.015950  -0.083152
    17  C    0.000176  -0.035941   0.004827   0.430977  -0.021703  -0.138142
    18  C   -0.000009   0.004576  -0.000061  -0.051748  -0.012238   0.597506
    19  O    7.968087   0.004075   0.000538  -0.000025   0.000004   0.000000
    20  C    0.004075   5.021111   0.399204   0.465159  -0.036939   0.000033
    21  H    0.000538   0.399204   0.457400  -0.032410  -0.002709   0.000004
    22  C   -0.000025   0.465159  -0.032410   5.031494   0.405853   0.005229
    23  H    0.000004  -0.036939  -0.002709   0.405853   0.471117   0.000349
    24  O    0.000000   0.000033   0.000004   0.005229   0.000349   7.956358
    25  C    0.000000   0.000019   0.000000   0.000437  -0.000107  -0.010046
    26  H   -0.000000  -0.000011  -0.000001   0.000176   0.000214   0.000071
    27  H   -0.000000   0.000002   0.000000  -0.000020  -0.000003  -0.000405
    28  C   -0.000000  -0.000444  -0.000003  -0.000640   0.000150   0.019269
    29  H   -0.000000  -0.000009  -0.000001   0.000739   0.000222   0.003917
    30  H   -0.000000  -0.000030   0.000000  -0.000715  -0.000196   0.001646
    31  O   -0.000000   0.000072   0.000000  -0.000459  -0.000096  -0.020152
    32  H   -0.000000  -0.000021  -0.000000  -0.000132   0.000012   0.013427
              25         26         27         28         29         30
     1  O   -0.000000  -0.000000   0.000000   0.000000   0.000000   0.000000
     2  H    0.000000   0.000000  -0.000000  -0.000000   0.000000  -0.000000
     3  C    0.000004   0.000041   0.000002  -0.001238  -0.000142   0.000087
     4  H   -0.000006   0.000004  -0.000002  -0.000038   0.000023   0.000001
     5  C    0.000025  -0.000008   0.000000  -0.000197  -0.000029  -0.000006
     6  H    0.000000  -0.000000  -0.000000  -0.000000  -0.000000   0.000000
     7  O    0.000000   0.000000   0.000000   0.000000  -0.000000  -0.000000
     8  C    0.000000   0.000000   0.000000  -0.000000   0.000000   0.000000
     9  H   -0.000000  -0.000000   0.000000  -0.000000  -0.000000   0.000000
    10  H    0.000000   0.000000  -0.000000  -0.000000   0.000000  -0.000000
    11  C   -0.000000  -0.000000  -0.000000   0.000000  -0.000000  -0.000000
    12  H   -0.000000  -0.000000  -0.000000   0.000000  -0.000000   0.000000
    13  H    0.000000   0.000000   0.000000  -0.000000   0.000000  -0.000000
    14  C   -0.000007   0.000003  -0.000000   0.000078   0.000007   0.000002
    15  C   -0.000000  -0.000000  -0.000000   0.000000  -0.000000   0.000000
    16  O   -0.025175   0.002374   0.005445   0.156406  -0.033876  -0.028905
    17  C   -0.002471  -0.000758   0.000014   0.011102  -0.001797   0.002834
    18  C   -0.000878  -0.008261   0.004748  -0.072939  -0.023797   0.002711
    19  O    0.000000  -0.000000  -0.000000  -0.000000  -0.000000  -0.000000
    20  C    0.000019  -0.000011   0.000002  -0.000444  -0.000009  -0.000030
    21  H    0.000000  -0.000001   0.000000  -0.000003  -0.000001   0.000000
    22  C    0.000437   0.000176  -0.000020  -0.000640   0.000739  -0.000715
    23  H   -0.000107   0.000214  -0.000003   0.000150   0.000222  -0.000196
    24  O   -0.010046   0.000071  -0.000405   0.019269   0.003917   0.001646
    25  C    4.791767   0.399019   0.434412   0.312063  -0.058463  -0.036013
    26  H    0.399019   0.577880  -0.043063  -0.032341   0.007720  -0.002744
    27  H    0.434412  -0.043063   0.608881  -0.073591  -0.004760   0.003247
    28  C    0.312063  -0.032341  -0.073591   5.124536   0.443981   0.388383
    29  H   -0.058463   0.007720  -0.004760   0.443981   0.502346  -0.018668
    30  H   -0.036013  -0.002744   0.003247   0.388383  -0.018668   0.534415
    31  O    0.266709  -0.038561  -0.045106  -0.055017  -0.003705   0.005990
    32  H   -0.043614   0.009930  -0.007616   0.011627   0.002918   0.000457
              31         32
     1  O   -0.000000   0.000000
     2  H   -0.000000  -0.000000
     3  C    0.000022   0.000229
     4  H   -0.000067   0.000101
     5  C    0.000006  -0.000035
     6  H    0.000000  -0.000000
     7  O    0.000000  -0.000000
     8  C   -0.000000   0.000000
     9  H   -0.000000   0.000000
    10  H   -0.000000  -0.000000
    11  C    0.000000  -0.000000
    12  H    0.000000  -0.000000
    13  H    0.000000  -0.000000
    14  C   -0.000010   0.000009
    15  C   -0.000000   0.000000
    16  O    0.001878  -0.000774
    17  C   -0.001225   0.000358
    18  C    0.034711  -0.016486
    19  O   -0.000000  -0.000000
    20  C    0.000072  -0.000021
    21  H    0.000000  -0.000000
    22  C   -0.000459  -0.000132
    23  H   -0.000096   0.000012
    24  O   -0.020152   0.013427
    25  C    0.266709  -0.043614
    26  H   -0.038561   0.009930
    27  H   -0.045106  -0.007616
    28  C   -0.055017   0.011627
    29  H   -0.003705   0.002918
    30  H    0.005990   0.000457
    31  O    8.019332   0.302629
    32  H    0.302629   0.393791
 Mulliken charges:
               1
     1  O   -0.472665
     2  H    0.349250
     3  C   -0.162534
     4  H    0.182642
     5  C   -0.159321
     6  H    0.171633
     7  O   -0.423004
     8  C   -0.177750
     9  H    0.143747
    10  H    0.171378
    11  C   -0.080828
    12  H    0.130673
    13  H    0.126910
    14  C    0.028983
    15  C    0.426096
    16  O   -0.262344
    17  C    0.035930
    18  C    0.403002
    19  O   -0.264751
    20  C   -0.160015
    21  H    0.183116
    22  C   -0.156898
    23  H    0.170909
    24  O   -0.388583
    25  C   -0.027675
    26  H    0.128316
    27  H    0.117816
    28  C   -0.231148
    29  H    0.183374
    30  H    0.147504
    31  O   -0.466951
    32  H    0.333189
 Sum of Mulliken charges =  -0.00000
 Mulliken charges with hydrogens summed into heavy atoms:
               1
     1  O   -0.123415
     3  C    0.020107
     5  C    0.012312
     7  O   -0.423004
     8  C    0.137374
    11  C    0.176755
    14  C    0.028983
    15  C    0.426096
    16  O   -0.262344
    17  C    0.035930
    18  C    0.403002
    19  O   -0.264751
    20  C    0.023101
    22  C    0.014011
    24  O   -0.388583
    25  C    0.218457
    28  C    0.099730
    31  O   -0.133762
 Electronic spatial extent (au):  <R**2>=          20938.5425
 Charge=             -0.0000 electrons
 Dipole moment (field-independent basis, Debye):
    X=              0.2596    Y=             -0.1200    Z=              3.0811  Tot=              3.0944
 Quadrupole moment (field-independent basis, Debye-Ang):
   XX=           -108.6666   YY=            -98.9154   ZZ=            -87.1229
   XY=            -14.7344   XZ=             -1.3474   YZ=             26.4553
 Traceless Quadrupole moment (field-independent basis, Debye-Ang):
   XX=            -10.4316   YY=             -0.6804   ZZ=             11.1121
   XY=            -14.7344   XZ=             -1.3474   YZ=             26.4553
 Octapole moment (field-independent basis, Debye-Ang**2):
  XXX=            207.9524  YYY=           -977.5272  ZZZ=          -1032.6409  XYY=            -52.6632
  XXY=           -342.4573  XXZ=           -408.1760  XZZ=            -47.3322  YZZ=           -171.5262
  YYZ=           -252.9598  XYZ=            -66.2502
 Hexadecapole moment (field-independent basis, Debye-Ang**3):
 XXXX=          -4296.1501 YYYY=          -7147.4637 ZZZZ=         -13311.3950 XXXY=            751.1073
 XXXZ=           2881.6641 YYYX=            227.6026 YYYZ=          -3516.2637 ZZZX=           1632.0836
 ZZZY=          -2732.8057 XXYY=          -1806.9416 XXZZ=          -3005.8453 YYZZ=          -2727.6834
 XXYZ=          -1174.4364 YYXZ=            398.4669 ZZXY=           -535.2736
 N-N= 1.279806567379D+03 E-N=-4.705027153648D+03  KE= 9.127804115815D+02
   1 Symmetry operations used in ECPInt.
 ECPInt:  NShTT=   32385 NPrTT=   99228 LenC2=   26215 LenP2D=   57714.
 LDataN:  DoStor=T MaxTD1= 7 Len=  274
 Calling FoFJK, ICntrl=      2127 FMM=F ISym2X=0 I1Cent= 0 IOpClX= 0 NMat=1 NMatS=1 NMatT=0.
 -------------------------------------------------------------------
 Center     Atomic                   Forces (Hartrees/Bohr)
 Number     Number              X              Y              Z
 -------------------------------------------------------------------
      1        8          -0.001160054    0.004467413   -0.000909870
      2        1           0.001017871   -0.000248846   -0.001401797
      3        6          -0.000253822    0.000581243    0.000009026
      4        1           0.001099836    0.004845604   -0.003617210
      5        6          -0.000186245    0.000836334   -0.000161010
      6        1          -0.003138237    0.004898575    0.002053496
      7        8          -0.000529392   -0.000500908    0.001669240
      8        6           0.008216923    0.000646688   -0.002423166
      9        1          -0.002335997    0.004948587   -0.000483390
     10        1          -0.004333742   -0.003720365   -0.000029707
     11        6          -0.002490533   -0.013265666    0.000075815
     12        1          -0.002412777    0.004001128    0.003281819
     13        1           0.005069445    0.003704275   -0.000629520
     14        6          -0.002585523    0.000296076    0.003339305
     15        6          -0.000885560    0.001132641    0.000320654
     16        8           0.001299279    0.001485984   -0.002486761
     17        6           0.002767576   -0.000266166   -0.003344503
     18        6           0.001305824   -0.001526738   -0.000179247
     19        8          -0.001531278   -0.001225016    0.002470588
     20        6           0.000172018   -0.000611582   -0.000026546
     21        1          -0.001089166   -0.004851062    0.003616714
     22        6           0.000095535   -0.000838021    0.000185867
     23        1           0.003164334   -0.004872133   -0.002081134
     24        8           0.001236973    0.000797892   -0.000938799
     25        6          -0.003285055    0.011132197    0.003260295
     26        1           0.001809131   -0.004446591    0.002963954
     27        1           0.003211870   -0.001585968   -0.004713117
     28        6          -0.000214353   -0.000378939    0.007573555
     29        1          -0.002017174    0.003389049   -0.003930560
     30        1          -0.000290953   -0.005073227   -0.002208607
     31        8          -0.000929023   -0.004316059    0.000358200
     32        1          -0.000797730    0.000563602   -0.001613583
 -------------------------------------------------------------------
 Cartesian Forces:  Max     0.013265666 RMS     0.003218700

 GradGradGradGradGradGradGradGradGradGradGradGradGradGradGradGradGradGrad
 Berny optimization.
 FormGI is forming the generalized inverse of G from B-inverse, IUseBI=4.
 Internal  Forces:  Max     0.006788696 RMS     0.002338754
 Search for a local minimum.
 Step number   1 out of a maximum of  160
 All quantities printed in internal units (Hartrees-Bohrs-Radians)
 Mixed Optimization -- RFO/linear search
 Second derivative matrix not updated -- first step.
 ITU=  0
     Eigenvalues ---    0.00212   0.00466   0.00531   0.00623   0.00682
     Eigenvalues ---    0.00951   0.01377   0.01470   0.01759   0.01853
     Eigenvalues ---    0.02178   0.02223   0.02235   0.02243   0.02262
     Eigenvalues ---    0.02270   0.02274   0.03238   0.03830   0.04869
     Eigenvalues ---    0.05452   0.05754   0.05852   0.06069   0.06185
     Eigenvalues ---    0.06255   0.06646   0.07065   0.07407   0.11648
     Eigenvalues ---    0.11685   0.11945   0.12422   0.13251   0.13952
     Eigenvalues ---    0.14531   0.15178   0.15950   0.15998   0.16012
     Eigenvalues ---    0.16053   0.16236   0.18022   0.21858   0.21909
     Eigenvalues ---    0.23001   0.23031   0.23763   0.24143   0.24651
     Eigenvalues ---    0.24944   0.25275   0.26025   0.26422   0.29360
     Eigenvalues ---    0.29701   0.31376   0.32566   0.34121   0.34209
     Eigenvalues ---    0.34476   0.34539   0.34702   0.34768   0.34851
     Eigenvalues ---    0.34977   0.35713   0.35741   0.35821   0.35921
     Eigenvalues ---    0.36350   0.37635   0.40231   0.41806   0.43123
     Eigenvalues ---    0.43432   0.44227   0.46359   0.47215   0.47653
     Eigenvalues ---    0.47982   0.49589   0.52702   0.55224   0.55505
     Eigenvalues ---    0.56795   0.68502   1.01813   1.05038   1.05243
 RFO step:  Lambda=-2.31357752D-03 EMin= 2.12410929D-03
 Linear search not attempted -- first point.
 Iteration  1 RMS(Cart)=  0.01919416 RMS(Int)=  0.00012146
 Iteration  2 RMS(Cart)=  0.00023052 RMS(Int)=  0.00001358
 Iteration  3 RMS(Cart)=  0.00000005 RMS(Int)=  0.00001358
 Variable       Old X    -DE/DX   Delta X   Delta X   Delta X     New X
                                 (Linear)    (Quad)   (Total)
    R1        1.82926  -0.00152   0.00000  -0.00308  -0.00308   1.82618
    R2        2.63109   0.00471   0.00000   0.01093   0.01093   2.64202
    R3        2.06055  -0.00614   0.00000  -0.01662  -0.01662   2.04394
    R4        2.62683  -0.00678   0.00000  -0.01387  -0.01387   2.61296
    R5        2.64157  -0.00679   0.00000  -0.01496  -0.01496   2.62661
    R6        2.05864  -0.00615   0.00000  -0.01714  -0.01714   2.04150
    R7        2.64333  -0.00655   0.00000  -0.01268  -0.01268   2.63065
    R8        2.28358  -0.00140   0.00000  -0.00177  -0.00177   2.28182
    R9        2.07093  -0.00548   0.00000  -0.01599  -0.01599   2.05494
   R10        2.08063  -0.00564   0.00000  -0.01642  -0.01642   2.06421
   R11        2.88741  -0.00060   0.00000  -0.00410  -0.00410   2.88331
   R12        2.71182   0.00289   0.00000   0.00513   0.00513   2.71695
   R13        2.07958  -0.00564   0.00000  -0.01646  -0.01646   2.06312
   R14        2.09565  -0.00601   0.00000  -0.01773  -0.01773   2.07792
   R15        2.82339  -0.00238   0.00000  -0.00612  -0.00612   2.81727
   R16        2.64181  -0.00677   0.00000  -0.01486  -0.01486   2.62695
   R17        2.50766   0.00065   0.00000   0.00165   0.00165   2.50931
   R18        2.52241   0.00104   0.00000   0.00040   0.00040   2.52281
   R19        2.69455   0.00284   0.00000   0.00602   0.00602   2.70057
   R20        2.82486  -0.00233   0.00000  -0.00695  -0.00695   2.81791
   R21        2.64274  -0.00653   0.00000  -0.01271  -0.01271   2.63003
   R22        2.27817  -0.00135   0.00000  -0.00106  -0.00106   2.27710
   R23        2.06060  -0.00614   0.00000  -0.01669  -0.01669   2.04391
   R24        2.62701  -0.00676   0.00000  -0.01341  -0.01341   2.61359
   R25        2.05841  -0.00615   0.00000  -0.01721  -0.01721   2.04121
   R26        2.07955  -0.00555   0.00000  -0.01563  -0.01563   2.06393
   R27        2.09311  -0.00580   0.00000  -0.01725  -0.01725   2.07586
   R28        2.87080  -0.00041   0.00000  -0.00685  -0.00685   2.86394
   R29        2.63993   0.00401   0.00000   0.01052   0.01052   2.65045
   R30        2.07832  -0.00557   0.00000  -0.01616  -0.01616   2.06216
   R31        2.07347  -0.00552   0.00000  -0.01588  -0.01588   2.05760
   R32        1.82576  -0.00161   0.00000  -0.00271  -0.00271   1.82304
    A1        1.86998   0.00147   0.00000   0.00723   0.00723   1.87721
    A2        2.12017  -0.00034   0.00000  -0.00243  -0.00243   2.11774
    A3        2.06994   0.00034   0.00000   0.00279   0.00279   2.07274
    A4        2.09307   0.00000   0.00000  -0.00036  -0.00036   2.09271
    A5        2.11071  -0.00061   0.00000  -0.00431  -0.00431   2.10641
    A6        2.08620   0.00018   0.00000   0.00164   0.00164   2.08784
    A7        2.08627   0.00042   0.00000   0.00267   0.00267   2.08894
    A8        1.90871   0.00011   0.00000   0.00363   0.00361   1.91232
    A9        1.93453  -0.00094   0.00000  -0.00224  -0.00226   1.93226
   A10        1.80426  -0.00071   0.00000  -0.00180  -0.00182   1.80244
   A11        1.90340   0.00100   0.00000   0.01089   0.01088   1.91428
   A12        1.90892  -0.00073   0.00000  -0.00688  -0.00686   1.90206
   A13        2.00095   0.00114   0.00000  -0.00412  -0.00412   1.99682
   A14        1.99669   0.00149   0.00000  -0.00113  -0.00113   1.99556
   A15        1.86348  -0.00111   0.00000  -0.00641  -0.00641   1.85707
   A16        1.97655  -0.00159   0.00000  -0.01473  -0.01473   1.96182
   A17        1.87771  -0.00000   0.00000   0.00723   0.00720   1.88491
   A18        1.88168   0.00076   0.00000   0.00800   0.00796   1.88964
   A19        1.86057   0.00044   0.00000   0.00868   0.00857   1.86914
   A20        2.12474   0.00015   0.00000   0.00060   0.00060   2.12534
   A21        2.10402  -0.00019   0.00000  -0.00137  -0.00137   2.10264
   A22        2.05443   0.00004   0.00000   0.00077   0.00077   2.05520
   A23        2.15192  -0.00088   0.00000  -0.00291  -0.00292   2.14900
   A24        2.15962   0.00158   0.00000   0.00285   0.00285   2.16247
   A25        1.97164  -0.00069   0.00000   0.00006   0.00006   1.97171
   A26        2.04361   0.00087   0.00000  -0.00295  -0.00295   2.04066
   A27        2.05317  -0.00005   0.00000   0.00031   0.00031   2.05348
   A28        2.10382  -0.00016   0.00000  -0.00097  -0.00097   2.10285
   A29        2.12619   0.00022   0.00000   0.00066   0.00066   2.12685
   A30        1.96344  -0.00048   0.00000   0.00117   0.00117   1.96461
   A31        2.16289   0.00126   0.00000   0.00137   0.00136   2.16426
   A32        2.15673  -0.00079   0.00000  -0.00260  -0.00260   2.15412
   A33        2.06746   0.00162   0.00000  -0.00400  -0.00400   2.06346
   A34        2.07107   0.00033   0.00000   0.00243   0.00243   2.07350
   A35        2.09259   0.00001   0.00000  -0.00011  -0.00011   2.09249
   A36        2.11952  -0.00035   0.00000  -0.00232  -0.00232   2.11720
   A37        2.08667   0.00015   0.00000   0.00117   0.00117   2.08784
   A38        2.08576   0.00048   0.00000   0.00322   0.00322   2.08898
   A39        2.11075  -0.00063   0.00000  -0.00439  -0.00439   2.10636
   A40        1.87140   0.00054   0.00000   0.00649   0.00647   1.87787
   A41        1.90655   0.00015   0.00000   0.00585   0.00584   1.91239
   A42        1.86683  -0.00142   0.00000  -0.00192  -0.00193   1.86490
   A43        1.87522  -0.00049   0.00000  -0.00013  -0.00015   1.87507
   A44        1.96701  -0.00156   0.00000  -0.01172  -0.01172   1.95528
   A45        1.97381   0.00273   0.00000   0.00223   0.00222   1.97603
   A46        1.93429   0.00281   0.00000   0.00257   0.00254   1.93683
   A47        1.90123  -0.00082   0.00000   0.00516   0.00513   1.90636
   A48        1.85322  -0.00102   0.00000  -0.00743  -0.00744   1.84578
   A49        1.93879   0.00019   0.00000   0.00414   0.00412   1.94290
   A50        1.92927  -0.00165   0.00000  -0.00609  -0.00610   1.92318
   A51        1.90478   0.00043   0.00000   0.00130   0.00132   1.90610
   A52        1.90285   0.00150   0.00000   0.00784   0.00784   1.91070
    D1       -0.90272  -0.00008   0.00000   0.00943   0.00941  -0.89331
    D2       -2.97781  -0.00019   0.00000   0.00546   0.00547  -2.97233
    D3        1.26305   0.00086   0.00000   0.00713   0.00713   1.27018
    D4       -0.00072  -0.00001   0.00000   0.00088   0.00088   0.00016
    D5        3.14006  -0.00000   0.00000   0.00096   0.00096   3.14102
    D6        3.14134  -0.00001   0.00000   0.00087   0.00087  -3.14097
    D7       -0.00106  -0.00000   0.00000   0.00095   0.00095  -0.00012
    D8        0.00176  -0.00002   0.00000  -0.00175  -0.00175   0.00001
    D9       -3.13996   0.00002   0.00000  -0.00052  -0.00052  -3.14049
   D10       -3.14029  -0.00002   0.00000  -0.00174  -0.00174   3.14115
   D11        0.00117   0.00002   0.00000  -0.00051  -0.00051   0.00066
   D12       -3.14156  -0.00001   0.00000  -0.00010  -0.00010   3.14153
   D13        0.00009  -0.00001   0.00000  -0.00051  -0.00051  -0.00042
   D14       -0.00076  -0.00001   0.00000  -0.00003  -0.00003  -0.00079
   D15        3.14089  -0.00001   0.00000  -0.00044  -0.00044   3.14045
   D16       -2.57692  -0.00002   0.00000   0.00891   0.00890  -2.56802
   D17       -0.50988  -0.00051   0.00000   0.00515   0.00512  -0.50476
   D18        1.49069   0.00037   0.00000   0.02281   0.02284   1.51353
   D19       -0.47467   0.00017   0.00000   0.01903   0.01903  -0.45564
   D20        1.59237  -0.00032   0.00000   0.01527   0.01525   1.60762
   D21       -2.69024   0.00057   0.00000   0.03293   0.03297  -2.65727
   D22        1.67205   0.00080   0.00000   0.01549   0.01548   1.68753
   D23       -2.54409   0.00031   0.00000   0.01174   0.01170  -2.53239
   D24       -0.54352   0.00119   0.00000   0.02939   0.02942  -0.51410
   D25        3.00686  -0.00029   0.00000  -0.02415  -0.02416   2.98271
   D26        0.97508   0.00027   0.00000  -0.02438  -0.02437   0.95071
   D27       -1.16867  -0.00129   0.00000  -0.03040  -0.03040  -1.19907
   D28       -3.12272   0.00013   0.00000   0.01640   0.01640  -3.10633
   D29        0.02011  -0.00012   0.00000   0.01370   0.01370   0.03382
   D30        0.01881   0.00013   0.00000   0.01680   0.01680   0.03561
   D31       -3.12154  -0.00011   0.00000   0.01410   0.01410  -3.10743
   D32       -3.14073   0.00001   0.00000  -0.00064  -0.00064  -3.14137
   D33        0.00078   0.00002   0.00000  -0.00037  -0.00037   0.00042
   D34        0.00091   0.00001   0.00000  -0.00103  -0.00103  -0.00012
   D35       -3.14075   0.00001   0.00000  -0.00076  -0.00076  -3.14152
   D36        0.08216  -0.00056   0.00000  -0.00232  -0.00233   0.07983
   D37       -3.06068  -0.00031   0.00000   0.00038   0.00039  -3.06029
   D38        3.12405  -0.00036   0.00000  -0.00069  -0.00069   3.12336
   D39       -0.03442  -0.00078   0.00000  -0.00455  -0.00455  -0.03897
   D40       -1.51504  -0.00217   0.00000  -0.03037  -0.03038  -1.54541
   D41        0.62309  -0.00065   0.00000  -0.02007  -0.02006   0.60303
   D42        2.67232  -0.00111   0.00000  -0.01994  -0.01995   2.65237
   D43        3.12107  -0.00016   0.00000   0.00753   0.00753   3.12860
   D44       -0.00372   0.00023   0.00000   0.01132   0.01132   0.00761
   D45       -0.02040  -0.00020   0.00000   0.00629   0.00629  -0.01411
   D46        3.13800   0.00019   0.00000   0.01008   0.01008  -3.13510
   D47       -0.00029  -0.00002   0.00000  -0.00037  -0.00037  -0.00066
   D48        3.13860  -0.00002   0.00000  -0.00151  -0.00151   3.13709
   D49        3.14117   0.00002   0.00000   0.00091   0.00091  -3.14111
   D50       -0.00312   0.00002   0.00000  -0.00023  -0.00024  -0.00336
   D51       -0.00068  -0.00000   0.00000   0.00080   0.00080   0.00012
   D52       -3.13953  -0.00000   0.00000   0.00195   0.00195  -3.13759
   D53        3.14084   0.00000   0.00000   0.00108   0.00108  -3.14127
   D54        0.00198   0.00000   0.00000   0.00223   0.00223   0.00421
   D55       -1.11757   0.00062   0.00000   0.02144   0.02144  -1.09612
   D56        3.04949  -0.00038   0.00000   0.01034   0.01033   3.05982
   D57        0.93226   0.00006   0.00000   0.01005   0.01005   0.94232
   D58        3.14104   0.00017   0.00000   0.01081   0.01081  -3.13133
   D59        1.02491  -0.00083   0.00000  -0.00029  -0.00030   1.02461
   D60       -1.09231  -0.00039   0.00000  -0.00058  -0.00058  -1.09289
   D61        0.95922   0.00067   0.00000   0.02443   0.02444   0.98365
   D62       -1.15691  -0.00033   0.00000   0.01333   0.01332  -1.14359
   D63        3.00905   0.00012   0.00000   0.01304   0.01304   3.02209
   D64        2.81149   0.00036   0.00000  -0.02675  -0.02676   2.78473
   D65       -1.41935  -0.00075   0.00000  -0.02663  -0.02663  -1.44598
   D66        0.71189  -0.00052   0.00000  -0.03409  -0.03407   0.67782
         Item               Value     Threshold  Converged?
 Maximum Force            0.006789     0.000450     NO 
 RMS     Force            0.002339     0.000300     NO 
 Maximum Displacement     0.052939     0.001800     NO 
 RMS     Displacement     0.019199     0.001200     NO 
 Predicted change in Energy=-1.179533D-03
 GradGradGradGradGradGradGradGradGradGradGradGradGradGradGradGradGradGrad

                          Input orientation:                          
 ---------------------------------------------------------------------
 Center     Atomic      Atomic             Coordinates (Angstroms)
 Number     Number       Type             X           Y           Z
 ---------------------------------------------------------------------
      1          8           0        2.453917    3.617952   -1.260843
      2          1           0        2.118795    4.212118   -0.576343
      3          6           0       -0.440079    2.163289    5.020041
      4          1           0       -0.593325    1.277089    5.620901
      5          6           0        0.388034    2.147076    3.912847
      6          1           0        0.902812    1.242745    3.622551
      7          8           0        1.633990    4.346470    1.316423
      8          6           0        2.935678    2.094776    0.606974
      9          1           0        3.340901    1.089820    0.698389
     10          1           0        3.727765    2.826057    0.783097
     11          6           0        2.335947    2.310720   -0.779280
     12          1           0        2.874728    1.673158   -1.482960
     13          1           0        1.292884    1.963159   -0.761547
     14          6           0        0.559048    3.308308    3.164392
     15          6           0        1.440213    3.344875    1.962394
     16          8           0       -2.540571    4.478066    6.840921
     17          6           0       -1.095035    3.335706    5.378381
     18          6           0       -1.976221    3.296520    6.580702
     19          8           0        1.985191    2.166587    1.683328
     20          6           0       -0.096489    4.480714    3.522405
     21          1           0        0.055685    5.367137    2.921626
     22          6           0       -0.924748    4.496641    4.629912
     23          1           0       -1.443242    5.399512    4.917549
     24          8           0       -2.138912    2.309470    7.252467
     25          6           0       -4.841970    4.193608    7.556557
     26          1           0       -5.206422    4.929271    6.836253
     27          1           0       -5.469488    4.269437    8.454981
     28          6           0       -3.423645    4.540274    7.962785
     29          1           0       -3.059836    3.870853    8.744026
     30          1           0       -3.375586    5.567631    8.320255
     31          8           0       -4.950082    2.936573    6.943909
     32          1           0       -4.363935    2.311389    7.386908
 ---------------------------------------------------------------------
                    Distance matrix (angstroms):
                    1          2          3          4          5
     1  O    0.000000
     2  H    0.966375   0.000000
     3  C    7.066877   6.485757   0.000000
     4  H    7.881860   7.373996   1.081604   0.000000
     5  C    5.761806   5.235719   1.382719   2.153460   0.000000
     6  H    5.647572   5.284553   2.145631   2.496599   1.080315
     7  O    2.800949   1.958481   4.773346   5.736773   3.623695
     8  C    2.457823   2.559428   5.556580   6.185623   4.173969
     9  H    3.319153   3.587092   5.841645   6.304310   4.491097
    10  H    2.535247   2.521513   5.980123   6.668992   4.627110
    11  C    1.398097   1.924488   6.431188   7.114165   5.083030
    12  H    2.002159   2.799948   7.315544   7.915118   5.960115
    13  H    2.082218   2.402966   6.039038   6.690600   4.764718
    14  C    4.823806   4.152442   2.398491   3.389432   1.392082
    15  C    3.389900   2.767267   3.779001   4.668585   2.519140
    16  O    9.556321   8.763345   3.617439   3.940364   4.752248
    17  C    7.533526   6.823162   1.389942   2.132706   2.400027
    18  C    9.012173   8.296431   2.465687   2.629016   3.745448
    19  O    3.315766   3.050927   4.124997   4.790035   2.742634
    20  C    5.488933   4.666836   2.780544   3.861832   2.415177
    21  H    5.128763   4.222117   3.861836   4.943258   3.385524
    22  C    6.847515   6.037317   2.414878   3.384880   2.785325
    23  H    7.518931   6.654386   3.389688   4.267486   3.865403
    24  O    9.761282   9.112540   2.809115   2.473187   4.191048
    25  C   11.458964  10.704982   5.471083   5.504891   6.694614
    26  H   11.223338  10.446037   5.802354   6.008009   6.898178
    27  H   12.553963  11.796191   6.444348   6.384600   7.710121
    28  C   10.975961  10.185432   4.817828   4.913605   6.054610
    29  H   11.426409  10.667893   4.862815   4.750284   6.180575
[...]
 .00002596,-0.00001412,0.00000070,0.00001210,-0.00007598,-0.00005265,0.
 00013339,0.00005664,-0.00001688,-0.00005907,-0.00000408,0.00000469,0.0
 0000540,-0.00000488,-0.00000074,0.00000836,-0.00000714,0.00000900,-0.0
 0001137,-0.00000244,0.00000061,0.00000799,-0.00000192,-0.00000346,-0.0
 0000396,-0.00010163,0.00005128,0.00011585,0.00018828,-0.00002313,-0.00
 024975,-0.00932059,0.00083765,0.00020157,0.00005173,0.00040606,0.00029
 503,0.00103611,-0.00400052,0.00003609,-0.00010741,0.00007978,0.0001150
 4,0.00003065,-0.00000256,-0.00003278,-0.00000632,0.00000041,0.00000953
 ,-0.00006273,0.00005624,0.00005480,-0.00000017,0.00004631,-0.00006651,
 -0.00008785,0.00134244,-0.00093816,-0.13401653,0.00687241,0.11352677,0
 .00786715,-0.00049038,-0.00936292,0.14133072,0.00000090,0.00000291,0.0
 0000452,0.00000060,-0.00000097,-0.00000561,-0.00000276,-0.00003831,0.0
 0005250,-0.00001375,0.00000929,-0.00000733,-0.00002584,0.00002291,0.00
 001926,-0.00000868,-0.00000096,0.00000392,-0.00000846,-0.00000026,0.00
 001545,0.00000676,-0.00000258,-0.00000813,-0.00000114,0.00000060,0.000
 00076,-0.00000044,0.00000026,0.00000124,-0.00000356,-0.00000206,-0.000
 00081,-0.00000032,0.00000011,0.00000122,0.00000083,-0.00000019,-0.0000
 0056,-0.00001261,0.00002093,0.00001829,0.00002200,-0.00000991,-0.00003
 285,-0.00347529,0.00212110,0.00015377,-0.00002316,0.00023348,0.0000793
 9,-0.00019582,-0.00263030,0.00038371,-0.00001563,0.00001641,0.00001797
 ,0.00000720,0.00000899,-0.00001812,0.00000101,-0.00000090,-0.00000087,
 0.00000025,-0.00002862,0.00000400,0.00002488,0.00001559,-0.00002265,0.
 00077908,0.00109121,-0.00042418,0.00417646,-0.04851202,-0.00220378,-0.
 01185492,0.00230306,0.01538255,-0.00753704,0.06060930,0.00000866,0.000
 00544,-0.00001810,-0.00000828,-0.00000214,0.00001889,-0.00001641,-0.00
 000701,0.00003616,-0.00001878,0.00001155,0.00000137,-0.00002072,0.0000
 1610,0.00001147,-0.00000613,-0.00000243,0.00000270,0.00003991,0.000020
 11,-0.00005747,-0.00003015,0.00000813,0.00003028,0.00000125,-0.0000026
 8,-0.00000240,0.00000256,0.00000119,-0.00000381,-0.00000208,-0.0000072
 9,0.00000648,0.00000185,-0.00000068,-0.00000381,0.00000268,0.00000275,
 0.00000202,0.00002114,0.00001302,-0.00003646,-0.00008864,0.00001642,0.
 00010199,-0.00356507,0.00002444,0.00177869,0.00002385,0.00023582,0.000
 03944,-0.00047096,-0.00132408,0.00060506,0.00005325,-0.00003634,-0.000
 05236,0.00001663,-0.00000460,-0.00000245,-0.00000402,-0.00000196,-0.00
 000048,0.00000797,-0.00000690,0.00002516,-0.00003387,-0.00000889,-0.00
 001836,0.00058176,0.00055576,-0.00027954,0.11502335,-0.00347397,-0.216
 81388,0.01405079,0.00099253,-0.01760207,-0.12708985,0.01773433,0.23688
 634,0.00002812,0.00002224,-0.00018725,-0.00004573,-0.00001403,0.000205
 43,0.00025403,0.00039138,0.00007033,-0.00000304,0.00011957,0.00021580,
 -0.00011004,-0.00006899,-0.00043014,0.00001067,-0.00003750,-0.00006233
 ,0.00037847,0.00022086,-0.00066410,-0.00027810,0.00008794,0.00031578,0
 .00002219,-0.00002356,-0.00002774,0.00002513,0.00000189,-0.00004482,0.
 00003864,-0.00003755,0.00006133,0.00001367,-0.00000350,-0.00004047,0.0
 0000706,0.00001707,0.00002082,0.00044264,-0.00011972,-0.00050419,-0.00
 092135,0.00013595,0.00119381,-0.10852639,0.01012163,0.05956088,0.00484
 317,0.00054248,-0.00017516,-0.02167998,0.02378971,0.02124270,0.0005478
 5,-0.00041146,-0.00059507,0.00009580,-0.00021134,0.00007625,0.00004261
 ,0.00000665,-0.00002169,0.00017129,0.00003335,-0.00055896,-0.00022049,
 -0.00054815,0.00035494,-0.00124747,-0.01159456,-0.00012154,-0.18923591
 ,-0.02427335,-0.05144383,-0.01361034,-0.00336241,-0.00207589,-0.015511
 88,0.00070241,-0.00372271,0.48008137,-0.00000834,-0.00001487,0.0000419
 9,0.00001146,0.00000826,-0.00004473,0.00078419,0.00041259,-0.00087902,
 0.00003818,-0.00001000,0.00002357,-0.00008185,-0.00045407,0.00000673,0
 .00003746,0.00001165,-0.00008868,-0.00009097,-0.00006908,0.00015113,0.
 00006255,-0.00001144,-0.00006556,-0.00000539,0.00000439,0.00000674,-0.
 00000536,-0.00000030,0.00000835,-0.00000697,0.00001618,-0.00001519,-0.
 00000245,0.00000016,0.00000866,-0.00000289,-0.00000461,-0.00000406,-0.
 00017832,0.00008596,0.00023049,0.00022859,0.00002275,-0.00028686,-0.00
 593699,-0.08833868,0.02098534,0.00214268,-0.00397988,0.00139735,0.0263
 2689,-0.00494200,-0.03764645,-0.00012920,0.00009047,0.00013729,-0.0000
 6233,0.00031460,-0.00016093,0.00000506,0.00000250,0.00000193,-0.000401
 73,-0.00037677,0.00059448,-0.00000497,0.00069063,-0.00020616,0.0000603
 8,-0.00059443,-0.00190522,-0.00791456,-0.08565237,-0.00050219,0.020486
 86,0.00655599,0.00456516,0.00085906,0.00179372,0.00166406,-0.03209721,
 0.65572325,-0.00004794,-0.00002806,0.00023351,0.00006723,0.00001906,-0
 .00025878,0.00013329,-0.00059258,0.00054472,0.00019821,-0.00006104,-0.
 00010292,-0.00050205,-0.00004533,0.00025500,-0.00010292,0.00001851,0.0
 0006261,-0.00050084,-0.00030391,0.00085569,0.00037973,-0.00011138,-0.0
 0039101,-0.00002796,0.00003215,0.00003645,-0.00003182,-0.00000601,0.00
 005590,-0.00004686,0.00005232,-0.00007181,-0.00001726,0.00000447,0.000
 05340,-0.00001237,-0.00002371,-0.00002717,-0.00059483,0.00033850,0.000
 67647,0.00120497,-0.00018379,-0.00160418,0.06237479,0.00529236,-0.1607
 7876,0.00027840,0.00325789,0.00486701,0.02034179,-0.04403162,-0.011741
 40,-0.00071724,0.00053903,0.00076358,0.00013114,0.00008708,-0.00019476
 ,-0.00001285,0.00000467,0.00005956,-0.00055260,0.00003871,0.00050153,0
 .00008600,0.00038724,-0.00049744,0.00053508,0.01541652,-0.01096885,-0.
 03408653,-0.00012840,-0.08946202,-0.02595136,-0.00629981,-0.00702933,0
 .02746654,0.00589429,0.00491091,0.04878534,-0.00637491,0.52243496,-0.0
 0000261,-0.00000285,0.00001903,0.00000455,0.00000187,-0.00002140,0.000
 01499,-0.00008179,-0.00000743,-0.00000109,0.00001553,-0.00000005,-0.00
 002923,0.00000572,0.00006113,-0.00000227,0.00000344,0.00000994,-0.0000
 4336,-0.00002801,0.00007270,0.00002912,-0.00000871,-0.00003342,-0.0000
 0258,0.00000262,0.00000356,-0.00000299,-0.00000021,0.00000547,-0.00000
 478,0.00000419,-0.00000581,-0.00000121,0.00000021,0.00000419,-0.000000
 81,-0.00000161,-0.00000236,-0.00007127,0.00005411,0.00008021,0.0001135
 5,-0.00000290,-0.00013354,0.00174392,-0.01178533,0.02553069,-0.0005170
 0,-0.00003864,-0.00011742,0.00254306,-0.00389727,0.00116127,-0.0000642
 0,0.00004664,0.00006621,-0.00000701,0.00004859,-0.00007178,-0.00000569
 ,-0.00000255,0.00000091,-0.00001532,-0.00006321,0.00009826,0.00006118,
 0.00013184,-0.00006847,-0.00106601,0.00237745,0.00009639,-0.01309686,0
 .02293724,-0.02364083,-0.00555398,-0.00250837,-0.00113086,0.00118154,0
 .00000868,0.00061256,-0.08514618,0.06047800,-0.07206780,0.09534998,-0.
 00000551,-0.00000213,0.00001224,0.00000578,0.00000107,-0.00001370,-0.0
 0004013,-0.00001677,0.00002608,0.00001383,-0.00000530,-0.00002214,0.00
 000805,0.00002726,-0.00001781,-0.00000206,0.00000224,0.00000255,-0.000
 03028,-0.00001314,0.00004624,0.00002338,-0.00000513,-0.00002152,-0.000
 00108,0.00000215,0.00000205,-0.00000176,-0.00000117,0.00000320,-0.0000
 0078,0.00000356,-0.00000325,-0.00000097,0.00000045,0.00000290,-0.00000
 162,-0.00000161,-0.00000164,-0.00001162,-0.00003837,0.00002650,0.00005
 905,-0.00001761,-0.00008345,-0.00388439,0.00324059,-0.00067523,0.00036
 656,0.00007652,0.00043090,0.00098875,-0.00023320,-0.00180502,-0.000040
 43,0.00002875,0.00004155,-0.00005347,0.00000857,0.00005449,0.00000454,
 0.00000208,0.00000996,-0.00006679,-0.00002533,0.00002684,0.00000229,0.
 00001081,-0.00002131,0.00203727,-0.00274754,-0.00296755,-0.00358878,0.
 00572547,-0.00723769,-0.00207498,0.00036910,-0.00115834,0.00111081,0.0
 0012304,0.00010852,0.05764172,-0.15590690,0.11941620,-0.06421402,0.163
 45348,0.00000340,0.00000029,-0.00001628,-0.00000507,-0.00000070,0.0000
 1841,-0.00005737,0.00011569,0.00004767,0.00003246,-0.00004411,-0.00000
 661,0.00006323,-0.00003261,-0.00010973,0.00000462,-0.00000086,-0.00001
 089,0.00003499,0.00001453,-0.00005555,-0.00002688,0.00000826,0.0000304
 3,0.00000264,-0.00000253,-0.00000316,0.00000266,0.00000026,-0.00000468
 ,0.00000380,-0.00000222,0.00000459,0.00000135,-0.00000034,-0.00000396,
 0.00000057,0.00000176,0.00000208,0.00005830,-0.00009844,-0.00004528,-0
 .00008801,0.00000200,0.00010640,0.00377732,0.01151616,-0.03348635,0.00
 041398,-0.00031284,0.00010266,-0.00217341,0.00977972,-0.00135217,0.000
 05937,-0.00004481,-0.00006141,-0.00001299,-0.00007300,0.00012250,-0.00
 000236,0.00000208,0.00000439,0.00000690,0.00017557,-0.00010591,-0.0000
 6762,-0.00020604,0.00009003,-0.00091917,-0.00315939,0.00313171,-0.0039
 6785,0.00572602,-0.00409482,-0.00108701,0.00000511,0.00103965,-0.00025
 210,-0.00049192,0.00057113,-0.06519787,0.11064054,-0.17661160,0.065296
 63,-0.12691653,0.20130718,-0.00000433,-0.00000183,0.00001897,0.0000063
 1,0.00000198,-0.00002174,-0.00017870,-0.00015723,0.00024726,0.00000982
 ,-0.00002076,-0.00002899,-0.00001751,0.00008488,0.00003317,-0.00001671
 ,0.00000098,0.00002926,-0.00004992,-0.00003641,0.00008143,0.00003290,-
 0.00001012,-0.00003479,-0.00000251,0.00000288,0.00000322,-0.00000321,-
 0.00000033,0.00000577,-0.00000498,0.00000340,-0.00000529,-0.00000133,0
 .00000027,0.00000460,-0.00000098,-0.00000194,-0.00000253,-0.00005864,0
 .00001313,0.00006606,0.00011894,-0.00001351,-0.00015122,-0.00580088,0.
 02519289,0.01464516,-0.00053860,0.00084428,-0.00015739,-0.00037609,-0.
 00136160,0.00371190,-0.00006356,0.00004540,0.00006806,0.00000561,-0.00
 003861,0.00001655,-0.00000773,0.00000048,0.00001513,-0.00004078,0.0000
 8102,-0.00002375,0.00004516,-0.00000356,0.00002857,0.00003943,0.000797
 55,0.00009962,0.00425739,-0.03010042,-0.00895284,0.00117904,0.00086864
 ,-0.00036325,0.00055556,0.00070778,0.00124565,-0.05083821,-0.02245343,
 -0.01077626,0.00191009,0.01116654,0.00358012,0.05793254,0.00000602,0.0
 0000584,-0.00001849,-0.00000656,-0.00000302,0.00002005,0.00005485,0.00
 004581,-0.00003388,-0.00002773,0.00002326,0.00000807,0.00000781,0.0000
 0439,0.00000759,0.00000030,-0.00000205,-0.00000628,0.00004434,0.000032
 31,-0.00007172,-0.00003116,0.00000779,0.00003087,0.00000171,-0.0000025
 8,-0.00000288,0.00000276,0.00000091,-0.00000452,0.00000157,-0.00000718
 ,0.00000609,0.00000124,-0.00000034,-0.00000404,0.00000207,0.00000220,0
 .00000208,0.00004704,0.00000459,-0.00006191,-0.00010110,0.00000822,0.0
 0012864,0.00301046,0.00244004,-0.00081134,-0.00014132,-0.00008429,-0.0
 0017192,-0.00146620,-0.00008180,0.00096250,0.00005710,-0.00003734,-0.0
 0005912,0.00001958,-0.00000496,-0.00000717,0.00000130,-0.00000145,-0.0
 0000908,0.00002412,-0.00001190,-0.00002810,0.00000655,-0.00005075,0.00
 000046,0.00083483,0.00038309,-0.00130082,0.00149065,-0.00664889,-0.000
 48987,-0.00012648,0.00071477,-0.00021189,-0.00075310,0.00001128,0.0000
 3296,-0.01559542,-0.29955680,-0.08035278,-0.00268196,-0.01571512,-0.00
 584439,0.01694687,0.31702127,0.00000144,0.00000770,-0.00002168,-0.0000
 0350,-0.00000457,0.00002322,0.00015558,0.00024053,-0.00022278,0.000002
 75,0.00000222,0.00002839,0.00001848,-0.00008384,-0.00008068,0.00001663
 ,0.00000060,-0.00003396,0.00004571,0.00005105,-0.00008948,-0.00003083,
 0.00001045,0.00003458,0.00000224,-0.00000213,-0.00000303,0.00000338,-0
 .00000045,-0.00000535,0.00000518,-0.00000820,0.00000796,0.00000107,0.0
 0000009,-0.00000441,0.00000100,0.00000178,0.00000216,0.00008263,-0.000
 06518,-0.00006260,-0.00011814,-0.00000561,0.00016941,0.01014033,-0.032
 21728,-0.01833928,0.00094955,-0.00101474,0.00039753,-0.00071463,0.0061
 5089,-0.00526987,0.00005812,-0.00003688,-0.00006793,-0.00008704,0.0000
 6491,0.00002131,0.00001628,-0.00000120,-0.00001502,0.00005787,-0.00014
 214,-0.00004906,0.00003520,-0.00000940,-0.00004782,-0.00150454,-0.0010
 0818,0.00276357,-0.00181027,-0.00884890,-0.00252905,0.00055650,-0.0000
 7179,-0.00008735,-0.00026985,0.00035944,0.00021546,-0.00807686,-0.0708
 0327,-0.07113673,0.00262803,0.02017912,0.00967974,-0.00019151,0.088546
 01,0.08458337,-0.00001645,-0.00001338,0.00014289,0.00003124,0.00000901
 ,-0.00015616,-0.00006396,-0.00019347,0.00022167,0.00008201,-0.00014178
 ,-0.00011808,0.00006969,-0.00002023,-0.00005957,-0.00002312,0.00001158
 ,0.00002269,-0.00028052,-0.00017882,0.00050985,0.00020915,-0.00006680,
 -0.00023022,-0.00001636,0.00001693,0.00001932,-0.00001747,-0.00000108,
 0.00003150,-0.00003200,0.00002689,-0.00004662,-0.00001073,0.00000266,0
 .00003063,-0.00000384,-0.00001242,-0.00001584,-0.00031528,-0.00005043,
 0.00045189,0.00070331,-0.00013631,-0.00092760,0.00513391,-0.00092372,-
 0.00264652,0.00006644,-0.00038043,0.00046353,0.00282733,0.00560234,-0.
 00420721,-0.00039644,0.00030994,0.00043271,-0.00007288,-0.00000910,0.0
 0005198,-0.00003506,0.00000085,0.00002804,-0.00008886,0.00033370,0.000
 14359,0.00000313,0.00005855,-0.00010010,-0.00965917,-0.00201974,0.0016
 3017,-0.07890221,0.01657182,-0.01509866,0.00375900,0.01539097,0.006863
 66,0.00752536,0.01663453,0.00424452,-0.00433439,-0.03785191,-0.0145274
 9,0.00254305,0.00049630,0.00112966,-0.00725690,-0.00175134,-0.00190428
 ,0.31702274,0.00001547,0.00005867,-0.00000911,-0.00000487,-0.00002331,
 -0.00000032,-0.00000790,-0.00012774,0.00018424,-0.00013547,0.00002474,
 -0.00003209,-0.00007660,0.00014261,0.00010607,-0.00004305,-0.00000891,
 0.00001620,0.00002800,0.00011045,-0.00004997,-0.00000921,-0.00001210,-
 0.00000248,-0.00000703,0.00000174,0.00000039,0.00000256,0.00000310,0.0
 0000105,-0.00002341,-0.00004843,0.00001286,-0.00000205,0.00000116,0.00
 000274,0.00001270,0.00000256,-0.00000124,-0.00000333,0.00007091,-0.000
 02809,-0.00003349,-0.00013027,0.00004632,-0.00251453,0.00783175,0.0034
 9523,-0.00054566,0.00065531,-0.00031654,0.00213892,-0.01173678,0.00209
 914,-0.00001355,0.00008493,0.00001711,0.00006302,0.00009874,-0.0000536
 8,0.00001376,-0.00001251,-0.00003049,0.00011570,-0.00026808,-0.0000250
 1,0.00008174,0.00006167,-0.00015244,0.00308342,0.00748489,-0.00158565,
 -0.02123388,-0.23112329,-0.08286005,-0.00091416,-0.03750219,-0.0149713
 7,0.00117723,-0.01750492,-0.01697339,-0.00393449,-0.02757988,-0.014002
 16,0.00034059,0.00188207,-0.00008387,-0.00377667,0.00059345,-0.0011964
 2,-0.19146666,0.51815234,0.00003280,0.00002012,-0.00004259,-0.00002752
 ,-0.00000879,0.00004457,-0.00005183,0.00001228,0.00006474,-0.00006509,
 0.00001963,-0.00004338,-0.00001604,0.00004932,0.00007236,-0.00002367,-
 0.00000606,-0.00000336,0.00011291,0.00006608,-0.00014655,-0.00008371,0
 .00002131,0.00007531,0.00000214,-0.00000801,-0.00000676,0.00000764,0.0
 0000485,-0.00000990,-0.00001495,-0.00002539,0.00001485,0.00000519,-0.0
 0000175,-0.00000978,0.00001066,0.00000879,0.00000533,0.00005046,0.0000
 0882,-0.00010181,-0.00024532,0.00002867,0.00027032,-0.00132157,0.00416
 486,0.00447998,-0.00028608,0.00019046,0.00003908,-0.00160689,-0.002710
 88,-0.00005849,0.00014452,-0.00008831,-0.00012996,0.00002972,0.0000104
 8,0.00005444,-0.00001985,-0.00001136,-0.00001167,-0.00000100,-0.000083
 84,0.00007597,-0.00004182,-0.00004245,-0.00006986,0.00095020,0.0015637
 2,0.00128859,-0.02987716,-0.05616152,-0.11004571,0.00147795,0.01385765
 ,0.01372292,-0.00424435,-0.03456267,-0.00928052,0.00218104,-0.01979701
 ,-0.00895674,0.00206400,0.00041022,0.00068907,-0.00290656,-0.00026237,
 0.00063736,0.18611431,-0.00424599,0.21857011,0.00001493,0.00001091,-0.
 00012598,-0.00002839,-0.00000871,0.00013919,0.00010409,0.00015097,-0.0
 0022539,-0.00011334,0.00014848,0.00012629,-0.00009060,0.00005573,0.000
 10928,0.00002380,-0.00001284,-0.00001802,0.00025901,0.00017197,-0.0004
 6829,-0.00018650,0.00005943,0.00020408,0.00001491,-0.00001520,-0.00001
 745,0.00001566,0.00000069,-0.00002860,0.00003048,-0.00002270,0.0000403
 9,0.00000910,-0.00000221,-0.00002743,0.00000317,0.00001088,0.00001393,
 0.00029705,0.00010946,-0.00045895,-0.00065457,0.00012658,0.00085577,-0
 .00248373,0.00504160,0.00204449,-0.00014892,0.00067488,-0.00101736,-0.
 00237026,-0.01163955,0.00562705,0.00035548,-0.00028005,-0.00038739,0.0
 0014763,0.00001764,-0.00011468,0.00004026,-0.00000085,-0.00003762,0.00
 015198,-0.00042647,-0.00015717,0.00000125,-0.00002659,0.00004426,0.001
 45863,0.00668355,-0.00295226,0.00264138,-0.00605946,0.00288340,0.00052
 229,-0.00435942,0.00014130,-0.00047489,0.00010605,-0.00086072,0.004706
 77,-0.00428649,-0.00140555,0.00013943,0.00009382,-0.00061432,-0.000831
 22,0.00012121,-0.00006653,-0.23845068,0.21767286,-0.15235009,0.2348958
 0,0.00000338,-0.00002006,-0.00002244,-0.00000857,0.00000620,0.00003006
 ,0.00002913,0.00014598,-0.00016524,0.00006899,0.00004590,0.00003526,0.
 00000336,-0.00006658,-0.00001819,0.00002229,0.00000222,-0.00002013,0.0
 0005288,-0.00000575,-0.00008353,-0.00004183,0.00001990,0.00004647,0.00
 000634,-0.00000499,-0.00000477,0.00000310,-0.00000039,-0.00000689,0.00
 001119,0.00001238,0.00000248,0.00000329,-0.00000100,-0.00000754,-0.000
 00275,0.00000266,0.00000358,0.00007770,-0.00001120,-0.00009037,-0.0001
 4513,0.00008356,0.00018238,0.00121893,-0.00231953,-0.00085418,0.000067
 89,-0.00022238,-0.00000073,-0.00350609,0.00347308,0.00096815,0.0000934
 2,-0.00010356,-0.00009509,-0.00001624,-0.00003994,0.00002078,0.0000001
 8,0.00000092,-0.00000052,0.00003315,0.00002223,-0.00000201,-0.00003352
 ,-0.00006144,0.00006456,0.00262522,-0.00361975,0.00019078,0.02563278,-
 0.03215985,0.01725091,-0.00057224,-0.00481214,-0.00404223,0.00016123,0
 .00034783,0.00040923,-0.00150160,0.00175900,0.00174652,-0.00113927,-0.
 00022789,-0.00067339,0.00121744,0.00090925,-0.00009463,0.17975155,-0.2
 1118270,0.09757911,-0.20411616,0.24802803,-0.00001644,-0.00001161,0.00
 004547,0.00001679,0.00000549,-0.00004901,-0.00000482,-0.00002054,0.000
 02656,0.00008025,-0.00004021,0.00001845,0.00001776,-0.00003225,-0.0000
 6107,0.00000844,0.00000478,0.00000845,-0.00010209,-0.00006695,0.000164
 82,0.00007639,-0.00002213,-0.00007630,-0.00000372,0.00000680,0.0000068
 2,-0.00000669,-0.00000252,0.00001057,-0.00000010,0.00001643,-0.0000149
 5,-0.00000403,0.00000120,0.00001003,-0.00000553,-0.00000564,-0.0000055
 1,-0.00007840,-0.00001635,0.00014551,0.00024000,-0.00003702,-0.0003004
 1,0.00061271,-0.00064718,-0.00136644,-0.00000409,0.00011068,-0.0000792
 8,0.00201672,0.00266013,-0.00077492,-0.00013835,0.00009532,0.00013815,
 -0.00002930,0.00001141,0.00000512,0.00000065,0.00000217,0.00000633,0.0
 0003866,0.00010521,-0.00003629,0.00000242,0.00000401,-0.00000518,-0.00
 204633,-0.00093927,-0.00103112,0.01330100,-0.01472373,0.00446936,0.000
 06070,-0.00087093,-0.00005158,0.00048553,-0.00234715,-0.00107185,-0.00
 033386,-0.00168359,0.00352219,-0.00051000,0.00014560,-0.00097925,-0.00
 028437,0.00000724,-0.00049795,-0.16249425,0.13063899,-0.11118790,0.149
 10437,-0.11234840,0.10901117\\-0.00000223,-0.00001163,0.00000687,0.000
 00133,-0.00000444,-0.00000133,0.00000243,-0.00000402,0.00000010,0.0000
 0049,0.00000285,-0.00000134,0.00000112,0.00000068,-0.00000016,-0.00000
 082,0.00000130,0.00000060,0.00000492,0.00000615,-0.00000361,0.00001151
 ,-0.00000055,0.00000544,-0.00000010,0.00000074,-0.00000122,-0.00000315
 ,-0.00000313,-0.00000027,-0.00000137,0.00001532,-0.00000996,-0.0000011
 4,0.00000050,0.00000276,0.00000241,-0.00000186,0.00000181,0.00000048,-
 0.00000225,0.00000097,-0.00000030,-0.00001447,-0.00000181,0.00000575,-
 0.00000823,0.00000224,-0.00000038,0.00000167,-0.00000124,-0.00000061,0
 .00001678,-0.00000415,-0.00000663,0.00000686,0.00000397,-0.00000100,0.
 00000253,-0.00000130,-0.00000056,-0.00000237,0.00000209,-0.00000336,-0
 .00000182,0.00000228,0.00000087,-0.00000064,-0.00000062,-0.00000115,-0
 .00000935,0.00000300,-0.00000697,-0.00000307,-0.00000365,0.00000078,-0
 .00000113,0.00000238,0.00000138,0.00000217,-0.00000020,0.00000303,0.00
 000708,0.00000180,-0.00000217,0.00000282,-0.00000437,-0.00000332,-0.00
 000055,-0.00000039,0.00000129,0.00000281,0.00000168,-0.00000254,-0.000
 00076,-0.00000240\\\@


 I LOVE MANKIND - IT'S PEOPLE I CAN'T STAND.
     -- LINUS OF PEANUTS
 Job cpu time:       0 days  9 hours 55 minutes  3.7 seconds.
 Elapsed time:       0 days  0 hours 16 minutes 32.8 seconds.
 File lengths (MBytes):  RWF=   1017 Int=      0 D2E=      0 Chk=     35 Scr=      1
 Normal termination of Gaussian 16 at Fri Jun 28 18:45:04 2019.
