 Entering Gaussian System, Link 0=g16
 Initial command:
 /opt/gaussian/16.B.01/g16/l1.exe "/oasis/scratch/comet/mayes/temp_project/Gau-1095.inp" -scrdir="/oasis/scratch/comet/mayes/temp_project/"
 Entering Link 1 = /opt/gaussian/16.B.01/g16/l1.exe PID=      1096.
  
 Copyright (c) 1988-2017, Gaussian, Inc.  All Rights Reserved.
  
 This is part of the Gaussian(R) 16 program.  It is based on
 the Gaussian(R) 09 system (copyright 2009, Gaussian, Inc.),
 the Gaussian(R) 03 system (copyright 2003, Gaussian, Inc.),
 the Gaussian(R) 98 system (copyright 1998, Gaussian, Inc.),
 the Gaussian(R) 94 system (copyright 1995, Gaussian, Inc.),
 the Gaussian 92(TM) system (copyright 1992, Gaussian, Inc.),
 the Gaussian 90(TM) system (copyright 1990, Gaussian, Inc.),
 the Gaussian 88(TM) system (copyright 1988, Gaussian, Inc.),
 the Gaussian 86(TM) system (copyright 1986, Carnegie Mellon
 University), and the Gaussian 82(TM) system (copyright 1983,
 Carnegie Mellon University). Gaussian is a federally registered
 trademark of Gaussian, Inc.
  
 This software contains proprietary and confidential information,
 including trade secrets, belonging to Gaussian, Inc.
  
 This software is provided under written license and may be
 used, copied, transmitted, or stored only in accord with that
 written license.
  
 The following legend is applicable only to US Government
 contracts under FAR:
  
                    RESTRICTED RIGHTS LEGEND
  
 Use, reproduction and disclosure by the US Government is
 subject to restrictions as set forth in subparagraphs (a)
 and (c) of the Commercial Computer Software - Restricted
 Rights clause in FAR 52.227-19.
  
 Gaussian, Inc.
 340 Quinnipiac St., Bldg. 40, Wallingford CT 06492
  
  
 ---------------------------------------------------------------
 Warning -- This program may not be used in any manner that
 competes with the business of Gaussian, Inc. or will provide
 assistance to any competitor of Gaussian, Inc.  The licensee
 of this program is prohibited from giving any competitor of
 Gaussian, Inc. access to this program.  By using this program,
 the user acknowledges that Gaussian, Inc. is engaged in the
 business of creating and licensing software in the field of
 computational chemistry and represents and warrants to the
 licensee that it is not a competitor of Gaussian, Inc. and that
 it will not use this program in any manner prohibited above.
 ---------------------------------------------------------------
  

 Cite this work as:
 Gaussian 16, Revision B.01,
 M. J. Frisch, G. W. Trucks, H. B. Schlegel, G. E. Scuseria, 
 M. A. Robb, J. R. Cheeseman, G. Scalmani, V. Barone, 
 G. A. Petersson, H. Nakatsuji, X. Li, M. Caricato, A. V. Marenich, 
 J. Bloino, B. G. Janesko, R. Gomperts, B. Mennucci, H. P. Hratchian, 
 J. V. Ortiz, A. F. Izmaylov, J. L. Sonnenberg, D. Williams-Young, 
 F. Ding, F. Lipparini, F. Egidi, J. Goings, B. Peng, A. Petrone, 
 T. Henderson, D. Ranasinghe, V. G. Zakrzewski, J. Gao, N. Rega, 
 G. Zheng, W. Liang, M. Hada, M. Ehara, K. Toyota, R. Fukuda, 
 J. Hasegawa, M. Ishida, T. Nakajima, Y. Honda, O. Kitao, H. Nakai, 
 T. Vreven, K. Throssell, J. A. Montgomery, Jr., J. E. Peralta, 
 F. Ogliaro, M. J. Bearpark, J. J. Heyd, E. N. Brothers, K. N. Kudin, 
 V. N. Staroverov, T. A. Keith, R. Kobayashi, J. Normand, 
 K. Raghavachari, A. P. Rendell, J. C. Burant, S. S. Iyengar, 
 J. Tomasi, M. Cossi, J. M. Millam, M. Klene, C. Adamo, R. Cammi, 
 J. W. Ochterski, R. L. Martin, K. Morokuma, O. Farkas, 
 J. B. Foresman, and D. J. Fox, Gaussian, Inc., Wallingford CT, 2016.
 
 ******************************************
 Gaussian 16:  ES64L-G16RevB.01 20-Dec-2017
                28-Jul-2019 
 ******************************************
 %RWF=/oasis/scratch/comet/mayes/temp_project/s12but_17_84_f2.rwf
 %NoSave
 %Chk=/oasis/scratch/comet/mayes/temp_project/s12but_17_84_f2.chk
 %cpu=0-23
 SetSPE:  set environment variable "MP_BIND" = "yes"
 SetSPE:  set environment variable "MP_BLIST" = "0,1,2,3,4,5,6,7,8,9,10,11,12,13,14,15,16,17,18,19,20,21,22,23"
 Will use up to   24 processors via shared memory.
 ---------------------------------------------------------
 # m062x/Def2SVP nosymm scf=xqc opt guess=mix freq=noraman
 ---------------------------------------------------------
 1/18=20,19=15,26=3,38=1/1,3;
 2/9=110,12=2,15=1,17=6,18=5,40=1/2;
 3/5=43,7=101,11=2,25=1,30=1,71=1,74=-55/1,2,3;
 4/13=-1/1;
 5/5=2,8=3,13=1,38=5/2,8;
 6/7=2,8=2,9=2,10=2,28=1/1;
 7/30=1/1,2,3,16;
 1/18=20,19=15,26=3/3(2);
 2/9=110,15=1/2;
 99//99;
 2/9=110,15=1/2;
 3/5=43,7=101,11=2,25=1,30=1,71=1,74=-55/1,2,3;
 4/5=5,16=3,69=1/1;
 5/5=2,8=3,13=1,38=5/2,8;
 7/30=1/1,2,3,16;
 1/18=20,19=15,26=3/3(-5);
 2/9=110,15=1/2;
 6/7=2,8=2,9=2,10=2,19=2,28=1/1;
 99/9=1/99;
 ----------------------------------------------------------------------
 radical calculation of fragment 2 from fragment pair [17, 84] and s12b
 ut.com
 ----------------------------------------------------------------------
 Symbolic Z-matrix:
 Charge =  0 Multiplicity = 3
 C                     6.71529   8.9299    3.22859 
 C                     6.0787    7.86027   4.11792 
 C                     4.61335   7.74277   3.81669 
 C                     5.76463   7.15627   6.58292 
 C                     6.42622   5.82603   6.37062 
 C                     5.80205   4.71172   6.01885 
 C                     5.97457   7.64297   8.02176 
 C                     6.30813   8.19608   5.59577 
 C                     5.4003    6.7199    9.10338 
 C                     3.9152    6.5748    8.94295 
 C                     5.29386   6.38721   11.66358 
 C                     5.95251   5.0404    11.59695 
 C                     5.31558   3.8856    11.4725 
 C                     5.61323   7.08239   12.9926 
 C                     5.74437   7.26959   10.49304 
 C                     5.139     6.33089   14.24246 
 C                     3.64849   6.1565    14.22321 
 C                     5.23879   6.38673   16.82374 
 C                     5.92008   5.05231   16.90921 
 C                     5.30117   3.88556   17.01114 
 C                     5.64164   7.27878   18.00424 
 C                     5.58013   7.0859    15.50228 
 C                     5.28205   6.71908   19.38598 
 C                     3.7994    6.52215   19.5095 
 C                     5.5735    7.16767   21.91359 
 C                     6.29134   5.86993   22.14351 
 C                     5.71126   4.72595   22.47492 
 C                     6.04296   8.23203   22.91241 
 C                     5.79593   7.66331   20.47965 
 C                     5.79786   7.88425   24.38501 
 C                     4.33415   7.69101   24.65329 
 C                     6.35837   8.98496   25.28749 
 H                     6.59036   8.68668   2.17332 
 H                     7.78223   9.02382   3.4385 
 H                     6.25091   9.90294   3.40737 
 H                     6.54693   6.89559   3.90254 
 H                     4.69237   7.03178   6.40602 
 H                     7.50519   5.8082    6.52585 
 H                     4.7294    4.70291   5.85942 
 H                     6.33544   3.77959   5.88129 
 H                     5.52405   8.63662   8.12653 
 H                     7.04853   7.76933   8.20053 
 H                     5.84447   9.16537   5.81246 
 H                     7.38349   8.32258   5.76555 
 H                     5.85063   5.72903   8.9956 
 H                     4.21252   6.23809   11.59555 
 H                     7.04099   5.04654   11.65785 
 H                     4.23345   3.85234   11.41021 
 H                     5.84773   2.94372   11.42923 
 H                     5.16068   8.08065   12.98519 
 H                     6.69648   7.23393   13.06301 
 H                     5.29092   8.26118   10.60484 
 H                     6.82881   7.41604   10.55528 
 H                     5.59552   5.337     14.25006 
 H                     4.15897   6.21776   16.86335 
 H                     7.00963   5.07874   16.88239 
 H                     4.21844   3.83215   17.0405 
 H                     5.84913   2.95356   17.06876 
 H                     5.16532   8.25848   17.88318 
 H                     6.72307   7.45306   17.96562 
 H                     5.11866   8.0801    15.50028 
 H                     6.66326   7.24712   15.45522 
 H                     5.764     5.74482   19.50752 
 H                     4.50414   6.99309   22.06375 
 H                     7.37397   5.90394   22.01958 
 H                     4.63613   4.66526   22.60343 
 H                     6.28449   3.81997   22.62619 
 H                     5.53668   9.17728   22.68521 
 H                     7.11423   8.41184   22.76644 
 H                     5.30888   8.63842   20.36464 
 H                     6.86776   7.83213   20.3246 
 H                     6.31021   6.94499   24.61198 
 H                     5.8486    9.93282   25.09751 
 H                     7.4235    9.13383   25.10151 
 H                     6.2225    8.73531   26.3399 
 C                     3.78305   6.5812    25.12091 
 H                     3.70216   8.5531    24.44128 
 H                     4.38597   5.70531   25.33389 
 H                     2.7188    6.50747   25.30417 
 C                     3.1997    5.36221   19.73231 
 H                     2.12277   5.28434   19.81187 
 H                     3.77659   4.45042   19.84139 
 H                     3.19596   7.42382   19.40284 
 H                     3.06808   7.07928   14.21227 
 C                     3.28057   5.43583   8.70898 
 H                     3.34154   7.49767   9.03133 
 H                     3.82743   4.50389   8.61665 
 H                     2.20387   5.39576   8.60267 
 C                     4.0165    6.66355   3.33384 
 H                     4.02185   8.63586   4.0168 
 H                     4.57814   5.7581    3.13189 
 H                     2.95425   6.64504   3.12664 
 

 GradGradGradGradGradGradGradGradGradGradGradGradGradGradGradGradGradGrad
 Berny optimization.
 Initialization pass.
                           ----------------------------
                           !    Initial Parameters    !
                           ! (Angstroms and Degrees)  !
 --------------------------                            --------------------------
 ! Name  Definition              Value          Derivative Info.                !
 --------------------------------------------------------------------------------
 ! R1    R(1,2)                  1.5298         estimate D2E/DX2                !
 ! R2    R(1,33)                 1.0901         estimate D2E/DX2                !
 ! R3    R(1,34)                 1.0914         estimate D2E/DX2                !
 ! R4    R(1,35)                 1.0929         estimate D2E/DX2                !
 ! R5    R(2,3)                  1.5006         estimate D2E/DX2                !
 ! R6    R(2,8)                  1.5328         estimate D2E/DX2                !
 ! R7    R(2,36)                 1.0937         estimate D2E/DX2                !
 ! R8    R(3,89)                 1.3244         estimate D2E/DX2                !
 ! R9    R(3,90)                 1.0897         estimate D2E/DX2                !
 ! R10   R(4,5)                  1.5008         estimate D2E/DX2                !
 ! R11   R(4,7)                  1.5334         estimate D2E/DX2                !
 ! R12   R(4,8)                  1.5333         estimate D2E/DX2                !
 ! R13   R(4,37)                 1.0939         estimate D2E/DX2                !
 ! R14   R(5,6)                  1.3248         estimate D2E/DX2                !
 ! R15   R(5,38)                 1.0902         estimate D2E/DX2                !
 ! R16   R(6,39)                 1.0845         estimate D2E/DX2                !
 ! R17   R(6,40)                 1.0827         estimate D2E/DX2                !
 ! R18   R(7,9)                  1.5335         estimate D2E/DX2                !
 ! R19   R(7,41)                 1.096          estimate D2E/DX2                !
 ! R20   R(7,42)                 1.0961         estimate D2E/DX2                !
 ! R21   R(8,43)                 1.0961         estimate D2E/DX2                !
 ! R22   R(8,44)                 1.096          estimate D2E/DX2                !
 ! R23   R(9,10)                 1.5008         estimate D2E/DX2                !
 ! R24   R(9,15)                 1.5335         estimate D2E/DX2                !
 ! R25   R(9,45)                 1.0937         estimate D2E/DX2                !
 ! R26   R(10,85)                1.3247         estimate D2E/DX2                !
 ! R27   R(10,86)                1.0902         estimate D2E/DX2                !
 ! R28   R(11,12)                1.5007         estimate D2E/DX2                !
 ! R29   R(11,14)                1.5335         estimate D2E/DX2                !
 ! R30   R(11,15)                1.5335         estimate D2E/DX2                !
 ! R31   R(11,46)                1.0937         estimate D2E/DX2                !
 ! R32   R(12,13)                1.3247         estimate D2E/DX2                !
 ! R33   R(12,47)                1.0902         estimate D2E/DX2                !
 ! R34   R(13,48)                1.0844         estimate D2E/DX2                !
 ! R35   R(13,49)                1.0827         estimate D2E/DX2                !
 ! R36   R(14,16)                1.5336         estimate D2E/DX2                !
 ! R37   R(14,50)                1.0961         estimate D2E/DX2                !
 ! R38   R(14,51)                1.0961         estimate D2E/DX2                !
 ! R39   R(15,52)                1.0961         estimate D2E/DX2                !
 ! R40   R(15,53)                1.0961         estimate D2E/DX2                !
 ! R41   R(16,17)                1.5008         estimate D2E/DX2                !
 ! R42   R(16,22)                1.5336         estimate D2E/DX2                !
 ! R43   R(16,54)                1.0938         estimate D2E/DX2                !
 ! R44   R(17,84)                1.0902         estimate D2E/DX2                !
 ! R45   R(18,19)                1.5007         estimate D2E/DX2                !
 ! R46   R(18,21)                1.5335         estimate D2E/DX2                !
 ! R47   R(18,22)                1.5335         estimate D2E/DX2                !
 ! R48   R(18,55)                1.0937         estimate D2E/DX2                !
 ! R49   R(19,20)                1.3247         estimate D2E/DX2                !
 ! R50   R(19,56)                1.0902         estimate D2E/DX2                !
 ! R51   R(20,57)                1.0845         estimate D2E/DX2                !
 ! R52   R(20,58)                1.0827         estimate D2E/DX2                !
 ! R53   R(21,23)                1.5336         estimate D2E/DX2                !
 ! R54   R(21,59)                1.0961         estimate D2E/DX2                !
 ! R55   R(21,60)                1.0961         estimate D2E/DX2                !
 ! R56   R(22,61)                1.0961         estimate D2E/DX2                !
 ! R57   R(22,62)                1.0961         estimate D2E/DX2                !
 ! R58   R(23,24)                1.5008         estimate D2E/DX2                !
 ! R59   R(23,29)                1.5335         estimate D2E/DX2                !
 ! R60   R(23,63)                1.0937         estimate D2E/DX2                !
 ! R61   R(24,80)                1.3247         estimate D2E/DX2                !
 ! R62   R(24,83)                1.0902         estimate D2E/DX2                !
 ! R63   R(25,26)                1.5008         estimate D2E/DX2                !
 ! R64   R(25,28)                1.5333         estimate D2E/DX2                !
 ! R65   R(25,29)                1.5334         estimate D2E/DX2                !
 ! R66   R(25,64)                1.0939         estimate D2E/DX2                !
 ! R67   R(26,27)                1.3248         estimate D2E/DX2                !
 ! R68   R(26,65)                1.0902         estimate D2E/DX2                !
 ! R69   R(27,66)                1.0845         estimate D2E/DX2                !
 ! R70   R(27,67)                1.0827         estimate D2E/DX2                !
 ! R71   R(28,30)                1.5328         estimate D2E/DX2                !
 ! R72   R(28,68)                1.0961         estimate D2E/DX2                !
 ! R73   R(28,69)                1.096          estimate D2E/DX2                !
 ! R74   R(29,70)                1.096          estimate D2E/DX2                !
 ! R75   R(29,71)                1.0961         estimate D2E/DX2                !
 ! R76   R(30,31)                1.5006         estimate D2E/DX2                !
 ! R77   R(30,32)                1.5298         estimate D2E/DX2                !
 ! R78   R(30,72)                1.0937         estimate D2E/DX2                !
 ! R79   R(31,76)                1.3244         estimate D2E/DX2                !
 ! R80   R(31,77)                1.0898         estimate D2E/DX2                !
 ! R81   R(32,73)                1.0929         estimate D2E/DX2                !
 ! R82   R(32,74)                1.0914         estimate D2E/DX2                !
 ! R83   R(32,75)                1.0901         estimate D2E/DX2                !
 ! R84   R(76,78)                1.0845         estimate D2E/DX2                !
 ! R85   R(76,79)                1.0824         estimate D2E/DX2                !
 ! R86   R(80,81)                1.0827         estimate D2E/DX2                !
 ! R87   R(80,82)                1.0845         estimate D2E/DX2                !
 ! R88   R(85,87)                1.0845         estimate D2E/DX2                !
 ! R89   R(85,88)                1.0827         estimate D2E/DX2                !
 ! R90   R(89,91)                1.0845         estimate D2E/DX2                !
 ! R91   R(89,92)                1.0824         estimate D2E/DX2                !
 ! A1    A(2,1,33)             111.0425         estimate D2E/DX2                !
 ! A2    A(2,1,34)             110.8021         estimate D2E/DX2                !
 ! A3    A(2,1,35)             110.5245         estimate D2E/DX2                !
 ! A4    A(33,1,34)            108.5063         estimate D2E/DX2                !
 ! A5    A(33,1,35)            107.9576         estimate D2E/DX2                !
 ! A6    A(34,1,35)            107.8963         estimate D2E/DX2                !
 ! A7    A(1,2,3)              110.1454         estimate D2E/DX2                !
 ! A8    A(1,2,8)              110.184          estimate D2E/DX2                !
 ! A9    A(1,2,36)             108.9096         estimate D2E/DX2                !
 ! A10   A(3,2,8)              110.9079         estimate D2E/DX2                !
 ! A11   A(3,2,36)             108.0266         estimate D2E/DX2                !
 ! A12   A(8,2,36)             108.6033         estimate D2E/DX2                !
 ! A13   A(2,3,89)             125.2436         estimate D2E/DX2                !
 ! A14   A(2,3,90)             115.4047         estimate D2E/DX2                !
 ! A15   A(89,3,90)            119.3507         estimate D2E/DX2                !
 ! A16   A(5,4,7)              110.7154         estimate D2E/DX2                !
 ! A17   A(5,4,8)              110.7171         estimate D2E/DX2                !
 ! A18   A(5,4,37)             107.9616         estimate D2E/DX2                !
 ! A19   A(7,4,8)              109.8974         estimate D2E/DX2                !
 ! A20   A(7,4,37)             108.7889         estimate D2E/DX2                !
 ! A21   A(8,4,37)             108.6943         estimate D2E/DX2                !
 ! A22   A(4,5,6)              125.129          estimate D2E/DX2                !
 ! A23   A(4,5,38)             115.5083         estimate D2E/DX2                !
 ! A24   A(6,5,38)             119.3627         estimate D2E/DX2                !
 ! A25   A(5,6,39)             120.7895         estimate D2E/DX2                !
 ! A26   A(5,6,40)             121.7202         estimate D2E/DX2                !
 ! A27   A(39,6,40)            117.4902         estimate D2E/DX2                !
 ! A28   A(4,7,9)              114.8034         estimate D2E/DX2                !
 ! A29   A(4,7,41)             108.7341         estimate D2E/DX2                !
 ! A30   A(4,7,42)             108.8924         estimate D2E/DX2                !
 ! A31   A(9,7,41)             108.9262         estimate D2E/DX2                !
 ! A32   A(9,7,42)             108.7408         estimate D2E/DX2                !
 ! A33   A(41,7,42)            106.4185         estimate D2E/DX2                !
 ! A34   A(2,8,4)              114.7778         estimate D2E/DX2                !
 ! A35   A(2,8,43)             108.7245         estimate D2E/DX2                !
 ! A36   A(2,8,44)             108.7537         estimate D2E/DX2                !
 ! A37   A(4,8,43)             108.8125         estimate D2E/DX2                !
 ! A38   A(4,8,44)             109.0463         estimate D2E/DX2                !
 ! A39   A(43,8,44)            106.4003         estimate D2E/DX2                !
 ! A40   A(7,9,10)             110.6932         estimate D2E/DX2                !
 ! A41   A(7,9,15)             109.8382         estimate D2E/DX2                !
 ! A42   A(7,9,45)             108.7614         estimate D2E/DX2                !
 ! A43   A(10,9,15)            110.7042         estimate D2E/DX2                !
 ! A44   A(10,9,45)            108.0182         estimate D2E/DX2                !
 ! A45   A(15,9,45)            108.7631         estimate D2E/DX2                !
 ! A46   A(9,10,85)            125.1761         estimate D2E/DX2                !
 ! A47   A(9,10,86)            115.4793         estimate D2E/DX2                !
 ! A48   A(85,10,86)           119.3446         estimate D2E/DX2                !
 ! A49   A(12,11,14)           110.7268         estimate D2E/DX2                !
 ! A50   A(12,11,15)           110.7052         estimate D2E/DX2                !
 ! A51   A(12,11,46)           107.9878         estimate D2E/DX2                !
 ! A52   A(14,11,15)           109.8462         estimate D2E/DX2                !
 ! A53   A(14,11,46)           108.762          estimate D2E/DX2                !
 ! A54   A(15,11,46)           108.7489         estimate D2E/DX2                !
 ! A55   A(11,12,13)           125.1349         estimate D2E/DX2                !
 ! A56   A(11,12,47)           115.5095         estimate D2E/DX2                !
 ! A57   A(13,12,47)           119.3555         estimate D2E/DX2                !
 ! A58   A(12,13,48)           120.793          estimate D2E/DX2                !
 ! A59   A(12,13,49)           121.7239         estimate D2E/DX2                !
 ! A60   A(48,13,49)           117.4831         estimate D2E/DX2                !
 ! A61   A(11,14,16)           114.8212         estimate D2E/DX2                !
 ! A62   A(11,14,50)           108.7255         estimate D2E/DX2                !
 ! A63   A(11,14,51)           108.9167         estimate D2E/DX2                !
 ! A64   A(16,14,50)           108.9126         estimate D2E/DX2                !
 ! A65   A(16,14,51)           108.7245         estimate D2E/DX2                !
 ! A66   A(50,14,51)           106.4134         estimate D2E/DX2                !
 ! A67   A(9,15,11)            114.8049         estimate D2E/DX2                !
 ! A68   A(9,15,52)            108.8986         estimate D2E/DX2                !
 ! A69   A(9,15,53)            108.7439         estimate D2E/DX2                !
 ! A70   A(11,15,52)           108.7328         estimate D2E/DX2                !
 ! A71   A(11,15,53)           108.9166         estimate D2E/DX2                !
 ! A72   A(52,15,53)           106.4185         estimate D2E/DX2                !
 ! A73   A(14,16,17)           110.7082         estimate D2E/DX2                !
 ! A74   A(14,16,22)           109.8357         estimate D2E/DX2                !
 ! A75   A(14,16,54)           108.7768         estimate D2E/DX2                !
 ! A76   A(17,16,22)           110.6972         estimate D2E/DX2                !
 ! A77   A(17,16,54)           108.0006         estimate D2E/DX2                !
 ! A78   A(22,16,54)           108.7597         estimate D2E/DX2                !
 ! A79   A(16,17,84)           115.5004         estimate D2E/DX2                !
 ! A80   A(19,18,21)           110.7409         estimate D2E/DX2                !
 ! A81   A(19,18,22)           110.6972         estimate D2E/DX2                !
 ! A82   A(19,18,55)           107.9859         estimate D2E/DX2                !
 ! A83   A(21,18,22)           109.8571         estimate D2E/DX2                !
 ! A84   A(21,18,55)           108.7454         estimate D2E/DX2                !
 ! A85   A(22,18,55)           108.7495         estimate D2E/DX2                !
 ! A86   A(18,19,20)           125.1318         estimate D2E/DX2                !
 ! A87   A(18,19,56)           115.515          estimate D2E/DX2                !
 ! A88   A(20,19,56)           119.3532         estimate D2E/DX2                !
 ! A89   A(19,20,57)           120.7937         estimate D2E/DX2                !
 ! A90   A(19,20,58)           121.7242         estimate D2E/DX2                !
 ! A91   A(57,20,58)           117.4821         estimate D2E/DX2                !
 ! A92   A(18,21,23)           114.8157         estimate D2E/DX2                !
 ! A93   A(18,21,59)           108.7088         estimate D2E/DX2                !
 ! A94   A(18,21,60)           108.9393         estimate D2E/DX2                !
 ! A95   A(23,21,59)           108.8953         estimate D2E/DX2                !
 ! A96   A(23,21,60)           108.7316         estimate D2E/DX2                !
 ! A97   A(59,21,60)           106.4247         estimate D2E/DX2                !
 ! A98   A(16,22,18)           114.7981         estimate D2E/DX2                !
 ! A99   A(16,22,61)           108.9019         estimate D2E/DX2                !
 ! A100  A(16,22,62)           108.748          estimate D2E/DX2                !
 ! A101  A(18,22,61)           108.748          estimate D2E/DX2                !
 ! A102  A(18,22,62)           108.9069         estimate D2E/DX2                !
 ! A103  A(61,22,62)           106.4125         estimate D2E/DX2                !
 ! A104  A(21,23,24)           110.714          estimate D2E/DX2                !
 ! A105  A(21,23,29)           109.8328         estimate D2E/DX2                !
 ! A106  A(21,23,63)           108.7779         estimate D2E/DX2                !
 ! A107  A(24,23,29)           110.68           estimate D2E/DX2                !
 ! A108  A(24,23,63)           108.0171         estimate D2E/DX2                !
 ! A109  A(29,23,63)           108.7568         estimate D2E/DX2                !
 ! A110  A(23,24,80)           125.1698         estimate D2E/DX2                !
 ! A111  A(23,24,83)           115.4832         estimate D2E/DX2                !
 ! A112  A(80,24,83)           119.347          estimate D2E/DX2                !
 ! A113  A(26,25,28)           110.7332         estimate D2E/DX2                !
 ! A114  A(26,25,29)           110.695          estimate D2E/DX2                !
 ! A115  A(26,25,64)           107.9721         estimate D2E/DX2                !
 ! A116  A(28,25,29)           109.9007         estimate D2E/DX2                !
 ! A117  A(28,25,64)           108.704          estimate D2E/DX2                !
 ! A118  A(29,25,64)           108.7696         estimate D2E/DX2                !
 ! A119  A(25,26,27)           125.142          estimate D2E/DX2                !
 ! A120  A(25,26,65)           115.5054         estimate D2E/DX2                !
 ! A121  A(27,26,65)           119.3525         estimate D2E/DX2                !
 ! A122  A(26,27,66)           120.8012         estimate D2E/DX2                !
 ! A123  A(26,27,67)           121.7157         estimate D2E/DX2                !
 ! A124  A(66,27,67)           117.483          estimate D2E/DX2                !
 ! A125  A(25,28,30)           114.7956         estimate D2E/DX2                !
 ! A126  A(25,28,68)           108.7957         estimate D2E/DX2                !
 ! A127  A(25,28,69)           109.05           estimate D2E/DX2                !
 ! A128  A(30,28,68)           108.7201         estimate D2E/DX2                !
 ! A129  A(30,28,69)           108.7511         estimate D2E/DX2                !
 ! A130  A(68,28,69)           106.4015         estimate D2E/DX2                !
 ! A131  A(23,29,25)           114.7892         estimate D2E/DX2                !
 ! A132  A(23,29,70)           108.9074         estimate D2E/DX2                !
 ! A133  A(23,29,71)           108.7616         estimate D2E/DX2                !
 ! A134  A(25,29,70)           108.7379         estimate D2E/DX2                !
 ! A135  A(25,29,71)           108.9            estimate D2E/DX2                !
 ! A136  A(70,29,71)           106.4205         estimate D2E/DX2                !
 ! A137  A(28,30,31)           110.9127         estimate D2E/DX2                !
 ! A138  A(28,30,32)           110.1772         estimate D2E/DX2                !
 ! A139  A(28,30,72)           108.6213         estimate D2E/DX2                !
 ! A140  A(31,30,32)           110.1558         estimate D2E/DX2                !
 ! A141  A(31,30,72)           108.0134         estimate D2E/DX2                !
 ! A142  A(32,30,72)           108.8961         estimate D2E/DX2                !
 ! A143  A(30,31,76)           125.2339         estimate D2E/DX2                !
 ! A144  A(30,31,77)           115.4061         estimate D2E/DX2                !
 ! A145  A(76,31,77)           119.3591         estimate D2E/DX2                !
 ! A146  A(30,32,73)           110.5238         estimate D2E/DX2                !
 ! A147  A(30,32,74)           110.8041         estimate D2E/DX2                !
 ! A148  A(30,32,75)           111.0443         estimate D2E/DX2                !
 ! A149  A(73,32,74)           107.8955         estimate D2E/DX2                !
 ! A150  A(73,32,75)           107.9576         estimate D2E/DX2                !
 ! A151  A(74,32,75)           108.5038         estimate D2E/DX2                !
 ! A152  A(31,76,78)           120.9846         estimate D2E/DX2                !
 ! A153  A(31,76,79)           121.7341         estimate D2E/DX2                !
 ! A154  A(78,76,79)           117.2812         estimate D2E/DX2                !
 ! A155  A(24,80,81)           121.7128         estimate D2E/DX2                !
 ! A156  A(24,80,82)           120.8183         estimate D2E/DX2                !
 ! A157  A(81,80,82)           117.4688         estimate D2E/DX2                !
 ! A158  A(10,85,87)           120.8193         estimate D2E/DX2                !
 ! A159  A(10,85,88)           121.7092         estimate D2E/DX2                !
 ! A160  A(87,85,88)           117.4715         estimate D2E/DX2                !
 ! A161  A(3,89,91)            120.9873         estimate D2E/DX2                !
 ! A162  A(3,89,92)            121.7333         estimate D2E/DX2                !
 ! A163  A(91,89,92)           117.2793         estimate D2E/DX2                !
 ! D1    D(33,1,2,3)           -59.2984         estimate D2E/DX2                !
 ! D2    D(33,1,2,8)           178.0282         estimate D2E/DX2                !
 ! D3    D(33,1,2,36)           59.0022         estimate D2E/DX2                !
 ! D4    D(34,1,2,3)          -179.9594         estimate D2E/DX2                !
 ! D5    D(34,1,2,8)            57.3672         estimate D2E/DX2                !
 ! D6    D(34,1,2,36)          -61.6589         estimate D2E/DX2                !
 ! D7    D(35,1,2,3)            60.4875         estimate D2E/DX2                !
 ! D8    D(35,1,2,8)           -62.186          estimate D2E/DX2                !
 ! D9    D(35,1,2,36)          178.788          estimate D2E/DX2                !
 ! D10   D(1,2,3,89)           116.8745         estimate D2E/DX2                !
 ! D11   D(1,2,3,90)           -62.7604         estimate D2E/DX2                !
 ! D12   D(8,2,3,89)          -120.8786         estimate D2E/DX2                !
 ! D13   D(8,2,3,90)            59.4864         estimate D2E/DX2                !
 ! D14   D(36,2,3,89)           -1.9676         estimate D2E/DX2                !
 ! D15   D(36,2,3,90)          178.3975         estimate D2E/DX2                !
 ! D16   D(1,2,8,4)           -177.4238         estimate D2E/DX2                !
 ! D17   D(1,2,8,43)            60.4708         estimate D2E/DX2                !
 ! D18   D(1,2,8,44)           -54.992          estimate D2E/DX2                !
 ! D19   D(3,2,8,4)             60.3518         estimate D2E/DX2                !
 ! D20   D(3,2,8,43)           -61.7536         estimate D2E/DX2                !
 ! D21   D(3,2,8,44)          -177.2164         estimate D2E/DX2                !
 ! D22   D(36,2,8,4)           -58.211          estimate D2E/DX2                !
 ! D23   D(36,2,8,43)          179.6835         estimate D2E/DX2                !
 ! D24   D(36,2,8,44)           64.2208         estimate D2E/DX2                !
 ! D25   D(2,3,89,91)            0.8328         estimate D2E/DX2                !
 ! D26   D(2,3,89,92)         -179.2981         estimate D2E/DX2                !
 ! D27   D(90,3,89,91)        -179.5455         estimate D2E/DX2                !
 ! D28   D(90,3,89,92)           0.3236         estimate D2E/DX2                !
 ! D29   D(7,4,5,6)            119.5357         estimate D2E/DX2                !
 ! D30   D(7,4,5,38)           -60.4571         estimate D2E/DX2                !
 ! D31   D(8,4,5,6)           -118.3206         estimate D2E/DX2                !
 ! D32   D(8,4,5,38)            61.6866         estimate D2E/DX2                !
 ! D33   D(37,4,5,6)             0.5505         estimate D2E/DX2                !
 ! D34   D(37,4,5,38)         -179.4423         estimate D2E/DX2                !
 ! D35   D(5,4,7,9)            -60.5806         estimate D2E/DX2                !
 ! D36   D(5,4,7,41)           177.141          estimate D2E/DX2                !
 ! D37   D(5,4,7,42)            61.5767         estimate D2E/DX2                !
 ! D38   D(8,4,7,9)            176.7974         estimate D2E/DX2                !
 ! D39   D(8,4,7,41)            54.519          estimate D2E/DX2                !
 ! D40   D(8,4,7,42)           -61.0453         estimate D2E/DX2                !
 ! D41   D(37,4,7,9)            57.9034         estimate D2E/DX2                !
 ! D42   D(37,4,7,41)          -64.375          estimate D2E/DX2                !
 ! D43   D(37,4,7,42)         -179.9393         estimate D2E/DX2                !
 ! D44   D(5,4,8,2)             60.9123         estimate D2E/DX2                !
 ! D45   D(5,4,8,43)          -177.03           estimate D2E/DX2                !
 ! D46   D(5,4,8,44)           -61.3613         estimate D2E/DX2                !
 ! D47   D(7,4,8,2)           -176.4667         estimate D2E/DX2                !
 ! D48   D(7,4,8,43)           -54.409          estimate D2E/DX2                !
 ! D49   D(7,4,8,44)            61.2597         estimate D2E/DX2                !
 ! D50   D(37,4,8,2)           -57.5146         estimate D2E/DX2                !
 ! D51   D(37,4,8,43)           64.5431         estimate D2E/DX2                !
 ! D52   D(37,4,8,44)         -179.7882         estimate D2E/DX2                !
 ! D53   D(4,5,6,39)            -0.0562         estimate D2E/DX2                !
 ! D54   D(4,5,6,40)          -179.9456         estimate D2E/DX2                !
 ! D55   D(38,5,6,39)          179.9363         estimate D2E/DX2                !
 ! D56   D(38,5,6,40)            0.047          estimate D2E/DX2                !
 ! D57   D(4,7,9,10)           -60.7669         estimate D2E/DX2                !
 ! D58   D(4,7,9,15)           176.6824         estimate D2E/DX2                !
 ! D59   D(4,7,9,45)            57.7561         estimate D2E/DX2                !
 ! D60   D(41,7,9,10)           61.4076         estimate D2E/DX2                !
 ! D61   D(41,7,9,15)          -61.1431         estimate D2E/DX2                !
 ! D62   D(41,7,9,45)          179.9306         estimate D2E/DX2                !
 ! D63   D(42,7,9,10)          176.9937         estimate D2E/DX2                !
 ! D64   D(42,7,9,15)           54.4431         estimate D2E/DX2                !
 ! D65   D(42,7,9,45)          -64.4832         estimate D2E/DX2                !
 ! D66   D(7,9,10,85)          118.8363         estimate D2E/DX2                !
 ! D67   D(7,9,10,86)          -61.1627         estimate D2E/DX2                !
 ! D68   D(15,9,10,85)        -119.119          estimate D2E/DX2                !
 ! D69   D(15,9,10,86)          60.882          estimate D2E/DX2                !
 ! D70   D(45,9,10,85)          -0.1371         estimate D2E/DX2                !
 ! D71   D(45,9,10,86)         179.8638         estimate D2E/DX2                !
 ! D72   D(7,9,15,11)         -176.5641         estimate D2E/DX2                !
 ! D73   D(7,9,15,52)           61.2831         estimate D2E/DX2                !
 ! D74   D(7,9,15,53)          -54.2898         estimate D2E/DX2                !
 ! D75   D(10,9,15,11)          60.8917         estimate D2E/DX2                !
 ! D76   D(10,9,15,52)         -61.261          estimate D2E/DX2                !
 ! D77   D(10,9,15,53)        -176.834          estimate D2E/DX2                !
 ! D78   D(45,9,15,11)         -57.6389         estimate D2E/DX2                !
 ! D79   D(45,9,15,52)        -179.7916         estimate D2E/DX2                !
 ! D80   D(45,9,15,53)          64.6355         estimate D2E/DX2                !
 ! D81   D(9,10,85,87)          -0.0037         estimate D2E/DX2                !
 ! D82   D(9,10,85,88)        -179.9997         estimate D2E/DX2                !
 ! D83   D(86,10,85,87)        179.9953         estimate D2E/DX2                !
 ! D84   D(86,10,85,88)         -0.0007         estimate D2E/DX2                !
 ! D85   D(14,11,12,13)        119.1948         estimate D2E/DX2                !
 ! D86   D(14,11,12,47)        -60.8374         estimate D2E/DX2                !
 ! D87   D(15,11,12,13)       -118.7268         estimate D2E/DX2                !
 ! D88   D(15,11,12,47)         61.241          estimate D2E/DX2                !
 ! D89   D(46,11,12,13)          0.2198         estimate D2E/DX2                !
 ! D90   D(46,11,12,47)       -179.8124         estimate D2E/DX2                !
 ! D91   D(12,11,14,16)        -60.6219         estimate D2E/DX2                !
 ! D92   D(12,11,14,50)        177.1118         estimate D2E/DX2                !
 ! D93   D(12,11,14,51)         61.5452         estimate D2E/DX2                !
 ! D94   D(15,11,14,16)        176.7983         estimate D2E/DX2                !
 ! D95   D(15,11,14,50)         54.532          estimate D2E/DX2                !
 ! D96   D(15,11,14,51)        -61.0346         estimate D2E/DX2                !
 ! D97   D(46,11,14,16)         57.8843         estimate D2E/DX2                !
 ! D98   D(46,11,14,50)        -64.382          estimate D2E/DX2                !
 ! D99   D(46,11,14,51)       -179.9487         estimate D2E/DX2                !
 ! D100  D(12,11,15,9)          60.9907         estimate D2E/DX2                !
 ! D101  D(12,11,15,52)       -176.7668         estimate D2E/DX2                !
 ! D102  D(12,11,15,53)        -61.1902         estimate D2E/DX2                !
 ! D103  D(14,11,15,9)        -176.4167         estimate D2E/DX2                !
 ! D104  D(14,11,15,52)        -54.1742         estimate D2E/DX2                !
 ! D105  D(14,11,15,53)         61.4024         estimate D2E/DX2                !
 ! D106  D(46,11,15,9)         -57.4946         estimate D2E/DX2                !
 ! D107  D(46,11,15,52)         64.7479         estimate D2E/DX2                !
 ! D108  D(46,11,15,53)       -179.6755         estimate D2E/DX2                !
 ! D109  D(11,12,13,48)         -0.0544         estimate D2E/DX2                !
 ! D110  D(11,12,13,49)        179.9576         estimate D2E/DX2                !
 ! D111  D(47,12,13,48)        179.9789         estimate D2E/DX2                !
 ! D112  D(47,12,13,49)         -0.0091         estimate D2E/DX2                !
 ! D113  D(11,14,16,17)        -60.4213         estimate D2E/DX2                !
 ! D114  D(11,14,16,22)        177.0285         estimate D2E/DX2                !
 ! D115  D(11,14,16,54)         58.0986         estimate D2E/DX2                !
 ! D116  D(50,14,16,17)         61.7438         estimate D2E/DX2                !
 ! D117  D(50,14,16,22)        -60.8064         estimate D2E/DX2                !
 ! D118  D(50,14,16,54)       -179.7363         estimate D2E/DX2                !
 ! D119  D(51,14,16,17)        177.3077         estimate D2E/DX2                !
 ! D120  D(51,14,16,22)         54.7575         estimate D2E/DX2                !
 ! D121  D(51,14,16,54)        -64.1724         estimate D2E/DX2                !
 ! D122  D(14,16,17,84)        -60.9033         estimate D2E/DX2                !
 ! D123  D(22,16,17,84)         61.1436         estimate D2E/DX2                !
 ! D124  D(54,16,17,84)       -179.8935         estimate D2E/DX2                !
 ! D125  D(14,16,22,18)       -176.407          estimate D2E/DX2                !
 ! D126  D(14,16,22,61)         61.4228         estimate D2E/DX2                !
 ! D127  D(14,16,22,62)        -54.147          estimate D2E/DX2                !
 ! D128  D(17,16,22,18)         61.0364         estimate D2E/DX2                !
 ! D129  D(17,16,22,61)        -61.1339         estimate D2E/DX2                !
 ! D130  D(17,16,22,62)       -176.7037         estimate D2E/DX2                !
 ! D131  D(54,16,22,18)        -57.4665         estimate D2E/DX2                !
 ! D132  D(54,16,22,61)       -179.6367         estimate D2E/DX2                !
 ! D133  D(54,16,22,62)         64.7935         estimate D2E/DX2                !
 ! D134  D(21,18,19,20)        119.1091         estimate D2E/DX2                !
 ! D135  D(21,18,19,56)        -60.9151         estimate D2E/DX2                !
 ! D136  D(22,18,19,20)       -118.7945         estimate D2E/DX2                !
 ! D137  D(22,18,19,56)         61.1813         estimate D2E/DX2                !
 ! D138  D(55,18,19,20)          0.1471         estimate D2E/DX2                !
 ! D139  D(55,18,19,56)       -179.8771         estimate D2E/DX2                !
 ! D140  D(19,18,21,23)        -60.4974         estimate D2E/DX2                !
 ! D141  D(19,18,21,59)        177.2753         estimate D2E/DX2                !
 ! D142  D(19,18,21,60)         61.6921         estimate D2E/DX2                !
 ! D143  D(22,18,21,23)        176.9159         estimate D2E/DX2                !
 ! D144  D(22,18,21,59)         54.6887         estimate D2E/DX2                !
 ! D145  D(22,18,21,60)        -60.8945         estimate D2E/DX2                !
 ! D146  D(55,18,21,23)         58.0046         estimate D2E/DX2                !
 ! D147  D(55,18,21,59)        -64.2226         estimate D2E/DX2                !
 ! D148  D(55,18,21,60)       -179.8058         estimate D2E/DX2                !
 ! D149  D(19,18,22,16)         61.2369         estimate D2E/DX2                !
 ! D150  D(19,18,22,61)       -176.5096         estimate D2E/DX2                !
 ! D151  D(19,18,22,62)        -60.9371         estimate D2E/DX2                !
 ! D152  D(21,18,22,16)       -176.1507         estimate D2E/DX2                !
 ! D153  D(21,18,22,61)        -53.8971         estimate D2E/DX2                !
 ! D154  D(21,18,22,62)         61.6753         estimate D2E/DX2                !
 ! D155  D(55,18,22,16)        -57.2419         estimate D2E/DX2                !
 ! D156  D(55,18,22,61)         65.0117         estimate D2E/DX2                !
 ! D157  D(55,18,22,62)       -179.4158         estimate D2E/DX2                !
 ! D158  D(18,19,20,57)         -0.0662         estimate D2E/DX2                !
 ! D159  D(18,19,20,58)        179.9717         estimate D2E/DX2                !
 ! D160  D(56,19,20,57)        179.9588         estimate D2E/DX2                !
 ! D161  D(56,19,20,58)         -0.0033         estimate D2E/DX2                !
 ! D162  D(18,21,23,24)        -60.2752         estimate D2E/DX2                !
 ! D163  D(18,21,23,29)        177.1943         estimate D2E/DX2                !
 ! D164  D(18,21,23,63)         58.269          estimate D2E/DX2                !
 ! D165  D(59,21,23,24)         61.8511         estimate D2E/DX2                !
 ! D166  D(59,21,23,29)        -60.6794         estimate D2E/DX2                !
 ! D167  D(59,21,23,63)       -179.6047         estimate D2E/DX2                !
 ! D168  D(60,21,23,24)        177.4229         estimate D2E/DX2                !
 ! D169  D(60,21,23,29)         54.8924         estimate D2E/DX2                !
 ! D170  D(60,21,23,63)        -64.0329         estimate D2E/DX2                !
 ! D171  D(21,23,24,80)        119.2456         estimate D2E/DX2                !
 ! D172  D(21,23,24,83)        -60.7634         estimate D2E/DX2                !
 ! D173  D(29,23,24,80)       -118.7188         estimate D2E/DX2                !
 ! D174  D(29,23,24,83)         61.2721         estimate D2E/DX2                !
 ! D175  D(63,23,24,80)          0.2407         estimate D2E/DX2                !
 ! D176  D(63,23,24,83)       -179.7684         estimate D2E/DX2                !
 ! D177  D(21,23,29,25)       -176.3704         estimate D2E/DX2                !
 ! D178  D(21,23,29,70)         61.4745         estimate D2E/DX2                !
 ! D179  D(21,23,29,71)        -54.1152         estimate D2E/DX2                !
 ! D180  D(24,23,29,25)         61.079          estimate D2E/DX2                !
 ! D181  D(24,23,29,70)        -61.0761         estimate D2E/DX2                !
 ! D182  D(24,23,29,71)       -176.6658         estimate D2E/DX2                !
 ! D183  D(63,23,29,25)        -57.4321         estimate D2E/DX2                !
 ! D184  D(63,23,29,70)       -179.5872         estimate D2E/DX2                !
 ! D185  D(63,23,29,71)         64.8231         estimate D2E/DX2                !
 ! D186  D(23,24,80,81)        179.9833         estimate D2E/DX2                !
 ! D187  D(23,24,80,82)         -0.0607         estimate D2E/DX2                !
 ! D188  D(83,24,80,81)         -0.0073         estimate D2E/DX2                !
 ! D189  D(83,24,80,82)        179.9487         estimate D2E/DX2                !
 ! D190  D(28,25,26,27)        118.6581         estimate D2E/DX2                !
 ! D191  D(28,25,26,65)        -61.3987         estimate D2E/DX2                !
 ! D192  D(29,25,26,27)       -119.197          estimate D2E/DX2                !
 ! D193  D(29,25,26,65)         60.7463         estimate D2E/DX2                !
 ! D194  D(64,25,26,27)         -0.2406         estimate D2E/DX2                !
 ! D195  D(64,25,26,65)        179.7026         estimate D2E/DX2                !
 ! D196  D(26,25,28,30)        -60.7097         estimate D2E/DX2                !
 ! D197  D(26,25,28,68)        177.2388         estimate D2E/DX2                !
 ! D198  D(26,25,28,69)         61.5759         estimate D2E/DX2                !
 ! D199  D(29,25,28,30)        176.682          estimate D2E/DX2                !
 ! D200  D(29,25,28,68)         54.6305         estimate D2E/DX2                !
 ! D201  D(29,25,28,69)        -61.0324         estimate D2E/DX2                !
 ! D202  D(64,25,28,30)         57.7455         estimate D2E/DX2                !
 ! D203  D(64,25,28,68)        -64.306          estimate D2E/DX2                !
 ! D204  D(64,25,28,69)       -179.9689         estimate D2E/DX2                !
 ! D205  D(26,25,29,23)         61.0528         estimate D2E/DX2                !
 ! D206  D(26,25,29,70)       -176.7003         estimate D2E/DX2                !
 ! D207  D(26,25,29,71)        -61.1275         estimate D2E/DX2                !
 ! D208  D(28,25,29,23)       -176.3163         estimate D2E/DX2                !
 ! D209  D(28,25,29,70)        -54.0694         estimate D2E/DX2                !
 ! D210  D(28,25,29,71)         61.5034         estimate D2E/DX2                !
 ! D211  D(64,25,29,23)        -57.4201         estimate D2E/DX2                !
 ! D212  D(64,25,29,70)         64.8268         estimate D2E/DX2                !
 ! D213  D(64,25,29,71)       -179.6004         estimate D2E/DX2                !
 ! D214  D(25,26,27,66)         -0.0048         estimate D2E/DX2                !
 ! D215  D(25,26,27,67)        179.9038         estimate D2E/DX2                !
 ! D216  D(65,26,27,66)       -179.946          estimate D2E/DX2                !
 ! D217  D(65,26,27,67)         -0.0374         estimate D2E/DX2                !
 ! D218  D(25,28,30,31)        -60.2127         estimate D2E/DX2                !
 ! D219  D(25,28,30,32)        177.5512         estimate D2E/DX2                !
 ! D220  D(25,28,30,72)         58.3479         estimate D2E/DX2                !
 ! D221  D(68,28,30,31)         61.8797         estimate D2E/DX2                !
 ! D222  D(68,28,30,32)        -60.3563         estimate D2E/DX2                !
 ! D223  D(68,28,30,72)       -179.5596         estimate D2E/DX2                !
 ! D224  D(69,28,30,31)        177.3402         estimate D2E/DX2                !
 ! D225  D(69,28,30,32)         55.1041         estimate D2E/DX2                !
 ! D226  D(69,28,30,72)        -64.0992         estimate D2E/DX2                !
 ! D227  D(28,30,31,76)        120.7342         estimate D2E/DX2                !
 ! D228  D(28,30,31,77)        -59.6138         estimate D2E/DX2                !
 ! D229  D(32,30,31,76)       -117.0173         estimate D2E/DX2                !
 ! D230  D(32,30,31,77)         62.6348         estimate D2E/DX2                !
 ! D231  D(72,30,31,76)          1.8066         estimate D2E/DX2                !
 ! D232  D(72,30,31,77)       -178.5414         estimate D2E/DX2                !
 ! D233  D(28,30,32,73)         62.1889         estimate D2E/DX2                !
 ! D234  D(28,30,32,74)        -57.3641         estimate D2E/DX2                !
 ! D235  D(28,30,32,75)       -178.0245         estimate D2E/DX2                !
 ! D236  D(31,30,32,73)        -60.4929         estimate D2E/DX2                !
 ! D237  D(31,30,32,74)        179.9541         estimate D2E/DX2                !
 ! D238  D(31,30,32,75)         59.2936         estimate D2E/DX2                !
 ! D239  D(72,30,32,73)       -178.7754         estimate D2E/DX2                !
 ! D240  D(72,30,32,74)         61.6716         estimate D2E/DX2                !
 ! D241  D(72,30,32,75)        -58.9888         estimate D2E/DX2                !
 ! D242  D(30,31,76,78)         -0.8229         estimate D2E/DX2                !
 ! D243  D(30,31,76,79)        179.3134         estimate D2E/DX2                !
 ! D244  D(77,31,76,78)        179.5378         estimate D2E/DX2                !
 ! D245  D(77,31,76,79)         -0.326          estimate D2E/DX2                !
 --------------------------------------------------------------------------------
 Trust Radius=3.00D-01 FncErr=1.00D-07 GrdErr=1.00D-06 EigMax=2.50D+02 EigMin=1.00D-04
 Number of steps in this run=    509 maximum allowed number of steps=    552.
 GradGradGradGradGradGradGradGradGradGradGradGradGradGradGradGradGradGrad

 Symmetry turned off by external request.
 Stoichiometry    C36H56(3)
 Framework group  C1[X(C36H56)]
 Deg. of freedom   270
 Full point group                 C1      NOp   1
                          Input orientation:                          
 ---------------------------------------------------------------------
 Center     Atomic      Atomic             Coordinates (Angstroms)
 Number     Number       Type             X           Y           Z
 ---------------------------------------------------------------------
      1          6           0        6.715288    8.929904    3.228588
      2          6           0        6.078697    7.860272    4.117921
      3          6           0        4.613350    7.742771    3.816690
      4          6           0        5.764631    7.156268    6.582922
      5          6           0        6.426223    5.826032    6.370619
      6          6           0        5.802054    4.711719    6.018847
      7          6           0        5.974566    7.642968    8.021763
      8          6           0        6.308130    8.196077    5.595772
      9          6           0        5.400299    6.719901    9.103378
     10          6           0        3.915200    6.574802    8.942953
     11          6           0        5.293857    6.387207   11.663581
     12          6           0        5.952509    5.040399   11.596953
     13          6           0        5.315579    3.885601   11.472502
     14          6           0        5.613233    7.082385   12.992596
     15          6           0        5.744365    7.269591   10.493037
     16          6           0        5.138995    6.330894   14.242457
     17          6           0        3.648493    6.156503   14.223208
     18          6           0        5.238786    6.386735   16.823738
     19          6           0        5.920084    5.052307   16.909206
     20          6           0        5.301174    3.885563   17.011137
     21          6           0        5.641643    7.278779   18.004238
     22          6           0        5.580134    7.085898   15.502278
     23          6           0        5.282048    6.719082   19.385982
     24          6           0        3.799396    6.522147   19.509502
     25          6           0        5.573505    7.167669   21.913587
     26          6           0        6.291336    5.869935   22.143512
     27          6           0        5.711264    4.725953   22.474923
     28          6           0        6.042957    8.232028   22.912414
     29          6           0        5.795930    7.663311   20.479654
     30          6           0        5.797865    7.884248   24.385007
     31          6           0        4.334145    7.691009   24.653293
     32          6           0        6.358366    8.984964   25.287488
     33          1           0        6.590357    8.686676    2.173324
     34          1           0        7.782227    9.023817    3.438502
     35          1           0        6.250914    9.902942    3.407370
     36          1           0        6.546932    6.895589    3.902542
     37          1           0        4.692365    7.031782    6.406019
     38          1           0        7.505192    5.808198    6.525849
     39          1           0        4.729402    4.702911    5.859418
     40          1           0        6.335440    3.779594    5.881291
     41          1           0        5.524048    8.636619    8.126532
     42          1           0        7.048532    7.769331    8.200529
     43          1           0        5.844467    9.165371    5.812460
     44          1           0        7.383495    8.322584    5.765545
     45          1           0        5.850633    5.729031    8.995602
     46          1           0        4.212521    6.238093   11.595547
     47          1           0        7.040985    5.046543   11.657850
     48          1           0        4.233446    3.852342   11.410210
     49          1           0        5.847725    2.943717   11.429228
     50          1           0        5.160679    8.080652   12.985193
     51          1           0        6.696478    7.233930   13.063013
     52          1           0        5.290919    8.261184   10.604837
     53          1           0        6.828806    7.416036   10.555279
     54          1           0        5.595517    5.336998   14.250059
     55          1           0        4.158973    6.217762   16.863355
     56          1           0        7.009632    5.078742   16.882392
     57          1           0        4.218436    3.832149   17.040499
     58          1           0        5.849133    2.953561   17.068758
     59          1           0        5.165322    8.258481   17.883175
     60          1           0        6.723066    7.453058   17.965616
     61          1           0        5.118658    8.080098   15.500275
     62          1           0        6.663257    7.247123   15.455216
     63          1           0        5.764004    5.744823   19.507522
     64          1           0        4.504141    6.993087   22.063751
     65          1           0        7.373967    5.903935   22.019580
     66          1           0        4.636132    4.665260   22.603429
     67          1           0        6.284494    3.819971   22.626191
     68          1           0        5.536683    9.177280   22.685214
     69          1           0        7.114230    8.411845   22.766443
     70          1           0        5.308875    8.638417   20.364642
     71          1           0        6.867761    7.832126   20.324602
     72          1           0        6.310209    6.944987   24.611977
     73          1           0        5.848604    9.932817   25.097513
     74          1           0        7.423499    9.133830   25.101507
     75          1           0        6.222504    8.735308   26.339898
     76          6           0        3.783050    6.581198   25.120908
     77          1           0        3.702155    8.553097   24.441277
     78          1           0        4.385968    5.705309   25.333889
     79          1           0        2.718796    6.507466   25.304170
     80          6           0        3.199701    5.362215   19.732308
     81          1           0        2.122768    5.284339   19.811873
     82          1           0        3.776591    4.450417   19.841395
     83          1           0        3.195961    7.423821   19.402839
     84          1           0        3.068081    7.079280   14.212269
     85          6           0        3.280573    5.435833    8.708982
     86          1           0        3.341545    7.497665    9.031325
     87          1           0        3.827431    4.503895    8.616646
     88          1           0        2.203870    5.395758    8.602671
     89          6           0        4.016500    6.663547    3.333836
     90          1           0        4.021846    8.635862    4.016795
     91          1           0        4.578144    5.758103    3.131892
     92          1           0        2.954252    6.645041    3.126640
 ---------------------------------------------------------------------
 Rotational constants (GHZ):           0.3704099           0.0206603           0.0202376
 Standard basis: def2SVP (5D, 7F)
   784 basis functions,  1292 primitive gaussians,   820 cartesian basis functions
   137 alpha electrons      135 beta electrons
       nuclear repulsion energy      3536.6434668001 Hartrees.
 NAtoms=   92 NActive=   92 NUniq=   92 SFac= 1.00D+00 NAtFMM=   60 NAOKFM=T Big=T
 Integral buffers will be    131072 words long.
 Raffenetti 2 integral format.
 Two-electron integral symmetry is turned off.
 One-electron integrals computed using PRISM.
 PrsmSu:  requested number of processors reduced to:  21 ShMem   1 Linda.
   1 Symmetry operations used in ECPInt.
 ECPInt:  NShTT=   73920 NPrTT=  254464 LenC2=   45118 LenP2D=  103556.
 LDataN:  DoStor=T MaxTD1= 4 Len=   56
 Number of processors reduced to   9 by ecpmxn.
 NBasis=   784 RedAO= T EigKep=  6.30D-04  NBF=   784
 NBsUse=   784 1.00D-06 EigRej= -1.00D+00 NBFU=   784
 ExpMin= 1.22D-01 ExpMax= 1.24D+03 ExpMxC= 1.86D+02 IAcc=3 IRadAn=         5 AccDes= 0.00D+00
 Harris functional with IExCor= 1009 and IRadAn=       5 diagonalized for initial guess.
 HarFok:  IExCor= 1009 AccDes= 0.00D+00 IRadAn=         5 IDoV= 1 UseB2=F ITyADJ=14
 ICtDFT=  3500011 ScaDFX=  1.000000  1.000000  1.000000  1.000000
 FoFCou: FMM=F IPFlag=           0 FMFlag=      100000 FMFlg1=        2001
         NFxFlg=           0 DoJE=T BraDBF=F KetDBF=T FulRan=T
         wScrn=  0.000000 ICntrl=       500 IOpCl=  0 I1Cent=   200000004 NGrid=           0
         NMat0=    1 NMatS0=      1 NMatT0=    0 NMatD0=    1 NMtDS0=    0 NMtDT0=    0
 Symmetry not used in FoFCou.
 Mixing orbitals, IMix= 1 IMixAn=  0 NRI=1 NE=  137 Coef=  7.07106781D-01  7.07106781D-01
 Mixing orbitals, IMix= 1 IMixAn=  0 NRI=1 NE=  135 Coef= -7.07106781D-01  7.07106781D-01
 Initial guess <Sx>= 0.0000 <Sy>= 0.0000 <Sz>= 1.0000 <S**2>= 2.0000 S= 1.0000
 Requested convergence on RMS density matrix=1.00D-08 within  32 cycles.
 Requested convergence on MAX density matrix=1.00D-06.
 Requested convergence on             energy=1.00D-06.
 No special actions if energy rises.
 Integral accuracy reduced to 1.0D-05 until final iterations.
 Initial convergence to 1.0D-05 achieved.  Increase integral accuracy.
 SCF Done:  E(UM062X) =  -1403.52233299     A.U. after   18 cycles
            NFock= 18  Conv=0.36D-08     -V/T= 2.0116
 <Sx>= 0.0000 <Sy>= 0.0000 <Sz>= 1.0000 <S**2>= 2.0058 S= 1.0019
 <L.S>=  0.00000000000    
 Annihilation of the first spin contaminant:
 S**2 before annihilation     2.0058,   after     2.0000
 QCSCF skips out because SCF is already converged.

 **********************************************************************

            Population analysis using the SCF Density.

 **********************************************************************

 Alpha  occ. eigenvalues --  -10.57419 -10.55245 -10.54872 -10.54870 -10.54824
 Alpha  occ. eigenvalues --  -10.54821 -10.54801 -10.54800 -10.54777 -10.54777
 Alpha  occ. eigenvalues --  -10.54772 -10.54771 -10.54770 -10.54766 -10.54722
 Alpha  occ. eigenvalues --  -10.54720 -10.54614 -10.54612 -10.54608 -10.54608
 Alpha  occ. eigenvalues --  -10.54584 -10.54582 -10.54546 -10.54544 -10.54527
 Alpha  occ. eigenvalues --  -10.54527 -10.53936 -10.53932 -10.53927 -10.53923
 Alpha  occ. eigenvalues --  -10.53909 -10.53909 -10.53899 -10.53899 -10.53884
 Alpha  occ. eigenvalues --  -10.53883  -0.94086  -0.93604  -0.92828  -0.91851
 Alpha  occ. eigenvalues --   -0.90495  -0.89269  -0.87752  -0.86933  -0.85865
 Alpha  occ. eigenvalues --   -0.82898  -0.82876  -0.82435  -0.82316  -0.81486
 Alpha  occ. eigenvalues --   -0.81036  -0.79312  -0.78118  -0.75195  -0.74444
 Alpha  occ. eigenvalues --   -0.71570  -0.70330  -0.68166  -0.67398  -0.67229
 Alpha  occ. eigenvalues --   -0.67201  -0.67009  -0.66838  -0.64422  -0.63548
 Alpha  occ. eigenvalues --   -0.63055  -0.62204  -0.61814  -0.61543  -0.61447
 Alpha  occ. eigenvalues --   -0.61268  -0.61231  -0.54520  -0.54453  -0.54240
 Alpha  occ. eigenvalues --   -0.53442  -0.53243  -0.53139  -0.52714  -0.52421
 Alpha  occ. eigenvalues --   -0.52147  -0.51404  -0.51188  -0.50798  -0.50730
 Alpha  occ. eigenvalues --   -0.50703  -0.50009  -0.49610  -0.49428  -0.49250
 Alpha  occ. eigenvalues --   -0.48957  -0.48834  -0.48056  -0.47793  -0.47541
 Alpha  occ. eigenvalues --   -0.46137  -0.45765  -0.44284  -0.44267  -0.43962
 Alpha  occ. eigenvalues --   -0.43695  -0.43627  -0.43469  -0.43429  -0.43420
 Alpha  occ. eigenvalues --   -0.43400  -0.43127  -0.42347  -0.42074  -0.40477
 Alpha  occ. eigenvalues --   -0.40442  -0.40018  -0.39576  -0.39383  -0.38991
 Alpha  occ. eigenvalues --   -0.38450  -0.38299  -0.38015  -0.37714  -0.37585
 Alpha  occ. eigenvalues --   -0.37581  -0.37516  -0.37301  -0.37273  -0.36984
 Alpha  occ. eigenvalues --   -0.36972  -0.36550  -0.32236  -0.31925  -0.31915
 Alpha  occ. eigenvalues --   -0.31520  -0.31470  -0.30876  -0.30810  -0.30012
 Alpha  occ. eigenvalues --   -0.29883  -0.26437
 Alpha virt. eigenvalues --    0.05208   0.05272   0.05312   0.05322   0.05695
 Alpha virt. eigenvalues --    0.05816   0.06161   0.06242   0.09167   0.09615
 Alpha virt. eigenvalues --    0.10252   0.10368   0.10610   0.11162   0.11629
 Alpha virt. eigenvalues --    0.12072   0.12307   0.12313   0.12571   0.13274
 Alpha virt. eigenvalues --    0.13542   0.13828   0.14248   0.14749   0.14905
 Alpha virt. eigenvalues --    0.15057   0.15112   0.15513   0.15537   0.15639
 Alpha virt. eigenvalues --    0.15847   0.16505   0.16990   0.16995   0.17200
 Alpha virt. eigenvalues --    0.17534   0.17826   0.17887   0.18348   0.18506
 Alpha virt. eigenvalues --    0.18532   0.18971   0.19037   0.19221   0.19629
 Alpha virt. eigenvalues --    0.19692   0.20050   0.20429   0.20487   0.20606
 Alpha virt. eigenvalues --    0.20751   0.20948   0.21102   0.21583   0.21763
 Alpha virt. eigenvalues --    0.22050   0.22157   0.22208   0.22303   0.22624
 Alpha virt. eigenvalues --    0.23256   0.23701   0.24216   0.24718   0.24788
 Alpha virt. eigenvalues --    0.25376   0.25523   0.25604   0.26155   0.26428
 Alpha virt. eigenvalues --    0.26496   0.26829   0.27099   0.27306   0.27735
 Alpha virt. eigenvalues --    0.28149   0.28343   0.29634   0.29705   0.30445
 Alpha virt. eigenvalues --    0.30983   0.31082   0.31554   0.32555   0.33256
 Alpha virt. eigenvalues --    0.34416   0.35298   0.36274   0.36397   0.38325
 Alpha virt. eigenvalues --    0.38400   0.38728   0.38983   0.39313   0.39688
 Alpha virt. eigenvalues --    0.40178   0.40322   0.40660   0.41176   0.42706
 Alpha virt. eigenvalues --    0.43551   0.43773   0.44160   0.45252   0.45311
 Alpha virt. eigenvalues --    0.45602   0.46591   0.46774   0.46839   0.46866
 Alpha virt. eigenvalues --    0.46978   0.47055   0.47208   0.47477   0.47513
 Alpha virt. eigenvalues --    0.47585   0.49358   0.49417   0.49903   0.50257
 Alpha virt. eigenvalues --    0.50504   0.51001   0.51562   0.51816   0.51951
 Alpha virt. eigenvalues --    0.52268   0.52422   0.52877   0.54842   0.54982
 Alpha virt. eigenvalues --    0.56746   0.56798   0.56892   0.57952   0.58153
 Alpha virt. eigenvalues --    0.58276   0.58526   0.59320   0.60053   0.60953
 Alpha virt. eigenvalues --    0.61173   0.61991   0.62751   0.63029   0.63144
 Alpha virt. eigenvalues --    0.63594   0.63645   0.65065   0.65139   0.65475
 Alpha virt. eigenvalues --    0.65566   0.65625   0.65794   0.66415   0.66697
 Alpha virt. eigenvalues --    0.66962   0.67001   0.67450   0.67982   0.68108
 Alpha virt. eigenvalues --    0.68235   0.68255   0.68625   0.68895   0.69169
 Alpha virt. eigenvalues --    0.69354   0.69783   0.69959   0.70031   0.70303
 Alpha virt. eigenvalues --    0.70596   0.70865   0.70963   0.71305   0.71775
 Alpha virt. eigenvalues --    0.71870   0.71929   0.72121   0.72200   0.72336
 Alpha virt. eigenvalues --    0.72740   0.72942   0.73299   0.73361   0.73533
 Alpha virt. eigenvalues --    0.73570   0.74019   0.74165   0.74323   0.74569
 Alpha virt. eigenvalues --    0.74697   0.75007   0.75096   0.75276   0.75284
 Alpha virt. eigenvalues --    0.75630   0.75648   0.75975   0.76074   0.76120
 Alpha virt. eigenvalues --    0.76124   0.76455   0.76475   0.76707   0.76829
 Alpha virt. eigenvalues --    0.76857   0.76939   0.77020   0.77223   0.77246
 Alpha virt. eigenvalues --    0.77316   0.77588   0.77608   0.77655   0.77871
 Alpha virt. eigenvalues --    0.77968   0.78226   0.78659   0.79066   0.79106
 Alpha virt. eigenvalues --    0.79375   0.79415   0.79737   0.79773   0.79940
 Alpha virt. eigenvalues --    0.80081   0.80559   0.80830   0.80871   0.81082
 Alpha virt. eigenvalues --    0.81278   0.81695   0.81884   0.82301   0.83222
 Alpha virt. eigenvalues --    0.83852   0.84010   0.84275   0.84484   0.85085
 Alpha virt. eigenvalues --    0.85554   0.86043   0.86591   0.86844   0.89140
 Alpha virt. eigenvalues --    0.90007   0.90778   0.90874   0.91451   0.93030
 Alpha virt. eigenvalues --    0.93463   0.93538   0.93717   0.93848   0.94709
 Alpha virt. eigenvalues --    0.94764   0.95361   0.97059   0.98680   0.99226
 Alpha virt. eigenvalues --    0.99995   1.00754   1.01771   1.02009   1.04135
 Alpha virt. eigenvalues --    1.04793   1.04907   1.06495   1.06562   1.08577
 Alpha virt. eigenvalues --    1.08655   1.11678   1.12106   1.12424   1.12581
 Alpha virt. eigenvalues --    1.13023   1.13603   1.13999   1.14105   1.14369
 Alpha virt. eigenvalues --    1.15060   1.16191   1.16355   1.17213   1.17441
 Alpha virt. eigenvalues --    1.17492   1.17939   1.18623   1.18708   1.18767
 Alpha virt. eigenvalues --    1.19965   1.20016   1.20428   1.20875   1.21168
 Alpha virt. eigenvalues --    1.25562   1.25599   1.26390   1.28527   1.28930
 Alpha virt. eigenvalues --    1.29413   1.29989   1.30847   1.31570   1.32421
 Alpha virt. eigenvalues --    1.32436   1.33090   1.33618   1.33845   1.34488
 Alpha virt. eigenvalues --    1.36030   1.36392   1.37831   1.37872   1.38550
 Alpha virt. eigenvalues --    1.38937   1.39691   1.39977   1.40279   1.42115
 Alpha virt. eigenvalues --    1.44467   1.44891   1.44921   1.45458   1.45484
 Alpha virt. eigenvalues --    1.46174   1.46781   1.47239   1.47449   1.47614
 Alpha virt. eigenvalues --    1.47830   1.48099   1.48132   1.48914   1.50734
 Alpha virt. eigenvalues --    1.51641   1.52053   1.52281   1.58382   1.58757
 Alpha virt. eigenvalues --    1.59624   1.60052   1.61279   1.61830   1.62908
 Alpha virt. eigenvalues --    1.63903   1.64025   1.64706   1.67206   1.67726
 Alpha virt. eigenvalues --    1.67887   1.68428   1.68911   1.68963   1.69474
 Alpha virt. eigenvalues --    1.69876   1.70693   1.70786   1.71507   1.71725
 Alpha virt. eigenvalues --    1.72469   1.72681   1.73022   1.73260   1.74061
 Alpha virt. eigenvalues --    1.74261   1.74277   1.74437   1.74627   1.74766
 Alpha virt. eigenvalues --    1.74974   1.75095   1.75885   1.76209   1.76521
 Alpha virt. eigenvalues --    1.77308   1.77470   1.77828   1.78634   1.79547
 Alpha virt. eigenvalues --    1.79679   1.79871   1.79926   1.80488   1.81218
 Alpha virt. eigenvalues --    1.81818   1.81832   1.82538   1.82800   1.83060
 Alpha virt. eigenvalues --    1.83313   1.83449   1.83999   1.84632   1.84847
 Alpha virt. eigenvalues --    1.84918   1.85462   1.86258   1.86428   1.86857
 Alpha virt. eigenvalues --    1.87190   1.87263   1.87701   1.87798   1.88185
 Alpha virt. eigenvalues --    1.88465   1.88564   1.88650   1.88742   1.88908
 Alpha virt. eigenvalues --    1.88956   1.89193   1.89217   1.89674   1.89934
 Alpha virt. eigenvalues --    1.90607   1.90969   1.91374   1.91501   1.91553
 Alpha virt. eigenvalues --    1.91899   1.91957   1.92088   1.92422   1.92475
 Alpha virt. eigenvalues --    1.92939   1.93034   1.93409   1.93471   1.93809
 Alpha virt. eigenvalues --    1.93875   1.94245   1.94903   1.95173   1.95390
 Alpha virt. eigenvalues --    1.96052   1.96361   1.96984   1.97328   1.97644
 Alpha virt. eigenvalues --    1.98101   1.98277   1.99055   1.99583   1.99985
 Alpha virt. eigenvalues --    2.00502   2.00900   2.01172   2.01382   2.01393
 Alpha virt. eigenvalues --    2.01724   2.02190   2.03259   2.03404   2.03937
 Alpha virt. eigenvalues --    2.04214   2.04617   2.04842   2.04887   2.05099
 Alpha virt. eigenvalues --    2.05421   2.05496   2.06440   2.06491   2.06563
 Alpha virt. eigenvalues --    2.06927   2.07659   2.07952   2.08952   2.09482
 Alpha virt. eigenvalues --    2.10061   2.10522   2.10756   2.11516   2.12135
 Alpha virt. eigenvalues --    2.12565   2.12731   2.13376   2.13879   2.14488
 Alpha virt. eigenvalues --    2.14943   2.15179   2.15604   2.15823   2.16494
 Alpha virt. eigenvalues --    2.17649   2.17807   2.20031   2.20417   2.20856
 Alpha virt. eigenvalues --    2.23000   2.23850   2.24882   2.25176   2.25904
 Alpha virt. eigenvalues --    2.25952   2.27742   2.28266   2.28510   2.28925
 Alpha virt. eigenvalues --    2.29957   2.30284   2.30892   2.31886   2.32491
 Alpha virt. eigenvalues --    2.32530   2.32978   2.33536   2.33668   2.34051
 Alpha virt. eigenvalues --    2.34124   2.35157   2.35180   2.36033   2.37979
 Alpha virt. eigenvalues --    2.38207   2.38234   2.39572   2.39909   2.43049
 Alpha virt. eigenvalues --    2.43152   2.43794   2.43834   2.44533   2.44638
 Alpha virt. eigenvalues --    2.45466   2.45884   2.45994   2.46093   2.46281
 Alpha virt. eigenvalues --    2.46291   2.47724   2.47746   2.47987   2.47995
 Alpha virt. eigenvalues --    2.48792   2.48869   2.49449   2.49690   2.50033
 Alpha virt. eigenvalues --    2.50094   2.50374   2.50612   2.50905   2.51092
 Alpha virt. eigenvalues --    2.51554   2.52042   2.52206   2.53253   2.53384
 Alpha virt. eigenvalues --    2.53748   2.54691   2.54863   2.55949   2.56038
 Alpha virt. eigenvalues --    2.56199   2.56557   2.57150   2.58259   2.58372
 Alpha virt. eigenvalues --    2.59670   2.60250   2.61131   2.61262   2.61908
 Alpha virt. eigenvalues --    2.62404   2.64681   2.67106   2.67310   2.69978
 Alpha virt. eigenvalues --    2.71549   2.73443   2.73544   2.73830   2.74081
 Alpha virt. eigenvalues --    2.75018   2.75840   2.76360   2.76399   2.76734
 Alpha virt. eigenvalues --    2.76806   2.77258   2.78038   2.78607   2.79321
 Alpha virt. eigenvalues --    2.80335   2.82248   2.84019   2.85055   2.85417
 Alpha virt. eigenvalues --    2.85591   2.86091   2.87389   2.87407   2.87635
 Alpha virt. eigenvalues --    2.88496   2.88533   2.88849   2.89349   2.90107
 Alpha virt. eigenvalues --    2.90424   2.90625   2.91214   2.91672   2.92156
 Alpha virt. eigenvalues --    2.92764   2.93164   2.94074   2.94606   2.95523
 Alpha virt. eigenvalues --    2.97114   2.97690   2.99614   2.99687   3.00288
 Alpha virt. eigenvalues --    3.01707   3.01879   3.03246   3.04618   3.05025
 Alpha virt. eigenvalues --    3.06188   3.06846   3.06958   3.08210   3.08396
 Alpha virt. eigenvalues --    3.08677   3.09933   3.10202   3.10830   3.12007
 Alpha virt. eigenvalues --    3.12600   3.12882   3.13519   3.15103   3.16318
 Alpha virt. eigenvalues --    3.18340   3.19357   3.20770   3.20845   3.34479
 Alpha virt. eigenvalues --    3.34508   3.34566   3.34679   3.34802   3.34809
 Alpha virt. eigenvalues --    3.35065   3.35148
  Beta  occ. eigenvalues --  -10.55463 -10.55276 -10.54872 -10.54870 -10.54824
  Beta  occ. eigenvalues --  -10.54821 -10.54777 -10.54777 -10.54772 -10.54771
  Beta  occ. eigenvalues --  -10.54770 -10.54766 -10.54726 -10.54725 -10.54701
  Beta  occ. eigenvalues --  -10.54701 -10.54613 -10.54611 -10.54608 -10.54608
  Beta  occ. eigenvalues --  -10.54583 -10.54582 -10.54546 -10.54544 -10.54527
  Beta  occ. eigenvalues --  -10.54527 -10.53936 -10.53932 -10.53927 -10.53923
  Beta  occ. eigenvalues --  -10.53909 -10.53909 -10.53899 -10.53898 -10.53884
  Beta  occ. eigenvalues --  -10.53883  -0.93896  -0.93596  -0.92605  -0.91829
  Beta  occ. eigenvalues --   -0.90266  -0.89244  -0.87551  -0.86922  -0.85434
  Beta  occ. eigenvalues --   -0.82895  -0.82869  -0.82425  -0.82286  -0.81461
  Beta  occ. eigenvalues --   -0.80935  -0.79256  -0.77761  -0.75114  -0.73037
  Beta  occ. eigenvalues --   -0.70255  -0.69223  -0.67948  -0.67372  -0.67193
  Beta  occ. eigenvalues --   -0.67169  -0.66980  -0.66816  -0.63962  -0.63539
  Beta  occ. eigenvalues --   -0.62812  -0.62173  -0.61639  -0.61506  -0.61287
  Beta  occ. eigenvalues --   -0.61258  -0.60006  -0.54452  -0.54328  -0.53862
  Beta  occ. eigenvalues --   -0.53328  -0.53225  -0.53117  -0.52551  -0.52392
  Beta  occ. eigenvalues --   -0.51729  -0.51333  -0.51121  -0.50793  -0.50729
  Beta  occ. eigenvalues --   -0.50697  -0.49681  -0.49497  -0.49244  -0.49169
  Beta  occ. eigenvalues --   -0.48822  -0.48761  -0.47911  -0.47735  -0.46936
  Beta  occ. eigenvalues --   -0.45934  -0.44782  -0.44281  -0.44254  -0.43764
  Beta  occ. eigenvalues --   -0.43669  -0.43604  -0.43452  -0.43412  -0.43387
  Beta  occ. eigenvalues --   -0.43257  -0.43117  -0.42272  -0.41437  -0.40267
  Beta  occ. eigenvalues --   -0.40134  -0.39440  -0.39373  -0.39240  -0.38797
  Beta  occ. eigenvalues --   -0.38270  -0.38153  -0.37931  -0.37696  -0.37548
  Beta  occ. eigenvalues --   -0.37533  -0.37397  -0.37289  -0.37227  -0.36957
  Beta  occ. eigenvalues --   -0.36931  -0.36212  -0.31938  -0.31919  -0.31509
  Beta  occ. eigenvalues --   -0.31454  -0.30907  -0.30776  -0.30048  -0.29791
  Beta virt. eigenvalues --   -0.03167   0.02107   0.05220   0.05279   0.05315
  Beta virt. eigenvalues --    0.05325   0.05727   0.05840   0.06199   0.06257
  Beta virt. eigenvalues --    0.09182   0.09612   0.10211   0.10361   0.10613
  Beta virt. eigenvalues --    0.11171   0.11637   0.12020   0.12286   0.12347
  Beta virt. eigenvalues --    0.12594   0.13287   0.13574   0.13792   0.14249
  Beta virt. eigenvalues --    0.14737   0.15043   0.15116   0.15130   0.15492
  Beta virt. eigenvalues --    0.15522   0.15640   0.15810   0.16479   0.17014
  Beta virt. eigenvalues --    0.17040   0.17220   0.17487   0.17889   0.17894
  Beta virt. eigenvalues --    0.18332   0.18499   0.18578   0.19066   0.19184
  Beta virt. eigenvalues --    0.19218   0.19547   0.19728   0.20004   0.20484
  Beta virt. eigenvalues --    0.20502   0.20584   0.20763   0.20953   0.21121
  Beta virt. eigenvalues --    0.21653   0.21797   0.22109   0.22186   0.22205
  Beta virt. eigenvalues --    0.22304   0.22721   0.23338   0.23777   0.24227
  Beta virt. eigenvalues --    0.24836   0.24879   0.25494   0.25629   0.25948
  Beta virt. eigenvalues --    0.26200   0.26439   0.26511   0.26904   0.27390
  Beta virt. eigenvalues --    0.27413   0.27824   0.28202   0.28355   0.29755
  Beta virt. eigenvalues --    0.30092   0.30749   0.31203   0.31229   0.31611
  Beta virt. eigenvalues --    0.32564   0.33558   0.34541   0.35372   0.36396
  Beta virt. eigenvalues --    0.36518   0.38360   0.38445   0.38781   0.39003
  Beta virt. eigenvalues --    0.39357   0.39655   0.40190   0.40307   0.40745
  Beta virt. eigenvalues --    0.41185   0.42887   0.43635   0.43799   0.44311
  Beta virt. eigenvalues --    0.45358   0.45389   0.45650   0.46592   0.46765
  Beta virt. eigenvalues --    0.46855   0.46891   0.47090   0.47151   0.47231
  Beta virt. eigenvalues --    0.47491   0.47601   0.47641   0.49619   0.49799
  Beta virt. eigenvalues --    0.50082   0.50604   0.50923   0.51101   0.51650
  Beta virt. eigenvalues --    0.51830   0.51985   0.52416   0.52468   0.54073
  Beta virt. eigenvalues --    0.54783   0.55013   0.56458   0.56756   0.56862
  Beta virt. eigenvalues --    0.57922   0.58229   0.58264   0.58436   0.59450
  Beta virt. eigenvalues --    0.60291   0.60743   0.61192   0.61990   0.62878
  Beta virt. eigenvalues --    0.63161   0.63378   0.63597   0.63968   0.65086
  Beta virt. eigenvalues --    0.65141   0.65590   0.65621   0.65737   0.65832
  Beta virt. eigenvalues --    0.66460   0.66602   0.67090   0.67173   0.68005
  Beta virt. eigenvalues --    0.68090   0.68154   0.68250   0.68348   0.68670
  Beta virt. eigenvalues --    0.69166   0.69432   0.69540   0.69873   0.70026
  Beta virt. eigenvalues --    0.70212   0.70356   0.70669   0.70994   0.71102
  Beta virt. eigenvalues --    0.71377   0.71739   0.71906   0.72189   0.72224
  Beta virt. eigenvalues --    0.72297   0.72358   0.72696   0.73001   0.73237
  Beta virt. eigenvalues --    0.73457   0.73561   0.73775   0.74089   0.74144
  Beta virt. eigenvalues --    0.74343   0.74586   0.74901   0.75045   0.75269
  Beta virt. eigenvalues --    0.75288   0.75673   0.75797   0.76016   0.76077
  Beta virt. eigenvalues --    0.76102   0.76162   0.76394   0.76453   0.76830
  Beta virt. eigenvalues --    0.76871   0.76960   0.77020   0.77026   0.77150
  Beta virt. eigenvalues --    0.77309   0.77390   0.77503   0.77581   0.77671
  Beta virt. eigenvalues --    0.77801   0.77943   0.78268   0.78656   0.78733
  Beta virt. eigenvalues --    0.79100   0.79272   0.79378   0.79516   0.79665
  Beta virt. eigenvalues --    0.79778   0.80058   0.80379   0.80599   0.80851
  Beta virt. eigenvalues --    0.80945   0.81176   0.81269   0.82041   0.82091
  Beta virt. eigenvalues --    0.82346   0.83738   0.83848   0.84281   0.84387
  Beta virt. eigenvalues --    0.84523   0.85154   0.85550   0.86080   0.86541
[...]
 CoulSu:  requested number of processors reduced to:  15 ShMem   1 Linda.
 CalDSu:  requested number of processors reduced to:  21 ShMem   1 Linda.
 Calling FoFCou, ICntrl=  3107 FMM=T I1Cent=   0 AccDes= 0.00D+00.
 CoulSu:  requested number of processors reduced to:  15 ShMem   1 Linda.
 CalDSu:  requested number of processors reduced to:  21 ShMem   1 Linda.
 Calling FoFCou, ICntrl=  3107 FMM=T I1Cent=   0 AccDes= 0.00D+00.
 CoulSu:  requested number of processors reduced to:  15 ShMem   1 Linda.
 CalDSu:  requested number of processors reduced to:  21 ShMem   1 Linda.
 Calling FoFCou, ICntrl=  3107 FMM=T I1Cent=   0 AccDes= 0.00D+00.
 CoulSu:  requested number of processors reduced to:  15 ShMem   1 Linda.
 CalDSu:  requested number of processors reduced to:  21 ShMem   1 Linda.
 Calling FoFCou, ICntrl=  3107 FMM=T I1Cent=   0 AccDes= 0.00D+00.
 CoulSu:  requested number of processors reduced to:  15 ShMem   1 Linda.
 CalDSu:  requested number of processors reduced to:  21 ShMem   1 Linda.
 Calling FoFCou, ICntrl=  3107 FMM=T I1Cent=   0 AccDes= 0.00D+00.
 CoulSu:  requested number of processors reduced to:  15 ShMem   1 Linda.
 CalDSu:  requested number of processors reduced to:  21 ShMem   1 Linda.
 Calling FoFCou, ICntrl=  3107 FMM=T I1Cent=   0 AccDes= 0.00D+00.
 CoulSu:  requested number of processors reduced to:  15 ShMem   1 Linda.
 CalDSu:  requested number of processors reduced to:  21 ShMem   1 Linda.
 Calling FoFCou, ICntrl=  3107 FMM=T I1Cent=   0 AccDes= 0.00D+00.
 CoulSu:  requested number of processors reduced to:  15 ShMem   1 Linda.
 CalDSu:  requested number of processors reduced to:  21 ShMem   1 Linda.
 Calling FoFCou, ICntrl=  3107 FMM=T I1Cent=   0 AccDes= 0.00D+00.
 CoulSu:  requested number of processors reduced to:  15 ShMem   1 Linda.
 CalDSu:  requested number of processors reduced to:  21 ShMem   1 Linda.
 Calling FoFCou, ICntrl=  3107 FMM=T I1Cent=   0 AccDes= 0.00D+00.
 CoulSu:  requested number of processors reduced to:  15 ShMem   1 Linda.
 CalDSu:  requested number of processors reduced to:  21 ShMem   1 Linda.
 Calling FoFCou, ICntrl=  3107 FMM=T I1Cent=   0 AccDes= 0.00D+00.
 CoulSu:  requested number of processors reduced to:  15 ShMem   1 Linda.
 CalDSu:  requested number of processors reduced to:  21 ShMem   1 Linda.
 Calling FoFCou, ICntrl=  3107 FMM=T I1Cent=   0 AccDes= 0.00D+00.
 CoulSu:  requested number of processors reduced to:  15 ShMem   1 Linda.
 CalDSu:  requested number of processors reduced to:  21 ShMem   1 Linda.
 Calling FoFCou, ICntrl=  3107 FMM=T I1Cent=   0 AccDes= 0.00D+00.
 CoulSu:  requested number of processors reduced to:  15 ShMem   1 Linda.
 CalDSu:  requested number of processors reduced to:  21 ShMem   1 Linda.
 Calling FoFCou, ICntrl=  3107 FMM=T I1Cent=   0 AccDes= 0.00D+00.
 CoulSu:  requested number of processors reduced to:  15 ShMem   1 Linda.
 CalDSu:  requested number of processors reduced to:  21 ShMem   1 Linda.
 Calling FoFCou, ICntrl=  3107 FMM=T I1Cent=   0 AccDes= 0.00D+00.
 CoulSu:  requested number of processors reduced to:  15 ShMem   1 Linda.
 CalDSu:  requested number of processors reduced to:  21 ShMem   1 Linda.
 Calling FoFCou, ICntrl=  3107 FMM=T I1Cent=   0 AccDes= 0.00D+00.
 CoulSu:  requested number of processors reduced to:  15 ShMem   1 Linda.
 CalDSu:  requested number of processors reduced to:  21 ShMem   1 Linda.
 Calling FoFCou, ICntrl=  3107 FMM=T I1Cent=   0 AccDes= 0.00D+00.
 CoulSu:  requested number of processors reduced to:  15 ShMem   1 Linda.
 CalDSu:  requested number of processors reduced to:  21 ShMem   1 Linda.
 Calling FoFCou, ICntrl=  3107 FMM=T I1Cent=   0 AccDes= 0.00D+00.
 CoulSu:  requested number of processors reduced to:  15 ShMem   1 Linda.
 CalDSu:  requested number of processors reduced to:  21 ShMem   1 Linda.
 Calling FoFCou, ICntrl=  3107 FMM=T I1Cent=   0 AccDes= 0.00D+00.
 CoulSu:  requested number of processors reduced to:  15 ShMem   1 Linda.
 CalDSu:  requested number of processors reduced to:  21 ShMem   1 Linda.
 Calling FoFCou, ICntrl=  3107 FMM=T I1Cent=   0 AccDes= 0.00D+00.
 CoulSu:  requested number of processors reduced to:  15 ShMem   1 Linda.
 CalDSu:  requested number of processors reduced to:  21 ShMem   1 Linda.
 Calling FoFCou, ICntrl=  3107 FMM=T I1Cent=   0 AccDes= 0.00D+00.
 CoulSu:  requested number of processors reduced to:  15 ShMem   1 Linda.
 CalDSu:  requested number of processors reduced to:  21 ShMem   1 Linda.
 Calling FoFCou, ICntrl=  3107 FMM=T I1Cent=   0 AccDes= 0.00D+00.
 CoulSu:  requested number of processors reduced to:  15 ShMem   1 Linda.
 CalDSu:  requested number of processors reduced to:  21 ShMem   1 Linda.
 Calling FoFCou, ICntrl=  3107 FMM=T I1Cent=   0 AccDes= 0.00D+00.
 CoulSu:  requested number of processors reduced to:  15 ShMem   1 Linda.
 CalDSu:  requested number of processors reduced to:  21 ShMem   1 Linda.
 Calling FoFCou, ICntrl=  3107 FMM=T I1Cent=   0 AccDes= 0.00D+00.
 CoulSu:  requested number of processors reduced to:  15 ShMem   1 Linda.
 CalDSu:  requested number of processors reduced to:  21 ShMem   1 Linda.
 Calling FoFCou, ICntrl=  3107 FMM=T I1Cent=   0 AccDes= 0.00D+00.
 CoulSu:  requested number of processors reduced to:  15 ShMem   1 Linda.
 CalDSu:  requested number of processors reduced to:  21 ShMem   1 Linda.
 Calling FoFCou, ICntrl=  3107 FMM=T I1Cent=   0 AccDes= 0.00D+00.
 CoulSu:  requested number of processors reduced to:  15 ShMem   1 Linda.
 CalDSu:  requested number of processors reduced to:  21 ShMem   1 Linda.
 Calling FoFCou, ICntrl=  3107 FMM=T I1Cent=   0 AccDes= 0.00D+00.
 CoulSu:  requested number of processors reduced to:  15 ShMem   1 Linda.
 CalDSu:  requested number of processors reduced to:  21 ShMem   1 Linda.
 Calling FoFCou, ICntrl=  3107 FMM=T I1Cent=   0 AccDes= 0.00D+00.
 CoulSu:  requested number of processors reduced to:  15 ShMem   1 Linda.
 CalDSu:  requested number of processors reduced to:  21 ShMem   1 Linda.
 Calling FoFCou, ICntrl=  3107 FMM=T I1Cent=   0 AccDes= 0.00D+00.
 CoulSu:  requested number of processors reduced to:  15 ShMem   1 Linda.
 CalDSu:  requested number of processors reduced to:  21 ShMem   1 Linda.
 Calling FoFCou, ICntrl=  3107 FMM=T I1Cent=   0 AccDes= 0.00D+00.
 CoulSu:  requested number of processors reduced to:  15 ShMem   1 Linda.
 CalDSu:  requested number of processors reduced to:  21 ShMem   1 Linda.
 Calling FoFCou, ICntrl=  3107 FMM=T I1Cent=   0 AccDes= 0.00D+00.
 CoulSu:  requested number of processors reduced to:  15 ShMem   1 Linda.
 CalDSu:  requested number of processors reduced to:  21 ShMem   1 Linda.
 Calling FoFCou, ICntrl=  3107 FMM=T I1Cent=   0 AccDes= 0.00D+00.
 CoulSu:  requested number of processors reduced to:  15 ShMem   1 Linda.
 CalDSu:  requested number of processors reduced to:  21 ShMem   1 Linda.
 Calling FoFCou, ICntrl=  3107 FMM=T I1Cent=   0 AccDes= 0.00D+00.
 CoulSu:  requested number of processors reduced to:  15 ShMem   1 Linda.
 CalDSu:  requested number of processors reduced to:  21 ShMem   1 Linda.
 Calling FoFCou, ICntrl=  3107 FMM=T I1Cent=   0 AccDes= 0.00D+00.
 CoulSu:  requested number of processors reduced to:  15 ShMem   1 Linda.
 CalDSu:  requested number of processors reduced to:  21 ShMem   1 Linda.
 Calling FoFCou, ICntrl=  3107 FMM=T I1Cent=   0 AccDes= 0.00D+00.
 CoulSu:  requested number of processors reduced to:  15 ShMem   1 Linda.
 CalDSu:  requested number of processors reduced to:  21 ShMem   1 Linda.
 Calling FoFCou, ICntrl=  3107 FMM=T I1Cent=   0 AccDes= 0.00D+00.
 CoulSu:  requested number of processors reduced to:  15 ShMem   1 Linda.
 CalDSu:  requested number of processors reduced to:  21 ShMem   1 Linda.
 Calling FoFCou, ICntrl=  3107 FMM=T I1Cent=   0 AccDes= 0.00D+00.
 CoulSu:  requested number of processors reduced to:  15 ShMem   1 Linda.
 CalDSu:  requested number of processors reduced to:  21 ShMem   1 Linda.
 Calling FoFCou, ICntrl=  3107 FMM=T I1Cent=   0 AccDes= 0.00D+00.
 CoulSu:  requested number of processors reduced to:  15 ShMem   1 Linda.
 CalDSu:  requested number of processors reduced to:  21 ShMem   1 Linda.
 Calling FoFCou, ICntrl=  3107 FMM=T I1Cent=   0 AccDes= 0.00D+00.
 CoulSu:  requested number of processors reduced to:  15 ShMem   1 Linda.
 CalDSu:  requested number of processors reduced to:  21 ShMem   1 Linda.
 Calling FoFCou, ICntrl=  3107 FMM=T I1Cent=   0 AccDes= 0.00D+00.
 CoulSu:  requested number of processors reduced to:  15 ShMem   1 Linda.
 CalDSu:  requested number of processors reduced to:  21 ShMem   1 Linda.
 Calling FoFCou, ICntrl=  3107 FMM=T I1Cent=   0 AccDes= 0.00D+00.
 CoulSu:  requested number of processors reduced to:  15 ShMem   1 Linda.
 CalDSu:  requested number of processors reduced to:  21 ShMem   1 Linda.
 Calling FoFCou, ICntrl=  3107 FMM=T I1Cent=   0 AccDes= 0.00D+00.
 CoulSu:  requested number of processors reduced to:  15 ShMem   1 Linda.
 CalDSu:  requested number of processors reduced to:  21 ShMem   1 Linda.
 Calling FoFCou, ICntrl=  3107 FMM=T I1Cent=   0 AccDes= 0.00D+00.
 CoulSu:  requested number of processors reduced to:  15 ShMem   1 Linda.
 CalDSu:  requested number of processors reduced to:  21 ShMem   1 Linda.
 Calling FoFCou, ICntrl=  3107 FMM=T I1Cent=   0 AccDes= 0.00D+00.
 CoulSu:  requested number of processors reduced to:  15 ShMem   1 Linda.
 CalDSu:  requested number of processors reduced to:  21 ShMem   1 Linda.
 Calling FoFCou, ICntrl=  3107 FMM=T I1Cent=   0 AccDes= 0.00D+00.
 CoulSu:  requested number of processors reduced to:  15 ShMem   1 Linda.
 CalDSu:  requested number of processors reduced to:  21 ShMem   1 Linda.
 Calling FoFCou, ICntrl=  3107 FMM=T I1Cent=   0 AccDes= 0.00D+00.
 CoulSu:  requested number of processors reduced to:  15 ShMem   1 Linda.
 CalDSu:  requested number of processors reduced to:  21 ShMem   1 Linda.
 Calling FoFCou, ICntrl=  3107 FMM=T I1Cent=   0 AccDes= 0.00D+00.
 CoulSu:  requested number of processors reduced to:  15 ShMem   1 Linda.
 CalDSu:  requested number of processors reduced to:  21 ShMem   1 Linda.
 Calling FoFCou, ICntrl=  3107 FMM=T I1Cent=   0 AccDes= 0.00D+00.
 CoulSu:  requested number of processors reduced to:  15 ShMem   1 Linda.
 CalDSu:  requested number of processors reduced to:  21 ShMem   1 Linda.
 Calling FoFCou, ICntrl=  3107 FMM=T I1Cent=   0 AccDes= 0.00D+00.
 CoulSu:  requested number of processors reduced to:  15 ShMem   1 Linda.
 CalDSu:  requested number of processors reduced to:  21 ShMem   1 Linda.
 Calling FoFCou, ICntrl=  3107 FMM=T I1Cent=   0 AccDes= 0.00D+00.
 CoulSu:  requested number of processors reduced to:  15 ShMem   1 Linda.
 CalDSu:  requested number of processors reduced to:  21 ShMem   1 Linda.
 Calling FoFCou, ICntrl=  3107 FMM=T I1Cent=   0 AccDes= 0.00D+00.
 CoulSu:  requested number of processors reduced to:  15 ShMem   1 Linda.
 CalDSu:  requested number of processors reduced to:  21 ShMem   1 Linda.
 Calling FoFCou, ICntrl=  3107 FMM=T I1Cent=   0 AccDes= 0.00D+00.
 CoulSu:  requested number of processors reduced to:  15 ShMem   1 Linda.
 CalDSu:  requested number of processors reduced to:  21 ShMem   1 Linda.
 Calling FoFCou, ICntrl=  3107 FMM=T I1Cent=   0 AccDes= 0.00D+00.
 CoulSu:  requested number of processors reduced to:  15 ShMem   1 Linda.
 CalDSu:  requested number of processors reduced to:  21 ShMem   1 Linda.
 Calling FoFCou, ICntrl=  3107 FMM=T I1Cent=   0 AccDes= 0.00D+00.
 CoulSu:  requested number of processors reduced to:  15 ShMem   1 Linda.
 CalDSu:  requested number of processors reduced to:  21 ShMem   1 Linda.
 Calling FoFCou, ICntrl=  3107 FMM=T I1Cent=   0 AccDes= 0.00D+00.
 CoulSu:  requested number of processors reduced to:  15 ShMem   1 Linda.
 CalDSu:  requested number of processors reduced to:  21 ShMem   1 Linda.
 Calling FoFCou, ICntrl=  3107 FMM=T I1Cent=   0 AccDes= 0.00D+00.
 CoulSu:  requested number of processors reduced to:  15 ShMem   1 Linda.
 CalDSu:  requested number of processors reduced to:  21 ShMem   1 Linda.
 Calling FoFCou, ICntrl=  3107 FMM=T I1Cent=   0 AccDes= 0.00D+00.
 CoulSu:  requested number of processors reduced to:  15 ShMem   1 Linda.
 CalDSu:  requested number of processors reduced to:  21 ShMem   1 Linda.
 Calling FoFCou, ICntrl=  3107 FMM=T I1Cent=   0 AccDes= 0.00D+00.
 CoulSu:  requested number of processors reduced to:  15 ShMem   1 Linda.
 CalDSu:  requested number of processors reduced to:  21 ShMem   1 Linda.
 Calling FoFCou, ICntrl=  3107 FMM=T I1Cent=   0 AccDes= 0.00D+00.
 CoulSu:  requested number of processors reduced to:  15 ShMem   1 Linda.
 CalDSu:  requested number of processors reduced to:  21 ShMem   1 Linda.
 Calling FoFCou, ICntrl=  3107 FMM=T I1Cent=   0 AccDes= 0.00D+00.
 CoulSu:  requested number of processors reduced to:  15 ShMem   1 Linda.
 CalDSu:  requested number of processors reduced to:  21 ShMem   1 Linda.
 Calling FoFCou, ICntrl=  3107 FMM=T I1Cent=   0 AccDes= 0.00D+00.
 CoulSu:  requested number of processors reduced to:  15 ShMem   1 Linda.
 CalDSu:  requested number of processors reduced to:  21 ShMem   1 Linda.
 Calling FoFCou, ICntrl=  3107 FMM=T I1Cent=   0 AccDes= 0.00D+00.
 CoulSu:  requested number of processors reduced to:  15 ShMem   1 Linda.
 CalDSu:  requested number of processors reduced to:  21 ShMem   1 Linda.
 Calling FoFCou, ICntrl=  3107 FMM=T I1Cent=   0 AccDes= 0.00D+00.
 CoulSu:  requested number of processors reduced to:  15 ShMem   1 Linda.
 CalDSu:  requested number of processors reduced to:  21 ShMem   1 Linda.
 Calling FoFCou, ICntrl=  3107 FMM=T I1Cent=   0 AccDes= 0.00D+00.
 CoulSu:  requested number of processors reduced to:  15 ShMem   1 Linda.
 CalDSu:  requested number of processors reduced to:  21 ShMem   1 Linda.
 Calling FoFCou, ICntrl=  3107 FMM=T I1Cent=   0 AccDes= 0.00D+00.
 CoulSu:  requested number of processors reduced to:  15 ShMem   1 Linda.
 CalDSu:  requested number of processors reduced to:  21 ShMem   1 Linda.
 Calling FoFCou, ICntrl=  3107 FMM=T I1Cent=   0 AccDes= 0.00D+00.
 CoulSu:  requested number of processors reduced to:  15 ShMem   1 Linda.
 CalDSu:  requested number of processors reduced to:  21 ShMem   1 Linda.
 Calling FoFCou, ICntrl=  3107 FMM=T I1Cent=   0 AccDes= 0.00D+00.
 CoulSu:  requested number of processors reduced to:  15 ShMem   1 Linda.
 CalDSu:  requested number of processors reduced to:  21 ShMem   1 Linda.
 Calling FoFCou, ICntrl=  3107 FMM=T I1Cent=   0 AccDes= 0.00D+00.
 CoulSu:  requested number of processors reduced to:  15 ShMem   1 Linda.
 CalDSu:  requested number of processors reduced to:  21 ShMem   1 Linda.
 Calling FoFCou, ICntrl=  3107 FMM=T I1Cent=   0 AccDes= 0.00D+00.
 CoulSu:  requested number of processors reduced to:  15 ShMem   1 Linda.
 CalDSu:  requested number of processors reduced to:  21 ShMem   1 Linda.
 Calling FoFCou, ICntrl=  3107 FMM=T I1Cent=   0 AccDes= 0.00D+00.
 CoulSu:  requested number of processors reduced to:  15 ShMem   1 Linda.
 CalDSu:  requested number of processors reduced to:  21 ShMem   1 Linda.
 Calling FoFCou, ICntrl=  3107 FMM=T I1Cent=   0 AccDes= 0.00D+00.
 CoulSu:  requested number of processors reduced to:  15 ShMem   1 Linda.
 CalDSu:  requested number of processors reduced to:  21 ShMem   1 Linda.
 Calling FoFCou, ICntrl=  3107 FMM=T I1Cent=   0 AccDes= 0.00D+00.
 CoulSu:  requested number of processors reduced to:  15 ShMem   1 Linda.
 CalDSu:  requested number of processors reduced to:  21 ShMem   1 Linda.
 Calling FoFCou, ICntrl=  3107 FMM=T I1Cent=   0 AccDes= 0.00D+00.
 CoulSu:  requested number of processors reduced to:  15 ShMem   1 Linda.
 CalDSu:  requested number of processors reduced to:  21 ShMem   1 Linda.
 Calling FoFCou, ICntrl=  3107 FMM=T I1Cent=   0 AccDes= 0.00D+00.
 CoulSu:  requested number of processors reduced to:  15 ShMem   1 Linda.
 CalDSu:  requested number of processors reduced to:  21 ShMem   1 Linda.
 Calling FoFCou, ICntrl=  3107 FMM=T I1Cent=   0 AccDes= 0.00D+00.
 CoulSu:  requested number of processors reduced to:  15 ShMem   1 Linda.
 CalDSu:  requested number of processors reduced to:  21 ShMem   1 Linda.
 Calling FoFCou, ICntrl=  3107 FMM=T I1Cent=   0 AccDes= 0.00D+00.
 CoulSu:  requested number of processors reduced to:  15 ShMem   1 Linda.
 CalDSu:  requested number of processors reduced to:  21 ShMem   1 Linda.
 Calling FoFCou, ICntrl=  3107 FMM=T I1Cent=   0 AccDes= 0.00D+00.
 CoulSu:  requested number of processors reduced to:  15 ShMem   1 Linda.
 CalDSu:  requested number of processors reduced to:  21 ShMem   1 Linda.
 Calling FoFCou, ICntrl=  3107 FMM=T I1Cent=   0 AccDes= 0.00D+00.
 CoulSu:  requested number of processors reduced to:  15 ShMem   1 Linda.
 CalDSu:  requested number of processors reduced to:  21 ShMem   1 Linda.
 Calling FoFCou, ICntrl=  3107 FMM=T I1Cent=   0 AccDes= 0.00D+00.
 CoulSu:  requested number of processors reduced to:  15 ShMem   1 Linda.
 CalDSu:  requested number of processors reduced to:  21 ShMem   1 Linda.
 Calling FoFCou, ICntrl=  3107 FMM=T I1Cent=   0 AccDes= 0.00D+00.
 CoulSu:  requested number of processors reduced to:  15 ShMem   1 Linda.
 CalDSu:  requested number of processors reduced to:  21 ShMem   1 Linda.
 End of G2Drv F.D. properties file   721 does not exist.
 End of G2Drv F.D. properties file   722 does not exist.
 End of G2Drv F.D. properties file   788 does not exist.
          IDoAtm=11111111111111111111111111111111111111111111111111
          IDoAtm=111111111111111111111111111111111111111111
          Differentiating once with respect to electric field.
                with respect to dipole field.
          Differentiating once with respect to nuclear coordinates.
 Estimated number of processors is:   18
 CalDSu exits because no D1Ps are significant.
          There are   279 degrees of freedom in the 1st order CPHF.  IDoFFX=6 NUNeed=     3.
    279 vectors produced by pass  0 Test12= 1.76D-13 1.00D-09 XBig12= 4.51D+02 2.94D+00.
 Estimated number of processors is:   18
 AX will form     3 AO Fock derivatives at one time.
    279 vectors produced by pass  1 Test12= 1.76D-13 1.00D-09 XBig12= 4.52D+01 5.01D-01.
 Estimated number of processors is:   18
    277 vectors produced by pass  2 Test12= 1.76D-13 1.00D-09 XBig12= 7.89D-01 4.84D-02.
 Estimated number of processors is:   18
    277 vectors produced by pass  3 Test12= 1.76D-13 1.00D-09 XBig12= 5.11D-03 4.12D-03.
 Estimated number of processors is:   18
    277 vectors produced by pass  4 Test12= 1.76D-13 1.00D-09 XBig12= 3.12D-05 3.05D-04.
 Estimated number of processors is:   18
    275 vectors produced by pass  5 Test12= 1.76D-13 1.00D-09 XBig12= 1.41D-07 2.22D-05.
 Estimated number of processors is:   18
    126 vectors produced by pass  6 Test12= 1.76D-13 1.00D-09 XBig12= 7.47D-10 1.29D-06.
 Estimated number of processors is:   18
     37 vectors produced by pass  7 Test12= 1.76D-13 1.00D-09 XBig12= 3.46D-12 1.24D-07.
 Estimated number of processors is:   18
      9 vectors produced by pass  8 Test12= 1.76D-13 1.00D-09 XBig12= 4.30D-14 2.13D-08.
 Estimated number of processors is:   18
      6 vectors produced by pass  9 Test12= 1.76D-13 1.00D-09 XBig12= 1.94D-15 2.45D-09.
 Estimated number of processors is:   18
      3 vectors produced by pass 10 Test12= 1.76D-13 1.00D-09 XBig12= 1.41D-15 1.88D-09.
 Estimated number of processors is:   18
      2 vectors produced by pass 11 Test12= 1.76D-13 1.00D-09 XBig12= 1.01D-15 1.06D-09.
 InvSVY:  IOpt=1 It=  1 EMax= 1.07D-14
 Solved reduced A of dimension  1847 with   279 vectors.
 Estimated number of processors is:   18
 Out-of-memory error in routine FMMEnt-BalFmn (IEnd=      97485418 MxCore=      97458254)
 Use %mem=120MW to provide the minimum amount of memory required to complete this step.
 Error termination via Lnk1e in /opt/gaussian/16.B.01/g16/l1002.exe at Sun Jul 28 15:57:03 2019.
 Job cpu time:       3 days  7 hours 15 minutes  4.3 seconds.
 Elapsed time:       0 days  3 hours 33 minutes 14.6 seconds.
 File lengths (MBytes):  RWF=  10232 Int=      0 D2E=      0 Chk=     64 Scr=      1
