 Entering Gaussian System, Link 0=g16
 Initial command:
 /opt/gaussian/16.B.01/g16/l1.exe "/oasis/scratch/comet/mayes/temp_project/Gau-1095.inp" -scrdir="/oasis/scratch/comet/mayes/temp_project/"
 Entering Link 1 = /opt/gaussian/16.B.01/g16/l1.exe PID=      1096.
  
 Copyright (c) 1988-2017, Gaussian, Inc.  All Rights Reserved.
  
 This is part of the Gaussian(R) 16 program.  It is based on
 the Gaussian(R) 09 system (copyright 2009, Gaussian, Inc.),
 the Gaussian(R) 03 system (copyright 2003, Gaussian, Inc.),
 the Gaussian(R) 98 system (copyright 1998, Gaussian, Inc.),
 the Gaussian(R) 94 system (copyright 1995, Gaussian, Inc.),
 the Gaussian 92(TM) system (copyright 1992, Gaussian, Inc.),
 the Gaussian 90(TM) system (copyright 1990, Gaussian, Inc.),
 the Gaussian 88(TM) system (copyright 1988, Gaussian, Inc.),
 the Gaussian 86(TM) system (copyright 1986, Carnegie Mellon
 University), and the Gaussian 82(TM) system (copyright 1983,
 Carnegie Mellon University). Gaussian is a federally registered
 trademark of Gaussian, Inc.
  
 This software contains proprietary and confidential information,
 including trade secrets, belonging to Gaussian, Inc.
  
 This software is provided under written license and may be
 used, copied, transmitted, or stored only in accord with that
 written license.
  
 The following legend is applicable only to US Government
 contracts under FAR:
  
                    RESTRICTED RIGHTS LEGEND
  
 Use, reproduction and disclosure by the US Government is
 subject to restrictions as set forth in subparagraphs (a)
 and (c) of the Commercial Computer Software - Restricted
 Rights clause in FAR 52.227-19.
  
 Gaussian, Inc.
 340 Quinnipiac St., Bldg. 40, Wallingford CT 06492
  
  
 ---------------------------------------------------------------
 Warning -- This program may not be used in any manner that
 competes with the business of Gaussian, Inc. or will provide
 assistance to any competitor of Gaussian, Inc.  The licensee
 of this program is prohibited from giving any competitor of
 Gaussian, Inc. access to this program.  By using this program,
 the user acknowledges that Gaussian, Inc. is engaged in the
 business of creating and licensing software in the field of
 computational chemistry and represents and warrants to the
 licensee that it is not a competitor of Gaussian, Inc. and that
 it will not use this program in any manner prohibited above.
 ---------------------------------------------------------------
  

 Cite this work as:
 Gaussian 16, Revision B.01,
 M. J. Frisch, G. W. Trucks, H. B. Schlegel, G. E. Scuseria, 
 M. A. Robb, J. R. Cheeseman, G. Scalmani, V. Barone, 
 G. A. Petersson, H. Nakatsuji, X. Li, M. Caricato, A. V. Marenich, 
 J. Bloino, B. G. Janesko, R. Gomperts, B. Mennucci, H. P. Hratchian, 
 J. V. Ortiz, A. F. Izmaylov, J. L. Sonnenberg, D. Williams-Young, 
 F. Ding, F. Lipparini, F. Egidi, J. Goings, B. Peng, A. Petrone, 
 T. Henderson, D. Ranasinghe, V. G. Zakrzewski, J. Gao, N. Rega, 
 G. Zheng, W. Liang, M. Hada, M. Ehara, K. Toyota, R. Fukuda, 
 J. Hasegawa, M. Ishida, T. Nakajima, Y. Honda, O. Kitao, H. Nakai, 
 T. Vreven, K. Throssell, J. A. Montgomery, Jr., J. E. Peralta, 
 F. Ogliaro, M. J. Bearpark, J. J. Heyd, E. N. Brothers, K. N. Kudin, 
 V. N. Staroverov, T. A. Keith, R. Kobayashi, J. Normand, 
 K. Raghavachari, A. P. Rendell, J. C. Burant, S. S. Iyengar, 
 J. Tomasi, M. Cossi, J. M. Millam, M. Klene, C. Adamo, R. Cammi, 
 J. W. Ochterski, R. L. Martin, K. Morokuma, O. Farkas, 
 J. B. Foresman, and D. J. Fox, Gaussian, Inc., Wallingford CT, 2016.
 
 ******************************************
 Gaussian 16:  ES64L-G16RevB.01 20-Dec-2017
                28-Jul-2019 
 ******************************************
 %RWF=/oasis/scratch/comet/mayes/temp_project/s12but_17_84_f2.rwf
 %NoSave
 %Chk=/oasis/scratch/comet/mayes/temp_project/s12but_17_84_f2.chk
 %cpu=0-23
 SetSPE:  set environment variable "MP_BIND" = "yes"
 SetSPE:  set environment variable "MP_BLIST" = "0,1,2,3,4,5,6,7,8,9,10,11,12,13,14,15,16,17,18,19,20,21,22,23"
 Will use up to   24 processors via shared memory.
 ---------------------------------------------------------
 # m062x/Def2SVP nosymm scf=xqc opt guess=mix freq=noraman
 ---------------------------------------------------------
 1/18=20,19=15,26=3,38=1/1,3;
 2/9=110,12=2,15=1,17=6,18=5,40=1/2;
 3/5=43,7=101,11=2,25=1,30=1,71=1,74=-55/1,2,3;
 4/13=-1/1;
 5/5=2,8=3,13=1,38=5/2,8;
 6/7=2,8=2,9=2,10=2,28=1/1;
 7/30=1/1,2,3,16;
 1/18=20,19=15,26=3/3(2);
 2/9=110,15=1/2;
 99//99;
 2/9=110,15=1/2;
 3/5=43,7=101,11=2,25=1,30=1,71=1,74=-55/1,2,3;
 4/5=5,16=3,69=1/1;
 5/5=2,8=3,13=1,38=5/2,8;
 7/30=1/1,2,3,16;
 1/18=20,19=15,26=3/3(-5);
 2/9=110,15=1/2;
 6/7=2,8=2,9=2,10=2,19=2,28=1/1;
 99/9=1/99;
 ----------------------------------------------------------------------
 radical calculation of fragment 2 from fragment pair [17, 84] and s12b
 ut.com
 ----------------------------------------------------------------------
 Symbolic Z-matrix:
 Charge =  0 Multiplicity = 3
 C                     6.71529   8.9299    3.22859 
 C                     6.0787    7.86027   4.11792 
 C                     4.61335   7.74277   3.81669 
 C                     5.76463   7.15627   6.58292 
 C                     6.42622   5.82603   6.37062 
 C                     5.80205   4.71172   6.01885 
 C                     5.97457   7.64297   8.02176 
 C                     6.30813   8.19608   5.59577 
 C                     5.4003    6.7199    9.10338 
 C                     3.9152    6.5748    8.94295 
 C                     5.29386   6.38721   11.66358 
 C                     5.95251   5.0404    11.59695 
 C                     5.31558   3.8856    11.4725 
 C                     5.61323   7.08239   12.9926 
 C                     5.74437   7.26959   10.49304 
 C                     5.139     6.33089   14.24246 
 C                     3.64849   6.1565    14.22321 
 C                     5.23879   6.38673   16.82374 
 C                     5.92008   5.05231   16.90921 
 C                     5.30117   3.88556   17.01114 
 C                     5.64164   7.27878   18.00424 
 C                     5.58013   7.0859    15.50228 
 C                     5.28205   6.71908   19.38598 
 C                     3.7994    6.52215   19.5095 
 C                     5.5735    7.16767   21.91359 
 C                     6.29134   5.86993   22.14351 
 C                     5.71126   4.72595   22.47492 
 C                     6.04296   8.23203   22.91241 
 C                     5.79593   7.66331   20.47965 
 C                     5.79786   7.88425   24.38501 
 C                     4.33415   7.69101   24.65329 
 C                     6.35837   8.98496   25.28749 
 H                     6.59036   8.68668   2.17332 
 H                     7.78223   9.02382   3.4385 
 H                     6.25091   9.90294   3.40737 
 H                     6.54693   6.89559   3.90254 
 H                     4.69237   7.03178   6.40602 
 H                     7.50519   5.8082    6.52585 
 H                     4.7294    4.70291   5.85942 
 H                     6.33544   3.77959   5.88129 
 H                     5.52405   8.63662   8.12653 
 H                     7.04853   7.76933   8.20053 
 H                     5.84447   9.16537   5.81246 
 H                     7.38349   8.32258   5.76555 
 H                     5.85063   5.72903   8.9956 
 H                     4.21252   6.23809   11.59555 
 H                     7.04099   5.04654   11.65785 
 H                     4.23345   3.85234   11.41021 
 H                     5.84773   2.94372   11.42923 
 H                     5.16068   8.08065   12.98519 
 H                     6.69648   7.23393   13.06301 
 H                     5.29092   8.26118   10.60484 
 H                     6.82881   7.41604   10.55528 
 H                     5.59552   5.337     14.25006 
 H                     4.15897   6.21776   16.86335 
 H                     7.00963   5.07874   16.88239 
 H                     4.21844   3.83215   17.0405 
 H                     5.84913   2.95356   17.06876 
 H                     5.16532   8.25848   17.88318 
 H                     6.72307   7.45306   17.96562 
 H                     5.11866   8.0801    15.50028 
 H                     6.66326   7.24712   15.45522 
 H                     5.764     5.74482   19.50752 
 H                     4.50414   6.99309   22.06375 
 H                     7.37397   5.90394   22.01958 
 H                     4.63613   4.66526   22.60343 
 H                     6.28449   3.81997   22.62619 
 H                     5.53668   9.17728   22.68521 
 H                     7.11423   8.41184   22.76644 
 H                     5.30888   8.63842   20.36464 
 H                     6.86776   7.83213   20.3246 
 H                     6.31021   6.94499   24.61198 
 H                     5.8486    9.93282   25.09751 
 H                     7.4235    9.13383   25.10151 
 H                     6.2225    8.73531   26.3399 
 C                     3.78305   6.5812    25.12091 
 H                     3.70216   8.5531    24.44128 
 H                     4.38597   5.70531   25.33389 
 H                     2.7188    6.50747   25.30417 
 C                     3.1997    5.36221   19.73231 
 H                     2.12277   5.28434   19.81187 
 H                     3.77659   4.45042   19.84139 
 H                     3.19596   7.42382   19.40284 
 H                     3.06808   7.07928   14.21227 
 C                     3.28057   5.43583   8.70898 
 H                     3.34154   7.49767   9.03133 
 H                     3.82743   4.50389   8.61665 
 H                     2.20387   5.39576   8.60267 
 C                     4.0165    6.66355   3.33384 
 H                     4.02185   8.63586   4.0168 
 H                     4.57814   5.7581    3.13189 
 H                     2.95425   6.64504   3.12664 
 

 GradGradGradGradGradGradGradGradGradGradGradGradGradGradGradGradGradGrad
 Berny optimization.
 Initialization pass.
                           ----------------------------
                           !    Initial Parameters    !
                           ! (Angstroms and Degrees)  !
 --------------------------                            --------------------------
 ! Name  Definition              Value          Derivative Info.                !
 --------------------------------------------------------------------------------
 ! R1    R(1,2)                  1.5298         estimate D2E/DX2                !
 ! R2    R(1,33)                 1.0901         estimate D2E/DX2                !
 ! R3    R(1,34)                 1.0914         estimate D2E/DX2                !
 ! R4    R(1,35)                 1.0929         estimate D2E/DX2                !
 ! R5    R(2,3)                  1.5006         estimate D2E/DX2                !
 ! R6    R(2,8)                  1.5328         estimate D2E/DX2                !
 ! R7    R(2,36)                 1.0937         estimate D2E/DX2                !
 ! R8    R(3,89)                 1.3244         estimate D2E/DX2                !
 ! R9    R(3,90)                 1.0897         estimate D2E/DX2                !
 ! R10   R(4,5)                  1.5008         estimate D2E/DX2                !
 ! R11   R(4,7)                  1.5334         estimate D2E/DX2                !
 ! R12   R(4,8)                  1.5333         estimate D2E/DX2                !
 ! R13   R(4,37)                 1.0939         estimate D2E/DX2                !
 ! R14   R(5,6)                  1.3248         estimate D2E/DX2                !
 ! R15   R(5,38)                 1.0902         estimate D2E/DX2                !
 ! R16   R(6,39)                 1.0845         estimate D2E/DX2                !
 ! R17   R(6,40)                 1.0827         estimate D2E/DX2                !
 ! R18   R(7,9)                  1.5335         estimate D2E/DX2                !
 ! R19   R(7,41)                 1.096          estimate D2E/DX2                !
 ! R20   R(7,42)                 1.0961         estimate D2E/DX2                !
 ! R21   R(8,43)                 1.0961         estimate D2E/DX2                !
 ! R22   R(8,44)                 1.096          estimate D2E/DX2                !
 ! R23   R(9,10)                 1.5008         estimate D2E/DX2                !
 ! R24   R(9,15)                 1.5335         estimate D2E/DX2                !
 ! R25   R(9,45)                 1.0937         estimate D2E/DX2                !
 ! R26   R(10,85)                1.3247         estimate D2E/DX2                !
 ! R27   R(10,86)                1.0902         estimate D2E/DX2                !
 ! R28   R(11,12)                1.5007         estimate D2E/DX2                !
 ! R29   R(11,14)                1.5335         estimate D2E/DX2                !
 ! R30   R(11,15)                1.5335         estimate D2E/DX2                !
 ! R31   R(11,46)                1.0937         estimate D2E/DX2                !
 ! R32   R(12,13)                1.3247         estimate D2E/DX2                !
 ! R33   R(12,47)                1.0902         estimate D2E/DX2                !
 ! R34   R(13,48)                1.0844         estimate D2E/DX2                !
 ! R35   R(13,49)                1.0827         estimate D2E/DX2                !
 ! R36   R(14,16)                1.5336         estimate D2E/DX2                !
 ! R37   R(14,50)                1.0961         estimate D2E/DX2                !
 ! R38   R(14,51)                1.0961         estimate D2E/DX2                !
 ! R39   R(15,52)                1.0961         estimate D2E/DX2                !
 ! R40   R(15,53)                1.0961         estimate D2E/DX2                !
 ! R41   R(16,17)                1.5008         estimate D2E/DX2                !
 ! R42   R(16,22)                1.5336         estimate D2E/DX2                !
 ! R43   R(16,54)                1.0938         estimate D2E/DX2                !
 ! R44   R(17,84)                1.0902         estimate D2E/DX2                !
 ! R45   R(18,19)                1.5007         estimate D2E/DX2                !
 ! R46   R(18,21)                1.5335         estimate D2E/DX2                !
 ! R47   R(18,22)                1.5335         estimate D2E/DX2                !
 ! R48   R(18,55)                1.0937         estimate D2E/DX2                !
 ! R49   R(19,20)                1.3247         estimate D2E/DX2                !
 ! R50   R(19,56)                1.0902         estimate D2E/DX2                !
 ! R51   R(20,57)                1.0845         estimate D2E/DX2                !
 ! R52   R(20,58)                1.0827         estimate D2E/DX2                !
 ! R53   R(21,23)                1.5336         estimate D2E/DX2                !
 ! R54   R(21,59)                1.0961         estimate D2E/DX2                !
 ! R55   R(21,60)                1.0961         estimate D2E/DX2                !
 ! R56   R(22,61)                1.0961         estimate D2E/DX2                !
 ! R57   R(22,62)                1.0961         estimate D2E/DX2                !
 ! R58   R(23,24)                1.5008         estimate D2E/DX2                !
 ! R59   R(23,29)                1.5335         estimate D2E/DX2                !
 ! R60   R(23,63)                1.0937         estimate D2E/DX2                !
 ! R61   R(24,80)                1.3247         estimate D2E/DX2                !
 ! R62   R(24,83)                1.0902         estimate D2E/DX2                !
 ! R63   R(25,26)                1.5008         estimate D2E/DX2                !
 ! R64   R(25,28)                1.5333         estimate D2E/DX2                !
 ! R65   R(25,29)                1.5334         estimate D2E/DX2                !
 ! R66   R(25,64)                1.0939         estimate D2E/DX2                !
 ! R67   R(26,27)                1.3248         estimate D2E/DX2                !
 ! R68   R(26,65)                1.0902         estimate D2E/DX2                !
 ! R69   R(27,66)                1.0845         estimate D2E/DX2                !
 ! R70   R(27,67)                1.0827         estimate D2E/DX2                !
 ! R71   R(28,30)                1.5328         estimate D2E/DX2                !
 ! R72   R(28,68)                1.0961         estimate D2E/DX2                !
 ! R73   R(28,69)                1.096          estimate D2E/DX2                !
 ! R74   R(29,70)                1.096          estimate D2E/DX2                !
 ! R75   R(29,71)                1.0961         estimate D2E/DX2                !
 ! R76   R(30,31)                1.5006         estimate D2E/DX2                !
 ! R77   R(30,32)                1.5298         estimate D2E/DX2                !
 ! R78   R(30,72)                1.0937         estimate D2E/DX2                !
 ! R79   R(31,76)                1.3244         estimate D2E/DX2                !
 ! R80   R(31,77)                1.0898         estimate D2E/DX2                !
 ! R81   R(32,73)                1.0929         estimate D2E/DX2                !
 ! R82   R(32,74)                1.0914         estimate D2E/DX2                !
 ! R83   R(32,75)                1.0901         estimate D2E/DX2                !
 ! R84   R(76,78)                1.0845         estimate D2E/DX2                !
 ! R85   R(76,79)                1.0824         estimate D2E/DX2                !
 ! R86   R(80,81)                1.0827         estimate D2E/DX2                !
 ! R87   R(80,82)                1.0845         estimate D2E/DX2                !
 ! R88   R(85,87)                1.0845         estimate D2E/DX2                !
 ! R89   R(85,88)                1.0827         estimate D2E/DX2                !
 ! R90   R(89,91)                1.0845         estimate D2E/DX2                !
 ! R91   R(89,92)                1.0824         estimate D2E/DX2                !
 ! A1    A(2,1,33)             111.0425         estimate D2E/DX2                !
 ! A2    A(2,1,34)             110.8021         estimate D2E/DX2                !
 ! A3    A(2,1,35)             110.5245         estimate D2E/DX2                !
 ! A4    A(33,1,34)            108.5063         estimate D2E/DX2                !
 ! A5    A(33,1,35)            107.9576         estimate D2E/DX2                !
 ! A6    A(34,1,35)            107.8963         estimate D2E/DX2                !
 ! A7    A(1,2,3)              110.1454         estimate D2E/DX2                !
 ! A8    A(1,2,8)              110.184          estimate D2E/DX2                !
 ! A9    A(1,2,36)             108.9096         estimate D2E/DX2                !
 ! A10   A(3,2,8)              110.9079         estimate D2E/DX2                !
 ! A11   A(3,2,36)             108.0266         estimate D2E/DX2                !
 ! A12   A(8,2,36)             108.6033         estimate D2E/DX2                !
 ! A13   A(2,3,89)             125.2436         estimate D2E/DX2                !
 ! A14   A(2,3,90)             115.4047         estimate D2E/DX2                !
 ! A15   A(89,3,90)            119.3507         estimate D2E/DX2                !
 ! A16   A(5,4,7)              110.7154         estimate D2E/DX2                !
 ! A17   A(5,4,8)              110.7171         estimate D2E/DX2                !
 ! A18   A(5,4,37)             107.9616         estimate D2E/DX2                !
 ! A19   A(7,4,8)              109.8974         estimate D2E/DX2                !
 ! A20   A(7,4,37)             108.7889         estimate D2E/DX2                !
 ! A21   A(8,4,37)             108.6943         estimate D2E/DX2                !
 ! A22   A(4,5,6)              125.129          estimate D2E/DX2                !
 ! A23   A(4,5,38)             115.5083         estimate D2E/DX2                !
 ! A24   A(6,5,38)             119.3627         estimate D2E/DX2                !
 ! A25   A(5,6,39)             120.7895         estimate D2E/DX2                !
 ! A26   A(5,6,40)             121.7202         estimate D2E/DX2                !
 ! A27   A(39,6,40)            117.4902         estimate D2E/DX2                !
 ! A28   A(4,7,9)              114.8034         estimate D2E/DX2                !
 ! A29   A(4,7,41)             108.7341         estimate D2E/DX2                !
 ! A30   A(4,7,42)             108.8924         estimate D2E/DX2                !
 ! A31   A(9,7,41)             108.9262         estimate D2E/DX2                !
 ! A32   A(9,7,42)             108.7408         estimate D2E/DX2                !
 ! A33   A(41,7,42)            106.4185         estimate D2E/DX2                !
 ! A34   A(2,8,4)              114.7778         estimate D2E/DX2                !
 ! A35   A(2,8,43)             108.7245         estimate D2E/DX2                !
 ! A36   A(2,8,44)             108.7537         estimate D2E/DX2                !
 ! A37   A(4,8,43)             108.8125         estimate D2E/DX2                !
 ! A38   A(4,8,44)             109.0463         estimate D2E/DX2                !
 ! A39   A(43,8,44)            106.4003         estimate D2E/DX2                !
 ! A40   A(7,9,10)             110.6932         estimate D2E/DX2                !
 ! A41   A(7,9,15)             109.8382         estimate D2E/DX2                !
 ! A42   A(7,9,45)             108.7614         estimate D2E/DX2                !
 ! A43   A(10,9,15)            110.7042         estimate D2E/DX2                !
 ! A44   A(10,9,45)            108.0182         estimate D2E/DX2                !
 ! A45   A(15,9,45)            108.7631         estimate D2E/DX2                !
 ! A46   A(9,10,85)            125.1761         estimate D2E/DX2                !
 ! A47   A(9,10,86)            115.4793         estimate D2E/DX2                !
 ! A48   A(85,10,86)           119.3446         estimate D2E/DX2                !
 ! A49   A(12,11,14)           110.7268         estimate D2E/DX2                !
 ! A50   A(12,11,15)           110.7052         estimate D2E/DX2                !
 ! A51   A(12,11,46)           107.9878         estimate D2E/DX2                !
 ! A52   A(14,11,15)           109.8462         estimate D2E/DX2                !
 ! A53   A(14,11,46)           108.762          estimate D2E/DX2                !
 ! A54   A(15,11,46)           108.7489         estimate D2E/DX2                !
 ! A55   A(11,12,13)           125.1349         estimate D2E/DX2                !
 ! A56   A(11,12,47)           115.5095         estimate D2E/DX2                !
 ! A57   A(13,12,47)           119.3555         estimate D2E/DX2                !
 ! A58   A(12,13,48)           120.793          estimate D2E/DX2                !
 ! A59   A(12,13,49)           121.7239         estimate D2E/DX2                !
 ! A60   A(48,13,49)           117.4831         estimate D2E/DX2                !
 ! A61   A(11,14,16)           114.8212         estimate D2E/DX2                !
 ! A62   A(11,14,50)           108.7255         estimate D2E/DX2                !
 ! A63   A(11,14,51)           108.9167         estimate D2E/DX2                !
 ! A64   A(16,14,50)           108.9126         estimate D2E/DX2                !
 ! A65   A(16,14,51)           108.7245         estimate D2E/DX2                !
 ! A66   A(50,14,51)           106.4134         estimate D2E/DX2                !
 ! A67   A(9,15,11)            114.8049         estimate D2E/DX2                !
 ! A68   A(9,15,52)            108.8986         estimate D2E/DX2                !
 ! A69   A(9,15,53)            108.7439         estimate D2E/DX2                !
 ! A70   A(11,15,52)           108.7328         estimate D2E/DX2                !
 ! A71   A(11,15,53)           108.9166         estimate D2E/DX2                !
 ! A72   A(52,15,53)           106.4185         estimate D2E/DX2                !
 ! A73   A(14,16,17)           110.7082         estimate D2E/DX2                !
 ! A74   A(14,16,22)           109.8357         estimate D2E/DX2                !
 ! A75   A(14,16,54)           108.7768         estimate D2E/DX2                !
 ! A76   A(17,16,22)           110.6972         estimate D2E/DX2                !
 ! A77   A(17,16,54)           108.0006         estimate D2E/DX2                !
 ! A78   A(22,16,54)           108.7597         estimate D2E/DX2                !
 ! A79   A(16,17,84)           115.5004         estimate D2E/DX2                !
 ! A80   A(19,18,21)           110.7409         estimate D2E/DX2                !
 ! A81   A(19,18,22)           110.6972         estimate D2E/DX2                !
 ! A82   A(19,18,55)           107.9859         estimate D2E/DX2                !
 ! A83   A(21,18,22)           109.8571         estimate D2E/DX2                !
 ! A84   A(21,18,55)           108.7454         estimate D2E/DX2                !
 ! A85   A(22,18,55)           108.7495         estimate D2E/DX2                !
 ! A86   A(18,19,20)           125.1318         estimate D2E/DX2                !
 ! A87   A(18,19,56)           115.515          estimate D2E/DX2                !
 ! A88   A(20,19,56)           119.3532         estimate D2E/DX2                !
 ! A89   A(19,20,57)           120.7937         estimate D2E/DX2                !
 ! A90   A(19,20,58)           121.7242         estimate D2E/DX2                !
 ! A91   A(57,20,58)           117.4821         estimate D2E/DX2                !
 ! A92   A(18,21,23)           114.8157         estimate D2E/DX2                !
 ! A93   A(18,21,59)           108.7088         estimate D2E/DX2                !
 ! A94   A(18,21,60)           108.9393         estimate D2E/DX2                !
 ! A95   A(23,21,59)           108.8953         estimate D2E/DX2                !
 ! A96   A(23,21,60)           108.7316         estimate D2E/DX2                !
 ! A97   A(59,21,60)           106.4247         estimate D2E/DX2                !
 ! A98   A(16,22,18)           114.7981         estimate D2E/DX2                !
 ! A99   A(16,22,61)           108.9019         estimate D2E/DX2                !
 ! A100  A(16,22,62)           108.748          estimate D2E/DX2                !
 ! A101  A(18,22,61)           108.748          estimate D2E/DX2                !
 ! A102  A(18,22,62)           108.9069         estimate D2E/DX2                !
 ! A103  A(61,22,62)           106.4125         estimate D2E/DX2                !
 ! A104  A(21,23,24)           110.714          estimate D2E/DX2                !
 ! A105  A(21,23,29)           109.8328         estimate D2E/DX2                !
 ! A106  A(21,23,63)           108.7779         estimate D2E/DX2                !
 ! A107  A(24,23,29)           110.68           estimate D2E/DX2                !
 ! A108  A(24,23,63)           108.0171         estimate D2E/DX2                !
 ! A109  A(29,23,63)           108.7568         estimate D2E/DX2                !
 ! A110  A(23,24,80)           125.1698         estimate D2E/DX2                !
 ! A111  A(23,24,83)           115.4832         estimate D2E/DX2                !
 ! A112  A(80,24,83)           119.347          estimate D2E/DX2                !
 ! A113  A(26,25,28)           110.7332         estimate D2E/DX2                !
 ! A114  A(26,25,29)           110.695          estimate D2E/DX2                !
 ! A115  A(26,25,64)           107.9721         estimate D2E/DX2                !
 ! A116  A(28,25,29)           109.9007         estimate D2E/DX2                !
 ! A117  A(28,25,64)           108.704          estimate D2E/DX2                !
 ! A118  A(29,25,64)           108.7696         estimate D2E/DX2                !
 ! A119  A(25,26,27)           125.142          estimate D2E/DX2                !
 ! A120  A(25,26,65)           115.5054         estimate D2E/DX2                !
 ! A121  A(27,26,65)           119.3525         estimate D2E/DX2                !
 ! A122  A(26,27,66)           120.8012         estimate D2E/DX2                !
 ! A123  A(26,27,67)           121.7157         estimate D2E/DX2                !
 ! A124  A(66,27,67)           117.483          estimate D2E/DX2                !
 ! A125  A(25,28,30)           114.7956         estimate D2E/DX2                !
 ! A126  A(25,28,68)           108.7957         estimate D2E/DX2                !
 ! A127  A(25,28,69)           109.05           estimate D2E/DX2                !
 ! A128  A(30,28,68)           108.7201         estimate D2E/DX2                !
 ! A129  A(30,28,69)           108.7511         estimate D2E/DX2                !
 ! A130  A(68,28,69)           106.4015         estimate D2E/DX2                !
 ! A131  A(23,29,25)           114.7892         estimate D2E/DX2                !
 ! A132  A(23,29,70)           108.9074         estimate D2E/DX2                !
 ! A133  A(23,29,71)           108.7616         estimate D2E/DX2                !
 ! A134  A(25,29,70)           108.7379         estimate D2E/DX2                !
 ! A135  A(25,29,71)           108.9            estimate D2E/DX2                !
 ! A136  A(70,29,71)           106.4205         estimate D2E/DX2                !
 ! A137  A(28,30,31)           110.9127         estimate D2E/DX2                !
 ! A138  A(28,30,32)           110.1772         estimate D2E/DX2                !
 ! A139  A(28,30,72)           108.6213         estimate D2E/DX2                !
 ! A140  A(31,30,32)           110.1558         estimate D2E/DX2                !
 ! A141  A(31,30,72)           108.0134         estimate D2E/DX2                !
 ! A142  A(32,30,72)           108.8961         estimate D2E/DX2                !
 ! A143  A(30,31,76)           125.2339         estimate D2E/DX2                !
 ! A144  A(30,31,77)           115.4061         estimate D2E/DX2                !
 ! A145  A(76,31,77)           119.3591         estimate D2E/DX2                !
 ! A146  A(30,32,73)           110.5238         estimate D2E/DX2                !
 ! A147  A(30,32,74)           110.8041         estimate D2E/DX2                !
 ! A148  A(30,32,75)           111.0443         estimate D2E/DX2                !
 ! A149  A(73,32,74)           107.8955         estimate D2E/DX2                !
 ! A150  A(73,32,75)           107.9576         estimate D2E/DX2                !
 ! A151  A(74,32,75)           108.5038         estimate D2E/DX2                !
 ! A152  A(31,76,78)           120.9846         estimate D2E/DX2                !
 ! A153  A(31,76,79)           121.7341         estimate D2E/DX2                !
 ! A154  A(78,76,79)           117.2812         estimate D2E/DX2                !
 ! A155  A(24,80,81)           121.7128         estimate D2E/DX2                !
 ! A156  A(24,80,82)           120.8183         estimate D2E/DX2                !
 ! A157  A(81,80,82)           117.4688         estimate D2E/DX2                !
 ! A158  A(10,85,87)           120.8193         estimate D2E/DX2                !
 ! A159  A(10,85,88)           121.7092         estimate D2E/DX2                !
 ! A160  A(87,85,88)           117.4715         estimate D2E/DX2                !
 ! A161  A(3,89,91)            120.9873         estimate D2E/DX2                !
 ! A162  A(3,89,92)            121.7333         estimate D2E/DX2                !
 ! A163  A(91,89,92)           117.2793         estimate D2E/DX2                !
 ! D1    D(33,1,2,3)           -59.2984         estimate D2E/DX2                !
 ! D2    D(33,1,2,8)           178.0282         estimate D2E/DX2                !
 ! D3    D(33,1,2,36)           59.0022         estimate D2E/DX2                !
 ! D4    D(34,1,2,3)          -179.9594         estimate D2E/DX2                !
 ! D5    D(34,1,2,8)            57.3672         estimate D2E/DX2                !
 ! D6    D(34,1,2,36)          -61.6589         estimate D2E/DX2                !
 ! D7    D(35,1,2,3)            60.4875         estimate D2E/DX2                !
 ! D8    D(35,1,2,8)           -62.186          estimate D2E/DX2                !
 ! D9    D(35,1,2,36)          178.788          estimate D2E/DX2                !
 ! D10   D(1,2,3,89)           116.8745         estimate D2E/DX2                !
 ! D11   D(1,2,3,90)           -62.7604         estimate D2E/DX2                !
 ! D12   D(8,2,3,89)          -120.8786         estimate D2E/DX2                !
 ! D13   D(8,2,3,90)            59.4864         estimate D2E/DX2                !
 ! D14   D(36,2,3,89)           -1.9676         estimate D2E/DX2                !
 ! D15   D(36,2,3,90)          178.3975         estimate D2E/DX2                !
 ! D16   D(1,2,8,4)           -177.4238         estimate D2E/DX2                !
 ! D17   D(1,2,8,43)            60.4708         estimate D2E/DX2                !
 ! D18   D(1,2,8,44)           -54.992          estimate D2E/DX2                !
 ! D19   D(3,2,8,4)             60.3518         estimate D2E/DX2                !
 ! D20   D(3,2,8,43)           -61.7536         estimate D2E/DX2                !
 ! D21   D(3,2,8,44)          -177.2164         estimate D2E/DX2                !
 ! D22   D(36,2,8,4)           -58.211          estimate D2E/DX2                !
 ! D23   D(36,2,8,43)          179.6835         estimate D2E/DX2                !
 ! D24   D(36,2,8,44)           64.2208         estimate D2E/DX2                !
 ! D25   D(2,3,89,91)            0.8328         estimate D2E/DX2                !
 ! D26   D(2,3,89,92)         -179.2981         estimate D2E/DX2                !
 ! D27   D(90,3,89,91)        -179.5455         estimate D2E/DX2                !
 ! D28   D(90,3,89,92)           0.3236         estimate D2E/DX2                !
 ! D29   D(7,4,5,6)            119.5357         estimate D2E/DX2                !
 ! D30   D(7,4,5,38)           -60.4571         estimate D2E/DX2                !
 ! D31   D(8,4,5,6)           -118.3206         estimate D2E/DX2                !
 ! D32   D(8,4,5,38)            61.6866         estimate D2E/DX2                !
 ! D33   D(37,4,5,6)             0.5505         estimate D2E/DX2                !
 ! D34   D(37,4,5,38)         -179.4423         estimate D2E/DX2                !
 ! D35   D(5,4,7,9)            -60.5806         estimate D2E/DX2                !
 ! D36   D(5,4,7,41)           177.141          estimate D2E/DX2                !
 ! D37   D(5,4,7,42)            61.5767         estimate D2E/DX2                !
 ! D38   D(8,4,7,9)            176.7974         estimate D2E/DX2                !
 ! D39   D(8,4,7,41)            54.519          estimate D2E/DX2                !
 ! D40   D(8,4,7,42)           -61.0453         estimate D2E/DX2                !
 ! D41   D(37,4,7,9)            57.9034         estimate D2E/DX2                !
 ! D42   D(37,4,7,41)          -64.375          estimate D2E/DX2                !
 ! D43   D(37,4,7,42)         -179.9393         estimate D2E/DX2                !
 ! D44   D(5,4,8,2)             60.9123         estimate D2E/DX2                !
 ! D45   D(5,4,8,43)          -177.03           estimate D2E/DX2                !
 ! D46   D(5,4,8,44)           -61.3613         estimate D2E/DX2                !
 ! D47   D(7,4,8,2)           -176.4667         estimate D2E/DX2                !
 ! D48   D(7,4,8,43)           -54.409          estimate D2E/DX2                !
 ! D49   D(7,4,8,44)            61.2597         estimate D2E/DX2                !
 ! D50   D(37,4,8,2)           -57.5146         estimate D2E/DX2                !
 ! D51   D(37,4,8,43)           64.5431         estimate D2E/DX2                !
 ! D52   D(37,4,8,44)         -179.7882         estimate D2E/DX2                !
 ! D53   D(4,5,6,39)            -0.0562         estimate D2E/DX2                !
 ! D54   D(4,5,6,40)          -179.9456         estimate D2E/DX2                !
 ! D55   D(38,5,6,39)          179.9363         estimate D2E/DX2                !
 ! D56   D(38,5,6,40)            0.047          estimate D2E/DX2                !
 ! D57   D(4,7,9,10)           -60.7669         estimate D2E/DX2                !
 ! D58   D(4,7,9,15)           176.6824         estimate D2E/DX2                !
 ! D59   D(4,7,9,45)            57.7561         estimate D2E/DX2                !
 ! D60   D(41,7,9,10)           61.4076         estimate D2E/DX2                !
 ! D61   D(41,7,9,15)          -61.1431         estimate D2E/DX2                !
 ! D62   D(41,7,9,45)          179.9306         estimate D2E/DX2                !
 ! D63   D(42,7,9,10)          176.9937         estimate D2E/DX2                !
 ! D64   D(42,7,9,15)           54.4431         estimate D2E/DX2                !
 ! D65   D(42,7,9,45)          -64.4832         estimate D2E/DX2                !
 ! D66   D(7,9,10,85)          118.8363         estimate D2E/DX2                !
 ! D67   D(7,9,10,86)          -61.1627         estimate D2E/DX2                !
 ! D68   D(15,9,10,85)        -119.119          estimate D2E/DX2                !
 ! D69   D(15,9,10,86)          60.882          estimate D2E/DX2                !
 ! D70   D(45,9,10,85)          -0.1371         estimate D2E/DX2                !
 ! D71   D(45,9,10,86)         179.8638         estimate D2E/DX2                !
 ! D72   D(7,9,15,11)         -176.5641         estimate D2E/DX2                !
 ! D73   D(7,9,15,52)           61.2831         estimate D2E/DX2                !
 ! D74   D(7,9,15,53)          -54.2898         estimate D2E/DX2                !
 ! D75   D(10,9,15,11)          60.8917         estimate D2E/DX2                !
 ! D76   D(10,9,15,52)         -61.261          estimate D2E/DX2                !
 ! D77   D(10,9,15,53)        -176.834          estimate D2E/DX2                !
 ! D78   D(45,9,15,11)         -57.6389         estimate D2E/DX2                !
 ! D79   D(45,9,15,52)        -179.7916         estimate D2E/DX2                !
 ! D80   D(45,9,15,53)          64.6355         estimate D2E/DX2                !
 ! D81   D(9,10,85,87)          -0.0037         estimate D2E/DX2                !
 ! D82   D(9,10,85,88)        -179.9997         estimate D2E/DX2                !
 ! D83   D(86,10,85,87)        179.9953         estimate D2E/DX2                !
 ! D84   D(86,10,85,88)         -0.0007         estimate D2E/DX2                !
 ! D85   D(14,11,12,13)        119.1948         estimate D2E/DX2                !
 ! D86   D(14,11,12,47)        -60.8374         estimate D2E/DX2                !
 ! D87   D(15,11,12,13)       -118.7268         estimate D2E/DX2                !
 ! D88   D(15,11,12,47)         61.241          estimate D2E/DX2                !
 ! D89   D(46,11,12,13)          0.2198         estimate D2E/DX2                !
 ! D90   D(46,11,12,47)       -179.8124         estimate D2E/DX2                !
 ! D91   D(12,11,14,16)        -60.6219         estimate D2E/DX2                !
 ! D92   D(12,11,14,50)        177.1118         estimate D2E/DX2                !
 ! D93   D(12,11,14,51)         61.5452         estimate D2E/DX2                !
 ! D94   D(15,11,14,16)        176.7983         estimate D2E/DX2                !
 ! D95   D(15,11,14,50)         54.532          estimate D2E/DX2                !
 ! D96   D(15,11,14,51)        -61.0346         estimate D2E/DX2                !
 ! D97   D(46,11,14,16)         57.8843         estimate D2E/DX2                !
 ! D98   D(46,11,14,50)        -64.382          estimate D2E/DX2                !
 ! D99   D(46,11,14,51)       -179.9487         estimate D2E/DX2                !
 ! D100  D(12,11,15,9)          60.9907         estimate D2E/DX2                !
 ! D101  D(12,11,15,52)       -176.7668         estimate D2E/DX2                !
 ! D102  D(12,11,15,53)        -61.1902         estimate D2E/DX2                !
 ! D103  D(14,11,15,9)        -176.4167         estimate D2E/DX2                !
 ! D104  D(14,11,15,52)        -54.1742         estimate D2E/DX2                !
 ! D105  D(14,11,15,53)         61.4024         estimate D2E/DX2                !
 ! D106  D(46,11,15,9)         -57.4946         estimate D2E/DX2                !
 ! D107  D(46,11,15,52)         64.7479         estimate D2E/DX2                !
 ! D108  D(46,11,15,53)       -179.6755         estimate D2E/DX2                !
 ! D109  D(11,12,13,48)         -0.0544         estimate D2E/DX2                !
 ! D110  D(11,12,13,49)        179.9576         estimate D2E/DX2                !
 ! D111  D(47,12,13,48)        179.9789         estimate D2E/DX2                !
 ! D112  D(47,12,13,49)         -0.0091         estimate D2E/DX2                !
 ! D113  D(11,14,16,17)        -60.4213         estimate D2E/DX2                !
 ! D114  D(11,14,16,22)        177.0285         estimate D2E/DX2                !
 ! D115  D(11,14,16,54)         58.0986         estimate D2E/DX2                !
 ! D116  D(50,14,16,17)         61.7438         estimate D2E/DX2                !
 ! D117  D(50,14,16,22)        -60.8064         estimate D2E/DX2                !
 ! D118  D(50,14,16,54)       -179.7363         estimate D2E/DX2                !
 ! D119  D(51,14,16,17)        177.3077         estimate D2E/DX2                !
 ! D120  D(51,14,16,22)         54.7575         estimate D2E/DX2                !
 ! D121  D(51,14,16,54)        -64.1724         estimate D2E/DX2                !
 ! D122  D(14,16,17,84)        -60.9033         estimate D2E/DX2                !
 ! D123  D(22,16,17,84)         61.1436         estimate D2E/DX2                !
 ! D124  D(54,16,17,84)       -179.8935         estimate D2E/DX2                !
 ! D125  D(14,16,22,18)       -176.407          estimate D2E/DX2                !
 ! D126  D(14,16,22,61)         61.4228         estimate D2E/DX2                !
 ! D127  D(14,16,22,62)        -54.147          estimate D2E/DX2                !
 ! D128  D(17,16,22,18)         61.0364         estimate D2E/DX2                !
 ! D129  D(17,16,22,61)        -61.1339         estimate D2E/DX2                !
 ! D130  D(17,16,22,62)       -176.7037         estimate D2E/DX2                !
 ! D131  D(54,16,22,18)        -57.4665         estimate D2E/DX2                !
 ! D132  D(54,16,22,61)       -179.6367         estimate D2E/DX2                !
 ! D133  D(54,16,22,62)         64.7935         estimate D2E/DX2                !
 ! D134  D(21,18,19,20)        119.1091         estimate D2E/DX2                !
 ! D135  D(21,18,19,56)        -60.9151         estimate D2E/DX2                !
 ! D136  D(22,18,19,20)       -118.7945         estimate D2E/DX2                !
 ! D137  D(22,18,19,56)         61.1813         estimate D2E/DX2                !
 ! D138  D(55,18,19,20)          0.1471         estimate D2E/DX2                !
 ! D139  D(55,18,19,56)       -179.8771         estimate D2E/DX2                !
 ! D140  D(19,18,21,23)        -60.4974         estimate D2E/DX2                !
 ! D141  D(19,18,21,59)        177.2753         estimate D2E/DX2                !
 ! D142  D(19,18,21,60)         61.6921         estimate D2E/DX2                !
 ! D143  D(22,18,21,23)        176.9159         estimate D2E/DX2                !
 ! D144  D(22,18,21,59)         54.6887         estimate D2E/DX2                !
 ! D145  D(22,18,21,60)        -60.8945         estimate D2E/DX2                !
 ! D146  D(55,18,21,23)         58.0046         estimate D2E/DX2                !
 ! D147  D(55,18,21,59)        -64.2226         estimate D2E/DX2                !
 ! D148  D(55,18,21,60)       -179.8058         estimate D2E/DX2                !
 ! D149  D(19,18,22,16)         61.2369         estimate D2E/DX2                !
 ! D150  D(19,18,22,61)       -176.5096         estimate D2E/DX2                !
 ! D151  D(19,18,22,62)        -60.9371         estimate D2E/DX2                !
 ! D152  D(21,18,22,16)       -176.1507         estimate D2E/DX2                !
 ! D153  D(21,18,22,61)        -53.8971         estimate D2E/DX2                !
 ! D154  D(21,18,22,62)         61.6753         estimate D2E/DX2                !
 ! D155  D(55,18,22,16)        -57.2419         estimate D2E/DX2                !
 ! D156  D(55,18,22,61)         65.0117         estimate D2E/DX2                !
 ! D157  D(55,18,22,62)       -179.4158         estimate D2E/DX2                !
 ! D158  D(18,19,20,57)         -0.0662         estimate D2E/DX2                !
 ! D159  D(18,19,20,58)        179.9717         estimate D2E/DX2                !
 ! D160  D(56,19,20,57)        179.9588         estimate D2E/DX2                !
 ! D161  D(56,19,20,58)         -0.0033         estimate D2E/DX2                !
 ! D162  D(18,21,23,24)        -60.2752         estimate D2E/DX2                !
 ! D163  D(18,21,23,29)        177.1943         estimate D2E/DX2                !
 ! D164  D(18,21,23,63)         58.269          estimate D2E/DX2                !
 ! D165  D(59,21,23,24)         61.8511         estimate D2E/DX2                !
 ! D166  D(59,21,23,29)        -60.6794         estimate D2E/DX2                !
 ! D167  D(59,21,23,63)       -179.6047         estimate D2E/DX2                !
 ! D168  D(60,21,23,24)        177.4229         estimate D2E/DX2                !
 ! D169  D(60,21,23,29)         54.8924         estimate D2E/DX2                !
 ! D170  D(60,21,23,63)        -64.0329         estimate D2E/DX2                !
 ! D171  D(21,23,24,80)        119.2456         estimate D2E/DX2                !
 ! D172  D(21,23,24,83)        -60.7634         estimate D2E/DX2                !
 ! D173  D(29,23,24,80)       -118.7188         estimate D2E/DX2                !
 ! D174  D(29,23,24,83)         61.2721         estimate D2E/DX2                !
 ! D175  D(63,23,24,80)          0.2407         estimate D2E/DX2                !
 ! D176  D(63,23,24,83)       -179.7684         estimate D2E/DX2                !
 ! D177  D(21,23,29,25)       -176.3704         estimate D2E/DX2                !
 ! D178  D(21,23,29,70)         61.4745         estimate D2E/DX2                !
 ! D179  D(21,23,29,71)        -54.1152         estimate D2E/DX2                !
 ! D180  D(24,23,29,25)         61.079          estimate D2E/DX2                !
 ! D181  D(24,23,29,70)        -61.0761         estimate D2E/DX2                !
 ! D182  D(24,23,29,71)       -176.6658         estimate D2E/DX2                !
 ! D183  D(63,23,29,25)        -57.4321         estimate D2E/DX2                !
 ! D184  D(63,23,29,70)       -179.5872         estimate D2E/DX2                !
 ! D185  D(63,23,29,71)         64.8231         estimate D2E/DX2                !
 ! D186  D(23,24,80,81)        179.9833         estimate D2E/DX2                !
 ! D187  D(23,24,80,82)         -0.0607         estimate D2E/DX2                !
 ! D188  D(83,24,80,81)         -0.0073         estimate D2E/DX2                !
 ! D189  D(83,24,80,82)        179.9487         estimate D2E/DX2                !
 ! D190  D(28,25,26,27)        118.6581         estimate D2E/DX2                !
 ! D191  D(28,25,26,65)        -61.3987         estimate D2E/DX2                !
 ! D192  D(29,25,26,27)       -119.197          estimate D2E/DX2                !
 ! D193  D(29,25,26,65)         60.7463         estimate D2E/DX2                !
 ! D194  D(64,25,26,27)         -0.2406         estimate D2E/DX2                !
 ! D195  D(64,25,26,65)        179.7026         estimate D2E/DX2                !
 ! D196  D(26,25,28,30)        -60.7097         estimate D2E/DX2                !
 ! D197  D(26,25,28,68)        177.2388         estimate D2E/DX2                !
 ! D198  D(26,25,28,69)         61.5759         estimate D2E/DX2                !
 ! D199  D(29,25,28,30)        176.682          estimate D2E/DX2                !
 ! D200  D(29,25,28,68)         54.6305         estimate D2E/DX2                !
 ! D201  D(29,25,28,69)        -61.0324         estimate D2E/DX2                !
 ! D202  D(64,25,28,30)         57.7455         estimate D2E/DX2                !
 ! D203  D(64,25,28,68)        -64.306          estimate D2E/DX2                !
 ! D204  D(64,25,28,69)       -179.9689         estimate D2E/DX2                !
 ! D205  D(26,25,29,23)         61.0528         estimate D2E/DX2                !
 ! D206  D(26,25,29,70)       -176.7003         estimate D2E/DX2                !
 ! D207  D(26,25,29,71)        -61.1275         estimate D2E/DX2                !
 ! D208  D(28,25,29,23)       -176.3163         estimate D2E/DX2                !
 ! D209  D(28,25,29,70)        -54.0694         estimate D2E/DX2                !
 ! D210  D(28,25,29,71)         61.5034         estimate D2E/DX2                !
 ! D211  D(64,25,29,23)        -57.4201         estimate D2E/DX2                !
 ! D212  D(64,25,29,70)         64.8268         estimate D2E/DX2                !
 ! D213  D(64,25,29,71)       -179.6004         estimate D2E/DX2                !
 ! D214  D(25,26,27,66)         -0.0048         estimate D2E/DX2                !
 ! D215  D(25,26,27,67)        179.9038         estimate D2E/DX2                !
 ! D216  D(65,26,27,66)       -179.946          estimate D2E/DX2                !
 ! D217  D(65,26,27,67)         -0.0374         estimate D2E/DX2                !
 ! D218  D(25,28,30,31)        -60.2127         estimate D2E/DX2                !
 ! D219  D(25,28,30,32)        177.5512         estimate D2E/DX2                !
 ! D220  D(25,28,30,72)         58.3479         estimate D2E/DX2                !
 ! D221  D(68,28,30,31)         61.8797         estimate D2E/DX2                !
 ! D222  D(68,28,30,32)        -60.3563         estimate D2E/DX2                !
 ! D223  D(68,28,30,72)       -179.5596         estimate D2E/DX2                !
 ! D224  D(69,28,30,31)        177.3402         estimate D2E/DX2                !
 ! D225  D(69,28,30,32)         55.1041         estimate D2E/DX2                !
 ! D226  D(69,28,30,72)        -64.0992         estimate D2E/DX2                !
 ! D227  D(28,30,31,76)        120.7342         estimate D2E/DX2                !
 ! D228  D(28,30,31,77)        -59.6138         estimate D2E/DX2                !
 ! D229  D(32,30,31,76)       -117.0173         estimate D2E/DX2                !
 ! D230  D(32,30,31,77)         62.6348         estimate D2E/DX2                !
 ! D231  D(72,30,31,76)          1.8066         estimate D2E/DX2                !
 ! D232  D(72,30,31,77)       -178.5414         estimate D2E/DX2                !
 ! D233  D(28,30,32,73)         62.1889         estimate D2E/DX2                !
 ! D234  D(28,30,32,74)        -57.3641         estimate D2E/DX2                !
 ! D235  D(28,30,32,75)       -178.0245         estimate D2E/DX2                !
 ! D236  D(31,30,32,73)        -60.4929         estimate D2E/DX2                !
 ! D237  D(31,30,32,74)        179.9541         estimate D2E/DX2                !
 ! D238  D(31,30,32,75)         59.2936         estimate D2E/DX2                !
 ! D239  D(72,30,32,73)       -178.7754         estimate D2E/DX2                !
 ! D240  D(72,30,32,74)         61.6716         estimate D2E/DX2                !
 ! D241  D(72,30,32,75)        -58.9888         estimate D2E/DX2                !
 ! D242  D(30,31,76,78)         -0.8229         estimate D2E/DX2                !
 ! D243  D(30,31,76,79)        179.3134         estimate D2E/DX2                !
 ! D244  D(77,31,76,78)        179.5378         estimate D2E/DX2                !
 ! D245  D(77,31,76,79)         -0.326          estimate D2E/DX2                !
 --------------------------------------------------------------------------------
 Trust Radius=3.00D-01 FncErr=1.00D-07 GrdErr=1.00D-06 EigMax=2.50D+02 EigMin=1.00D-04
 Number of steps in this run=    509 maximum allowed number of steps=    552.
 GradGradGradGradGradGradGradGradGradGradGradGradGradGradGradGradGradGrad

 Symmetry turned off by external request.
 Stoichiometry    C36H56(3)
 Framework group  C1[X(C36H56)]
 Deg. of freedom   270
 Full point group                 C1      NOp   1
                          Input orientation:                          
 ---------------------------------------------------------------------
 Center     Atomic      Atomic             Coordinates (Angstroms)
 Number     Number       Type             X           Y           Z
 ---------------------------------------------------------------------
      1          6           0        6.715288    8.929904    3.228588
      2          6           0        6.078697    7.860272    4.117921
      3          6           0        4.613350    7.742771    3.816690
      4          6           0        5.764631    7.156268    6.582922
      5          6           0        6.426223    5.826032    6.370619
      6          6           0        5.802054    4.711719    6.018847
      7          6           0        5.974566    7.642968    8.021763
      8          6           0        6.308130    8.196077    5.595772
      9          6           0        5.400299    6.719901    9.103378
     10          6           0        3.915200    6.574802    8.942953
     11          6           0        5.293857    6.387207   11.663581
     12          6           0        5.952509    5.040399   11.596953
     13          6           0        5.315579    3.885601   11.472502
     14          6           0        5.613233    7.082385   12.992596
     15          6           0        5.744365    7.269591   10.493037
     16          6           0        5.138995    6.330894   14.242457
     17          6           0        3.648493    6.156503   14.223208
     18          6           0        5.238786    6.386735   16.823738
     19          6           0        5.920084    5.052307   16.909206
     20          6           0        5.301174    3.885563   17.011137
     21          6           0        5.641643    7.278779   18.004238
     22          6           0        5.580134    7.085898   15.502278
     23          6           0        5.282048    6.719082   19.385982
     24          6           0        3.799396    6.522147   19.509502
     25          6           0        5.573505    7.167669   21.913587
     26          6           0        6.291336    5.869935   22.143512
     27          6           0        5.711264    4.725953   22.474923
     28          6           0        6.042957    8.232028   22.912414
     29          6           0        5.795930    7.663311   20.479654
     30          6           0        5.797865    7.884248   24.385007
     31          6           0        4.334145    7.691009   24.653293
     32          6           0        6.358366    8.984964   25.287488
     33          1           0        6.590357    8.686676    2.173324
     34          1           0        7.782227    9.023817    3.438502
     35          1           0        6.250914    9.902942    3.407370
     36          1           0        6.546932    6.895589    3.902542
     37          1           0        4.692365    7.031782    6.406019
     38          1           0        7.505192    5.808198    6.525849
     39          1           0        4.729402    4.702911    5.859418
     40          1           0        6.335440    3.779594    5.881291
     41          1           0        5.524048    8.636619    8.126532
     42          1           0        7.048532    7.769331    8.200529
     43          1           0        5.844467    9.165371    5.812460
     44          1           0        7.383495    8.322584    5.765545
     45          1           0        5.850633    5.729031    8.995602
     46          1           0        4.212521    6.238093   11.595547
     47          1           0        7.040985    5.046543   11.657850
     48          1           0        4.233446    3.852342   11.410210
     49          1           0        5.847725    2.943717   11.429228
     50          1           0        5.160679    8.080652   12.985193
     51          1           0        6.696478    7.233930   13.063013
     52          1           0        5.290919    8.261184   10.604837
     53          1           0        6.828806    7.416036   10.555279
     54          1           0        5.595517    5.336998   14.250059
     55          1           0        4.158973    6.217762   16.863355
     56          1           0        7.009632    5.078742   16.882392
     57          1           0        4.218436    3.832149   17.040499
     58          1           0        5.849133    2.953561   17.068758
     59          1           0        5.165322    8.258481   17.883175
     60          1           0        6.723066    7.453058   17.965616
     61          1           0        5.118658    8.080098   15.500275
     62          1           0        6.663257    7.247123   15.455216
     63          1           0        5.764004    5.744823   19.507522
     64          1           0        4.504141    6.993087   22.063751
     65          1           0        7.373967    5.903935   22.019580
     66          1           0        4.636132    4.665260   22.603429
     67          1           0        6.284494    3.819971   22.626191
     68          1           0        5.536683    9.177280   22.685214
     69          1           0        7.114230    8.411845   22.766443
     70          1           0        5.308875    8.638417   20.364642
     71          1           0        6.867761    7.832126   20.324602
     72          1           0        6.310209    6.944987   24.611977
     73          1           0        5.848604    9.932817   25.097513
     74          1           0        7.423499    9.133830   25.101507
     75          1           0        6.222504    8.735308   26.339898
     76          6           0        3.783050    6.581198   25.120908
     77          1           0        3.702155    8.553097   24.441277
     78          1           0        4.385968    5.705309   25.333889
     79          1           0        2.718796    6.507466   25.304170
     80          6           0        3.199701    5.362215   19.732308
     81          1           0        2.122768    5.284339   19.811873
     82          1           0        3.776591    4.450417   19.841395
     83          1           0        3.195961    7.423821   19.402839
     84          1           0        3.068081    7.079280   14.212269
     85          6           0        3.280573    5.435833    8.708982
     86          1           0        3.341545    7.497665    9.031325
     87          1           0        3.827431    4.503895    8.616646
     88          1           0        2.203870    5.395758    8.602671
     89          6           0        4.016500    6.663547    3.333836
     90          1           0        4.021846    8.635862    4.016795
     91          1           0        4.578144    5.758103    3.131892
     92          1           0        2.954252    6.645041    3.126640
 ---------------------------------------------------------------------
 Rotational constants (GHZ):           0.3704099           0.0206603           0.0202376
 Standard basis: def2SVP (5D, 7F)
   784 basis functions,  1292 primitive gaussians,   820 cartesian basis functions
   137 alpha electrons      135 beta electrons
       nuclear repulsion energy      3536.6434668001 Hartrees.
 NAtoms=   92 NActive=   92 NUniq=   92 SFac= 1.00D+00 NAtFMM=   60 NAOKFM=T Big=T
 Integral buffers will be    131072 words long.
 Raffenetti 2 integral format.
 Two-electron integral symmetry is turned off.
 One-electron integrals computed using PRISM.
 PrsmSu:  requested number of processors reduced to:  21 ShMem   1 Linda.
   1 Symmetry operations used in ECPInt.
 ECPInt:  NShTT=   73920 NPrTT=  254464 LenC2=   45118 LenP2D=  103556.
 LDataN:  DoStor=T MaxTD1= 4 Len=   56
 Number of processors reduced to   9 by ecpmxn.
 NBasis=   784 RedAO= T EigKep=  6.30D-04  NBF=   784
 NBsUse=   784 1.00D-06 EigRej= -1.00D+00 NBFU=   784
 ExpMin= 1.22D-01 ExpMax= 1.24D+03 ExpMxC= 1.86D+02 IAcc=3 IRadAn=         5 AccDes= 0.00D+00
 Harris functional with IExCor= 1009 and IRadAn=       5 diagonalized for initial guess.
 HarFok:  IExCor= 1009 AccDes= 0.00D+00 IRadAn=         5 IDoV= 1 UseB2=F ITyADJ=14
 ICtDFT=  3500011 ScaDFX=  1.000000  1.000000  1.000000  1.000000
 FoFCou: FMM=F IPFlag=           0 FMFlag=      100000 FMFlg1=        2001
         NFxFlg=           0 DoJE=T BraDBF=F KetDBF=T FulRan=T
         wScrn=  0.000000 ICntrl=       500 IOpCl=  0 I1Cent=   200000004 NGrid=           0
         NMat0=    1 NMatS0=      1 NMatT0=    0 NMatD0=    1 NMtDS0=    0 NMtDT0=    0
 Symmetry not used in FoFCou.
 Mixing orbitals, IMix= 1 IMixAn=  0 NRI=1 NE=  137 Coef=  7.07106781D-01  7.07106781D-01
 Mixing orbitals, IMix= 1 IMixAn=  0 NRI=1 NE=  135 Coef= -7.07106781D-01  7.07106781D-01
 Initial guess <Sx>= 0.0000 <Sy>= 0.0000 <Sz>= 1.0000 <S**2>= 2.0000 S= 1.0000
 Requested convergence on RMS density matrix=1.00D-08 within  32 cycles.
 Requested convergence on MAX density matrix=1.00D-06.
 Requested convergence on             energy=1.00D-06.
 No special actions if energy rises.
 Integral accuracy reduced to 1.0D-05 until final iterations.
 Initial convergence to 1.0D-05 achieved.  Increase integral accuracy.
 SCF Done:  E(UM062X) =  -1403.52233299     A.U. after   18 cycles
            NFock= 18  Conv=0.36D-08     -V/T= 2.0116
 <Sx>= 0.0000 <Sy>= 0.0000 <Sz>= 1.0000 <S**2>= 2.0058 S= 1.0019
 <L.S>=  0.00000000000    
 Annihilation of the first spin contaminant:
 S**2 before annihilation     2.0058,   after     2.0000
 QCSCF skips out because SCF is already converged.

 **********************************************************************

            Population analysis using the SCF Density.

 **********************************************************************

 Alpha  occ. eigenvalues --  -10.57419 -10.55245 -10.54872 -10.54870 -10.54824
 Alpha  occ. eigenvalues --  -10.54821 -10.54801 -10.54800 -10.54777 -10.54777
 Alpha  occ. eigenvalues --  -10.54772 -10.54771 -10.54770 -10.54766 -10.54722
 ...
  Beta virt. eigenvalues --    3.15939   3.17673   3.18360   3.19447   3.20869
  Beta virt. eigenvalues --    3.20985   3.34483   3.34514   3.34568   3.34683
  Beta virt. eigenvalues --    3.34806   3.34812   3.35067   3.35158
          Condensed to atoms (all electrons):
          Atomic-Atomic Spin Densities.
 Mulliken charges and spin densities:
               1          2
     1  C    0.000673   0.000000
     2  C   -0.100922  -0.000000
     3  C   -0.076730  -0.000000
     4  C   -0.041411  -0.000005
 ...
    91  H    0.041015  -0.000000
    92  H    0.042339  -0.000000
 Sum of Mulliken charges =  -0.00000   2.00000
 Mulliken charges and spin densities with hydrogens summed into heavy atoms:
               1          2
     1  C    0.105126   0.000000
     2  C   -0.076137  -0.000000
  ...
    80  C    0.031694   0.000095
    85  C    0.031703   0.000099
    89  C    0.021389   0.000001
 Electronic spatial extent (au):  <R**2>=         319195.1645
 Charge=             -0.0000 electrons
 Dipole moment (field-independent basis, Debye):
    X=              1.1111    Y=              1.3400    Z=              0.0139  Tot=              1.7408
 Quadrupole moment (field-independent basis, Debye-Ang):
   XX=           -210.9875   YY=           -205.7986   ZZ=           -243.1300
   XY=             12.1569   XZ=             16.1212   YZ=             19.2376
 Traceless Quadrupole moment (field-independent basis, Debye-Ang):
   XX=              8.9845   YY=             14.1734   ZZ=            -23.1580
   XY=             12.1569   XZ=             16.1212   YZ=             19.2376
 Octapole moment (field-independent basis, Debye-Ang**2):
  XXX=          -3455.9045  YYY=          -4303.8946  ZZZ=         -10397.0713  XYY=          -1079.8400
  XXY=          -1393.4157  XXZ=          -3003.0165  XZZ=          -1031.7106  YZZ=          -1349.8159
  YYZ=          -2930.0950  XYZ=            175.6149
 Hexadecapole moment (field-independent basis, Debye-Ang**3):
 XXXX=         -38724.9257 YYYY=         -61078.3661 ZZZZ=        -368373.0320 XXXY=         -23285.9332
 XXXZ=         -48815.8916 YYYX=         -23230.7653 YYYZ=         -61298.9051 ZZZX=         -50209.6638
 ZZZY=         -65503.0394 XXYY=         -16315.6187 XXZZ=         -60605.9084 YYZZ=         -64121.6901
 XXYZ=         -19828.9462 YYXZ=         -15229.0232 ZZXY=          -5994.4140
 N-N= 3.536643466800D+03 E-N=-1.031408878671D+04  KE= 1.387446093873D+03
                          Isotropic Fermi Contact Couplings
        Atom                 a.u.       MegaHertz       Gauss      10(-4) cm-1
     1  C(13)              0.00000       0.00008       0.00003       0.00003
     2  C(13)             -0.00000      -0.00026      -0.00009      -0.00009
     3  C(13)             -0.00000      -0.00003      -0.00001      -0.00001
     4  C(13)             -0.00000      -0.00072      -0.00026      -0.00024
     5  C(13)             -0.00000      -0.00000      -0.00000      -0.00000
     6  C(13)              0.00000       0.00036       0.00013       0.00012
     7  C(13)             -0.00005      -0.03044      -0.01086      -0.01015
     8  C(13)              0.00000       0.00008       0.00003       0.00003
     9  C(13)              0.00040       0.22389       0.07989       0.07468
    10  C(13)             -0.00003      -0.01852      -0.00661      -0.00618
    11  C(13)              0.00500       2.80990       1.00264       0.93728
    12  C(13)             -0.00022      -0.12594      -0.04494      -0.04201
    13  C(13)              0.00010       0.05519       0.01969       0.01841
    14  C(13)              0.06890      38.72844      13.81927      12.91842
    15  C(13)              0.00051       0.28655       0.10225       0.09558
    16  C(13)             -0.01468      -8.25411      -2.94527      -2.75327
    17  C(13)              0.90280     507.46137     181.07483     169.27089
    18  C(13)              0.00489       2.75020       0.98134       0.91737
    19  C(13)             -0.00018      -0.10377      -0.03703      -0.03461
    20  C(13)              0.00008       0.04234       0.01511       0.01412
    21  C(13)              0.00052       0.28981       0.10341       0.09667
    22  C(13)              0.06905      38.81359      13.84965      12.94682
    23  C(13)              0.00039       0.22162       0.07908       0.07392
    24  C(13)             -0.00003      -0.01876      -0.00669      -0.00626
    25  C(13)             -0.00000      -0.00042      -0.00015      -0.00014
    26  C(13)             -0.00000      -0.00005      -0.00002      -0.00002
    27  C(13)              0.00000       0.00037       0.00013       0.00012
    28  C(13)              0.00000       0.00005       0.00002       0.00002
    29  C(13)             -0.00005      -0.03061      -0.01092      -0.01021
    30  C(13)             -0.00000      -0.00026      -0.00009      -0.00009
    31  C(13)             -0.00000      -0.00001      -0.00000      -0.00000
    32  C(13)              0.00000       0.00008       0.00003       0.00003
    33  H(1)               0.00000       0.00000       0.00000       0.00000
    34  H(1)               0.00000       0.00000       0.00000       0.00000
    35  H(1)              -0.00000      -0.00000      -0.00000      -0.00000
    36  H(1)               0.00000       0.00007       0.00003       0.00002
    37  H(1)               0.00000       0.00215       0.00077       0.00072
    38  H(1)               0.00000       0.00002       0.00001       0.00001
    39  H(1)               0.00000       0.00022       0.00008       0.00007
    40  H(1)               0.00000       0.00003       0.00001       0.00001
    41  H(1)               0.00000       0.00356       0.00127       0.00119
    42  H(1)               0.00000       0.00174       0.00062       0.00058
    43  H(1)              -0.00000      -0.00013      -0.00004      -0.00004
    44  H(1)               0.00000       0.00000       0.00000       0.00000
    45  H(1)              -0.00001      -0.02205      -0.00787      -0.00735
    46  H(1)               0.00035       0.78273       0.27930       0.26109
    47  H(1)               0.00012       0.26886       0.09594       0.08968
    48  H(1)               0.00024       0.53343       0.19034       0.17793
    49  H(1)               0.00003       0.06469       0.02308       0.02158
    50  H(1)              -0.00077      -1.72025      -0.61383      -0.57381
    51  H(1)               0.00279       6.24306       2.22768       2.08246
    52  H(1)              -0.00000      -0.00024      -0.00009      -0.00008
    53  H(1)               0.00043       0.95356       0.34026       0.31807
    54  H(1)               0.00857      19.16059       6.83698       6.39129
    55  H(1)               0.00035       0.78335       0.27952       0.26130
    56  H(1)               0.00013       0.29196       0.10418       0.09739
    57  H(1)               0.00023       0.50719       0.18098       0.16918
    58  H(1)               0.00003       0.06193       0.02210       0.02066
    59  H(1)               0.00000       0.00291       0.00104       0.00097
    60  H(1)               0.00042       0.94591       0.33752       0.31552
    61  H(1)              -0.00075      -1.67937      -0.59924      -0.56018
    62  H(1)               0.00282       6.29242       2.24529       2.09893
    63  H(1)              -0.00001      -0.02176      -0.00777      -0.00726
    64  H(1)               0.00000       0.00217       0.00077       0.00072
    65  H(1)               0.00000       0.00004       0.00001       0.00001
    66  H(1)               0.00000       0.00019       0.00007       0.00006
    67  H(1)               0.00000       0.00001       0.00001       0.00000
    68  H(1)              -0.00000      -0.00012      -0.00004      -0.00004
    69  H(1)              -0.00000      -0.00000      -0.00000      -0.00000
    70  H(1)               0.00000       0.00359       0.00128       0.00120
    71  H(1)               0.00000       0.00160       0.00057       0.00053
    72  H(1)               0.00000       0.00007       0.00003       0.00002
    73  H(1)              -0.00000      -0.00000      -0.00000      -0.00000
    74  H(1)               0.00000       0.00000       0.00000       0.00000
    75  H(1)               0.00000       0.00000       0.00000       0.00000
    76  C(13)              0.00000       0.00005       0.00002       0.00002
    77  H(1)               0.00000       0.00002       0.00001       0.00001
    78  H(1)              -0.00000      -0.00002      -0.00001      -0.00001
    79  H(1)              -0.00000      -0.00002      -0.00001      -0.00001
    80  C(13)              0.00002       0.01393       0.00497       0.00465
    81  H(1)              -0.00000      -0.00128      -0.00046      -0.00043
    82  H(1)              -0.00000      -0.00639      -0.00228      -0.00213
    83  H(1)              -0.00000      -0.00496      -0.00177      -0.00165
    84  H(1)               0.00337       7.54075       2.69073       2.51532
    85  C(13)              0.00002       0.01279       0.00456       0.00427
    86  H(1)              -0.00000      -0.00472      -0.00168      -0.00157
    87  H(1)              -0.00000      -0.00657      -0.00234      -0.00219
    88  H(1)              -0.00000      -0.00074      -0.00026      -0.00025
    89  C(13)              0.00000       0.00007       0.00002       0.00002
    90  H(1)               0.00000       0.00002       0.00001       0.00001
    91  H(1)              -0.00000      -0.00003      -0.00001      -0.00001
    92  H(1)              -0.00000      -0.00002      -0.00001      -0.00001
 --------------------------------------------------------
       Center         ----  Spin Dipole Couplings  ----
                      3XX-RR        3YY-RR        3ZZ-RR
 --------------------------------------------------------
     1   Atom       -0.000146     -0.000150      0.000296
     2   Atom       -0.000214     -0.000232      0.000447
     3   Atom       -0.000244     -0.000232      0.000477
     4   Atom       -0.000463     -0.000556      0.001019
     5   Atom       -0.000348     -0.000520      0.000868
     6   Atom       -0.000381     -0.000437      0.000818
     7   Atom       -0.000592     -0.000829      0.001420
     8   Atom       -0.000286     -0.000315      0.000601
     9   Atom       -0.001529     -0.001930      0.003459
    10   Atom       -0.001944     -0.001957      0.003901
    11   Atom        0.013669     -0.015917      0.002248
    12   Atom        0.001089     -0.003928      0.002838
    13   Atom       -0.000208     -0.000356      0.000563
    14   Atom        0.001176     -0.018124      0.016948
    15   Atom       -0.000949     -0.002988      0.003937
    16   Atom        0.071435     -0.024330     -0.047105
    17   Atom       -0.722387      0.038829      0.683558
    18   Atom        0.013283     -0.015883      0.002601
    19   Atom        0.000935     -0.003841      0.002906
    20   Atom       -0.000371     -0.000413      0.000784
    21   Atom       -0.001174     -0.002969      0.004142
    22   Atom       -0.001012     -0.018058      0.019071
    23   Atom       -0.001594     -0.001926      0.003520
    24   Atom       -0.001957     -0.001971      0.003928
    25   Atom       -0.000484     -0.000556      0.001039
    26   Atom       -0.000363     -0.000517      0.000880
    27   Atom       -0.000386     -0.000435      0.000821
    28   Atom       -0.000303     -0.000314      0.000617
    29   Atom       -0.000640     -0.000825      0.001465
    30   Atom       -0.000223     -0.000232      0.000455
    31   Atom       -0.000248     -0.000234      0.000482
    32   Atom       -0.000155     -0.000149      0.000304
    33   Atom       -0.000123     -0.000127      0.000250
    34   Atom       -0.000113     -0.000143      0.000257
    35   Atom       -0.000156     -0.000124      0.000280
    36   Atom       -0.000188     -0.000237      0.000425
    37   Atom       -0.000565     -0.000573      0.001137
    38   Atom       -0.000190     -0.000470      0.000660
    39   Atom       -0.000455     -0.000444      0.000900
    40   Atom       -0.000295     -0.000324      0.000619
    41   Atom       -0.000725     -0.000525      0.001250
    42   Atom       -0.000288     -0.000714      0.001001
    43   Atom       -0.000317     -0.000249      0.000566
    44   Atom       -0.000190     -0.000290      0.000480
    45   Atom       -0.000926     -0.001616      0.002542
    46   Atom       -0.008223     -0.016663      0.024887
    47   Atom        0.002734     -0.002598     -0.000136
    48   Atom       -0.005320      0.000687      0.004633
    49   Atom       -0.000829      0.000894     -0.000066
    50   Atom       -0.002760      0.009695     -0.006935
    51   Atom        0.011482     -0.006923     -0.004559
    52   Atom       -0.001970     -0.000785      0.002755
    53   Atom        0.000466     -0.002088      0.001622
    54   Atom        0.035910     -0.015398     -0.020511
    55   Atom       -0.008704     -0.016705      0.025409
    56   Atom        0.002511     -0.002588      0.000077
    57   Atom       -0.005286      0.000748      0.004537
    58   Atom       -0.000838      0.000827      0.000011
    59   Atom       -0.002141     -0.000785      0.002925
    60   Atom        0.000281     -0.002058      0.001776
    61   Atom       -0.003187      0.009776     -0.006589
    62   Atom        0.011185     -0.006868     -0.004318
    63   Atom       -0.000976     -0.001604      0.002580
    64   Atom       -0.000575     -0.000576      0.001151
    65   Atom       -0.000208     -0.000467      0.000675
    66   Atom       -0.000458     -0.000440      0.000898
    67   Atom       -0.000297     -0.000324      0.000621
    68   Atom       -0.000335     -0.000249      0.000584
    69   Atom       -0.000213     -0.000285      0.000498
    70   Atom       -0.000771     -0.000526      0.001297
    71   Atom       -0.000346     -0.000703      0.001049
    72   Atom       -0.000196     -0.000236      0.000432
    73   Atom       -0.000165     -0.000123      0.000288
    74   Atom       -0.000124     -0.000141      0.000265
    75   Atom       -0.000129     -0.000127      0.000255
    76   Atom       -0.000229     -0.000228      0.000457
    77   Atom       -0.000255     -0.000212      0.000467
    78   Atom       -0.000212     -0.000215      0.000428
    79   Atom       -0.000210     -0.000215      0.000426
    80   Atom       -0.001721     -0.001714      0.003436
    81   Atom       -0.001175     -0.001444      0.002619
    82   Atom       -0.001492     -0.001150      0.002642
    83   Atom       -0.001825     -0.001539      0.003365
    84   Atom       -0.020972      0.075968     -0.054997
    85   Atom       -0.001736     -0.001741      0.003477
    86   Atom       -0.001827     -0.001480      0.003307
    87   Atom       -0.001509     -0.001186      0.002695
    88   Atom       -0.001207     -0.001467      0.002674
    89   Atom       -0.000228     -0.000228      0.000456
    90   Atom       -0.000253     -0.000208      0.000461
    91   Atom       -0.000211     -0.000216      0.000427
    92   Atom       -0.000212     -0.000214      0.000426
 --------------------------------------------------------
                        XY            XZ            YZ
 --------------------------------------------------------
     1   Atom        0.000035     -0.000132     -0.000126
     2   Atom        0.000031     -0.000165     -0.000126
     3   Atom        0.000012     -0.000064     -0.000119
     4   Atom        0.000069     -0.000431     -0.000235
     5   Atom       -0.000011     -0.000484      0.000046
     6   Atom       -0.000052     -0.000337      0.000218
     7   Atom        0.000234     -0.000851     -0.000595
     8   Atom        0.000076     -0.000293     -0.000245
     9   Atom        0.000296     -0.001544     -0.000329
    10   Atom        0.000070     -0.000215     -0.000604
    11   Atom        0.004163     -0.011336     -0.002399
    12   Atom       -0.003304     -0.006833      0.002955
    13   Atom       -0.003418     -0.004773      0.005560
    14   Atom        0.029777     -0.044860     -0.034883
    15   Atom        0.001731     -0.003829     -0.002411
    16   Atom        0.049977      0.001394      0.000570
    17   Atom        0.506644     -0.020388      0.008951
    18   Atom        0.004454      0.011542      0.002474
    19   Atom       -0.003192      0.006681     -0.002975
    20   Atom       -0.003264      0.004698     -0.005479
    21   Atom        0.001675      0.003677      0.002479
    22   Atom        0.028844      0.044394      0.035593
    23   Atom        0.000283      0.001435      0.000338
    24   Atom        0.000057      0.000089      0.000544
    25   Atom        0.000064      0.000393      0.000239
    26   Atom       -0.000008      0.000459     -0.000038
    27   Atom       -0.000049      0.000321     -0.000214
    28   Atom        0.000069      0.000266      0.000252
    29   Atom        0.000222      0.000794      0.000610
    30   Atom        0.000028      0.000147      0.000129
    31   Atom        0.000008      0.000045      0.000117
    32   Atom        0.000032      0.000117      0.000130
    33   Atom        0.000021     -0.000095     -0.000087
    34   Atom        0.000046     -0.000164     -0.000120
    35   Atom        0.000040     -0.000109     -0.000166
    36   Atom        0.000016     -0.000184     -0.000054
    37   Atom        0.000033     -0.000220     -0.000221
    38   Atom       -0.000017     -0.000561      0.000044
    39   Atom       -0.000025     -0.000176      0.000226
    40   Atom       -0.000088     -0.000328      0.000284
    41   Atom        0.000282     -0.000628     -0.000943
    42   Atom        0.000296     -0.000997     -0.000517
    43   Atom        0.000091     -0.000239     -0.000354
    44   Atom        0.000099     -0.000359     -0.000223
    45   Atom       -0.000111     -0.001738      0.000340
    46   Atom        0.002559     -0.012124     -0.003550
    47   Atom       -0.001978     -0.004552      0.001521
[...]
 ! D150  D(19,18,22,61)        179.1478         calculate D2E/DX2 analytically  !
 ! D151  D(19,18,22,62)        -65.0647         calculate D2E/DX2 analytically  !
 ! D152  D(21,18,22,16)       -179.2732         calculate D2E/DX2 analytically  !
 ! D153  D(21,18,22,61)        -57.1917         calculate D2E/DX2 analytically  !
 ! D154  D(21,18,22,62)         58.5958         calculate D2E/DX2 analytically  !
 ! D155  D(55,18,22,16)        -60.7114         calculate D2E/DX2 analytically  !
 ! D156  D(55,18,22,61)         61.3701         calculate D2E/DX2 analytically  !
 ! D157  D(55,18,22,62)        177.1576         calculate D2E/DX2 analytically  !
 ! D158  D(18,19,20,57)         -0.6016         calculate D2E/DX2 analytically  !
 ! D159  D(18,19,20,58)        179.0151         calculate D2E/DX2 analytically  !
 ! D160  D(56,19,20,57)       -179.622          calculate D2E/DX2 analytically  !
 ! D161  D(56,19,20,58)         -0.0052         calculate D2E/DX2 analytically  !
 ! D162  D(18,21,23,24)        -59.9422         calculate D2E/DX2 analytically  !
 ! D163  D(18,21,23,29)        176.9617         calculate D2E/DX2 analytically  !
 ! D164  D(18,21,23,63)         58.2297         calculate D2E/DX2 analytically  !
 ! D165  D(59,21,23,24)         62.4751         calculate D2E/DX2 analytically  !
 ! D166  D(59,21,23,29)        -60.621          calculate D2E/DX2 analytically  !
 ! D167  D(59,21,23,63)       -179.353          calculate D2E/DX2 analytically  !
 ! D168  D(60,21,23,24)        177.8114         calculate D2E/DX2 analytically  !
 ! D169  D(60,21,23,29)         54.7153         calculate D2E/DX2 analytically  !
 ! D170  D(60,21,23,63)        -64.0167         calculate D2E/DX2 analytically  !
 ! D171  D(21,23,24,80)        117.1093         calculate D2E/DX2 analytically  !
 ! D172  D(21,23,24,83)        -62.6979         calculate D2E/DX2 analytically  !
 ! D173  D(29,23,24,80)       -120.2349         calculate D2E/DX2 analytically  !
 ! D174  D(29,23,24,83)         59.9579         calculate D2E/DX2 analytically  !
 ! D175  D(63,23,24,80)         -1.492          calculate D2E/DX2 analytically  !
 ! D176  D(63,23,24,83)        178.7008         calculate D2E/DX2 analytically  !
 ! D177  D(21,23,29,25)       -177.1353         calculate D2E/DX2 analytically  !
 ! D178  D(21,23,29,70)         60.5837         calculate D2E/DX2 analytically  !
 ! D179  D(21,23,29,71)        -54.6865         calculate D2E/DX2 analytically  !
 ! D180  D(24,23,29,25)         59.7957         calculate D2E/DX2 analytically  !
 ! D181  D(24,23,29,70)        -62.4853         calculate D2E/DX2 analytically  !
 ! D182  D(24,23,29,71)       -177.7555         calculate D2E/DX2 analytically  !
 ! D183  D(63,23,29,25)        -58.4613         calculate D2E/DX2 analytically  !
 ! D184  D(63,23,29,70)        179.2577         calculate D2E/DX2 analytically  !
 ! D185  D(63,23,29,71)         63.9875         calculate D2E/DX2 analytically  !
 ! D186  D(23,24,80,81)       -179.8204         calculate D2E/DX2 analytically  !
 ! D187  D(23,24,80,82)          0.0897         calculate D2E/DX2 analytically  !
 ! D188  D(83,24,80,81)         -0.0198         calculate D2E/DX2 analytically  !
 ! D189  D(83,24,80,82)        179.8904         calculate D2E/DX2 analytically  !
 ! D190  D(28,25,26,27)        118.396          calculate D2E/DX2 analytically  !
 ! D191  D(28,25,26,65)        -61.6077         calculate D2E/DX2 analytically  !
 ! D192  D(29,25,26,27)       -119.0449         calculate D2E/DX2 analytically  !
 ! D193  D(29,25,26,65)         60.9513         calculate D2E/DX2 analytically  !
 ! D194  D(64,25,26,27)         -0.3087         calculate D2E/DX2 analytically  !
 ! D195  D(64,25,26,65)        179.6875         calculate D2E/DX2 analytically  !
 ! D196  D(26,25,28,30)        -60.0213         calculate D2E/DX2 analytically  !
 ! D197  D(26,25,28,68)        177.707          calculate D2E/DX2 analytically  !
 ! D198  D(26,25,28,69)         62.4052         calculate D2E/DX2 analytically  !
 ! D199  D(29,25,28,30)        176.9838         calculate D2E/DX2 analytically  !
 ! D200  D(29,25,28,68)         54.7121         calculate D2E/DX2 analytically  !
 ! D201  D(29,25,28,69)        -60.5897         calculate D2E/DX2 analytically  !
 ! D202  D(64,25,28,30)         58.2354         calculate D2E/DX2 analytically  !
 ! D203  D(64,25,28,68)        -64.0363         calculate D2E/DX2 analytically  !
 ! D204  D(64,25,28,69)       -179.3381         calculate D2E/DX2 analytically  !
 ! D205  D(26,25,29,23)         59.8354         calculate D2E/DX2 analytically  !
 ! D206  D(26,25,29,70)       -177.7593         calculate D2E/DX2 analytically  !
 ! D207  D(26,25,29,71)        -62.4963         calculate D2E/DX2 analytically  !
 ! D208  D(28,25,29,23)       -177.1588         calculate D2E/DX2 analytically  !
 ! D209  D(28,25,29,70)        -54.7535         calculate D2E/DX2 analytically  !
 ! D210  D(28,25,29,71)         60.5096         calculate D2E/DX2 analytically  !
 ! D211  D(64,25,29,23)        -58.4317         calculate D2E/DX2 analytically  !
 ! D212  D(64,25,29,70)         63.9736         calculate D2E/DX2 analytically  !
 ! D213  D(64,25,29,71)        179.2367         calculate D2E/DX2 analytically  !
 ! D214  D(25,26,27,66)          0.066          calculate D2E/DX2 analytically  !
 ! D215  D(25,26,27,67)        179.9444         calculate D2E/DX2 analytically  !
 ! D216  D(65,26,27,66)       -179.9301         calculate D2E/DX2 analytically  !
 ! D217  D(65,26,27,67)         -0.0517         calculate D2E/DX2 analytically  !
 ! D218  D(25,28,30,31)        -59.4713         calculate D2E/DX2 analytically  !
 ! D219  D(25,28,30,32)        177.8081         calculate D2E/DX2 analytically  !
 ! D220  D(25,28,30,72)         58.7513         calculate D2E/DX2 analytically  !
 ! D221  D(68,28,30,31)         62.7747         calculate D2E/DX2 analytically  !
 ! D222  D(68,28,30,32)        -59.9459         calculate D2E/DX2 analytically  !
 ! D223  D(68,28,30,72)       -179.0027         calculate D2E/DX2 analytically  !
 ! D224  D(69,28,30,31)        177.9573         calculate D2E/DX2 analytically  !
 ! D225  D(69,28,30,32)         55.2367         calculate D2E/DX2 analytically  !
 ! D226  D(69,28,30,72)        -63.82           calculate D2E/DX2 analytically  !
 ! D227  D(28,30,31,76)        121.238          calculate D2E/DX2 analytically  !
 ! D228  D(28,30,31,77)        -59.2845         calculate D2E/DX2 analytically  !
 ! D229  D(32,30,31,76)       -116.0132         calculate D2E/DX2 analytically  !
 ! D230  D(32,30,31,77)         63.4644         calculate D2E/DX2 analytically  !
 ! D231  D(72,30,31,76)          2.6477         calculate D2E/DX2 analytically  !
 ! D232  D(72,30,31,77)       -177.8748         calculate D2E/DX2 analytically  !
 ! D233  D(28,30,32,73)         62.3633         calculate D2E/DX2 analytically  !
 ! D234  D(28,30,32,74)        -57.1761         calculate D2E/DX2 analytically  !
 ! D235  D(28,30,32,75)       -177.8265         calculate D2E/DX2 analytically  !
 ! D236  D(31,30,32,73)        -60.6947         calculate D2E/DX2 analytically  !
 ! D237  D(31,30,32,74)        179.766          calculate D2E/DX2 analytically  !
 ! D238  D(31,30,32,75)         59.1155         calculate D2E/DX2 analytically  !
 ! D239  D(72,30,32,73)       -178.7812         calculate D2E/DX2 analytically  !
 ! D240  D(72,30,32,74)         61.6795         calculate D2E/DX2 analytically  !
 ! D241  D(72,30,32,75)        -58.971          calculate D2E/DX2 analytically  !
 ! D242  D(30,31,76,78)         -0.9226         calculate D2E/DX2 analytically  !
 ! D243  D(30,31,76,79)        179.2403         calculate D2E/DX2 analytically  !
 ! D244  D(77,31,76,78)        179.6178         calculate D2E/DX2 analytically  !
 ! D245  D(77,31,76,79)         -0.2194         calculate D2E/DX2 analytically  !
 --------------------------------------------------------------------------------
 Trust Radius=3.00D-01 FncErr=1.00D-07 GrdErr=1.00D-07 EigMax=2.50D+02 EigMin=1.00D-04
 Number of steps in this run=      2 maximum allowed number of steps=      2.
 GradGradGradGradGradGradGradGradGradGradGradGradGradGradGradGradGradGrad

 Symmetry turned off by external request.
 Stoichiometry    C36H56(3)
 Framework group  C1[X(C36H56)]
 Deg. of freedom   270
 Full point group                 C1      NOp   1
                          Input orientation:                          
 ---------------------------------------------------------------------
 Center     Atomic      Atomic             Coordinates (Angstroms)
 Number     Number       Type             X           Y           Z
 ---------------------------------------------------------------------
      1          6           0        6.641666    8.847664    3.133623
      2          6           0        6.016160    7.802874    4.062351
      3          6           0        4.541207    7.677796    3.792038
      4          6           0        5.738057    7.156684    6.553098
      5          6           0        6.364446    5.803987    6.349900
      6          6           0        5.703659    4.689956    6.035631
      7          6           0        5.988853    7.666188    7.979273
      8          6           0        6.276021    8.167099    5.530328
      9          6           0        5.438737    6.765994    9.093808
     10          6           0        3.948851    6.601803    8.965483
     11          6           0        5.380797    6.475417   11.660129
     12          6           0        6.009022    5.110199   11.588964
     13          6           0        5.338238    3.959592   11.633579
     14          6           0        5.729101    7.174838   12.982284
     15          6           0        5.808119    7.341198   10.468908
     16          6           0        5.329758    6.386344   14.243984
     17          6           0        3.906718    5.989387   14.226375
     18          6           0        5.322754    6.473286   16.828330
     19          6           0        5.963032    5.114639   16.915268
     20          6           0        5.305283    3.957249   16.854817
     21          6           0        5.710921    7.344038   18.029310
     22          6           0        5.696608    7.175799   15.514843
     23          6           0        5.318756    6.763037   19.395631
     24          6           0        3.829922    6.567509   19.486874
     25          6           0        5.547347    7.162556   21.942304
     26          6           0        6.206467    5.828581   22.164740
     27          6           0        5.569659    4.695975   22.461672
     28          6           0        6.029299    8.189446   22.976488
     29          6           0        5.820837    7.676657   20.521941
     30          6           0        5.743606    7.819148   24.438148
     31          6           0        4.266825    7.649145   24.671495
     32          6           0        6.313326    8.883579   25.380367
     33          1           0        6.495102    8.576978    2.078865
     34          1           0        7.721399    8.943171    3.321486
     35          1           0        6.183126    9.835869    3.296495
     36          1           0        6.480845    6.823962    3.858790
     37          1           0        4.650755    7.050853    6.403243
     38          1           0        7.455466    5.763235    6.477304
     39          1           0        4.617833    4.702921    5.904456
     40          1           0        6.219662    3.736762    5.902297
     41          1           0        5.545995    8.673322    8.079266
     42          1           0        7.075990    7.792781    8.129344
     43          1           0        5.827638    9.155487    5.737117
     44          1           0        7.364016    8.286761    5.679813
     45          1           0        5.897197    5.767815    8.997673
     46          1           0        4.286726    6.341741   11.622974
     47          1           0        7.104995    5.092182   11.509405
     48          1           0        4.247340    3.953454   11.719354
     49          1           0        5.848882    2.995321   11.593295
     50          1           0        5.232282    8.160659   13.000693
     51          1           0        6.815476    7.372156   13.019323
     52          1           0        5.356455    8.343776   10.574281
     53          1           0        6.901954    7.491158   10.507857
     54          1           0        5.915467    5.450514   14.251701
     55          1           0        4.229563    6.328284   16.838576
     56          1           0        7.056908    5.107850   17.021155
     57          1           0        4.216833    3.940001   16.743279
     58          1           0        5.824619    2.998233   16.907653
     59          1           0        5.247322    8.340044   17.913903
     60          1           0        6.803085    7.509755   18.015336
     61          1           0        5.194989    8.158941   15.485819
     62          1           0        6.782469    7.379047   15.502415
     63          1           0        5.795639    5.774967   19.505516
     64          1           0        4.459885    7.026089   22.063577
     65          1           0        7.301332    5.819259   22.067744
     66          1           0        4.480700    4.677549   22.562821
     67          1           0        6.109070    3.758123   22.610262
     68          1           0        5.557073    9.163827   22.756803
     69          1           0        7.116672    8.341277   22.854114
     70          1           0        5.356838    8.672933   20.409779
     71          1           0        6.908003    7.828775   20.398048
     72          1           0        6.232610    6.855147   24.655349
     73          1           0        5.829193    9.857172   25.204151
     74          1           0        7.394064    9.011734   25.219614
     75          1           0        6.148462    8.609734   26.431600
     76          6           0        3.680641    6.539092   25.117665
     77          1           0        3.649327    8.531896   24.455220
     78          1           0        4.268116    5.642576   25.335731
     79          1           0        2.601893    6.485662   25.277224
     80          6           0        3.217287    5.393884   19.640520
     81          1           0        2.129283    5.319196   19.697020
     82          1           0        3.794792    4.467790   19.713022
     83          1           0        3.226374    7.483296   19.414823
     84          1           0        2.969597    6.548720   14.218117
     85          6           0        3.315107    5.440810    8.801684
     86          1           0        3.363451    7.530569    9.018656
     87          1           0        3.874072    4.502187    8.747195
     88          1           0        2.227476    5.389260    8.718476
     89          6           0        3.932512    6.585870    3.331502
     90          1           0        3.945814    8.579254    3.992560
     91          1           0        4.497297    5.671454    3.128332
     92          1           0        2.856972    6.565569    3.144937
 ---------------------------------------------------------------------
 Rotational constants (GHZ):           0.3812056           0.0205739           0.0201669
 Standard basis: def2SVP (5D, 7F)
   784 basis functions,  1292 primitive gaussians,   820 cartesian basis functions
   137 alpha electrons      135 beta electrons
       nuclear repulsion energy      3531.7467106548 Hartrees.
 NAtoms=   92 NActive=   92 NUniq=   92 SFac= 1.00D+00 NAtFMM=   60 NAOKFM=T Big=T
 Integral buffers will be    131072 words long.
 Raffenetti 2 integral format.
 Two-electron integral symmetry is turned off.
 One-electron integrals computed using PRISM.
 PrsmSu:  requested number of processors reduced to:  21 ShMem   1 Linda.
   1 Symmetry operations used in ECPInt.
 ECPInt:  NShTT=   73920 NPrTT=  254464 LenC2=   45086 LenP2D=  103561.
 LDataN:  DoStor=T MaxTD1= 4 Len=   56
 Number of processors reduced to   9 by ecpmxn.
 NBasis=   784 RedAO= T EigKep=  6.37D-04  NBF=   784
 NBsUse=   784 1.00D-06 EigRej= -1.00D+00 NBFU=   784
 Initial guess from the checkpoint file:  "/oasis/scratch/comet/mayes/temp_project/s12but_17_84_f2.chk"
 B after Tr=     0.000000    0.000000    0.000000
         Rot=    1.000000    0.000000    0.000000    0.000000 Ang=   0.00 deg.
 Initial guess <Sx>= 0.0000 <Sy>= 0.0000 <Sz>= 1.0000 <S**2>= 2.0070 S= 1.0023
 Requested convergence on RMS density matrix=1.00D-08 within  32 cycles.
 Requested convergence on MAX density matrix=1.00D-06.
 Requested convergence on             energy=1.00D-06.
 No special actions if energy rises.
 SCF Done:  E(UM062X) =  -1403.53191490     A.U. after    1 cycles
            NFock=  1  Conv=0.49D-08     -V/T= 2.0123
 <Sx>= 0.0000 <Sy>= 0.0000 <Sz>= 1.0000 <S**2>= 2.0070 S= 1.0023
 <L.S>=  0.00000000000    
 Annihilation of the first spin contaminant:
 S**2 before annihilation     2.0070,   after     2.0000
 QCSCF skips out because SCF is already converged.
 DoSCS=F DFT=T ScalE2(SS,OS)=  1.000000  1.000000
 Range of M.O.s used for correlation:     1   784
 NBasis=   784 NAE=   137 NBE=   135 NFC=     0 NFV=     0
 NROrb=    784 NOA=   137 NOB=   135 NVA=   647 NVB=   649
 PrsmSu:  requested number of processors reduced to:  16 ShMem   1 Linda.
 PrsmSu:  requested number of processors reduced to:   1 ShMem   1 Linda.
   1 Symmetry operations used in ECPInt.
 ECPInt:  NShTT=   73920 NPrTT=  254464 LenC2=   45086 LenP2D=  103561.
 LDataN:  DoStor=T MaxTD1= 5 Len=  102
 Number of processors reduced to   1 by ecpmxn.
 Symmetrizing basis deriv contribution to polar:
 IMax=3 JMax=2 DiffMx= 0.00D+00
 G2DrvN: will do     1 centers at a time, making   93 passes.
 Estimated number of processors is:   15
 Calling FoFCou, ICntrl=  3107 FMM=T I1Cent=   0 AccDes= 0.00D+00.
 CoulSu:  requested number of processors reduced to:  21 ShMem   1 Linda.
 CalDSu:  requested number of processors reduced to:  21 ShMem   1 Linda.
...
 CoulSu:  requested number of processors reduced to:  15 ShMem   1 Linda.
 CalDSu:  requested number of processors reduced to:  21 ShMem   1 Linda.
 End of G2Drv F.D. properties file   721 does not exist.
 End of G2Drv F.D. properties file   722 does not exist.
 End of G2Drv F.D. properties file   788 does not exist.
          IDoAtm=11111111111111111111111111111111111111111111111111
          IDoAtm=111111111111111111111111111111111111111111
          Differentiating once with respect to electric field.
                with respect to dipole field.
          Differentiating once with respect to nuclear coordinates.
 Estimated number of processors is:   18
 CalDSu exits because no D1Ps are significant.
          There are   279 degrees of freedom in the 1st order CPHF.  IDoFFX=6 NUNeed=     3.
    279 vectors produced by pass  0 Test12= 1.76D-13 1.00D-09 XBig12= 4.51D+02 2.94D+00.
 Estimated number of processors is:   18
 AX will form     3 AO Fock derivatives at one time.
    279 vectors produced by pass  1 Test12= 1.76D-13 1.00D-09 XBig12= 4.52D+01 5.01D-01.
...
 Estimated number of processors is:   18
      2 vectors produced by pass 11 Test12= 1.76D-13 1.00D-09 XBig12= 1.01D-15 1.06D-09.
 InvSVY:  IOpt=1 It=  1 EMax= 1.07D-14
 Solved reduced A of dimension  1847 with   279 vectors.
 Estimated number of processors is:   18
 Out-of-memory error in routine FMMEnt-BalFmn (IEnd=      97485418 MxCore=      97458254)
 Use %mem=120MW to provide the minimum amount of memory required to complete this step.
 Error termination via Lnk1e in /opt/gaussian/16.B.01/g16/l1002.exe at Sun Jul 28 15:57:03 2019.
 Job cpu time:       3 days  7 hours 15 minutes  4.3 seconds.
 Elapsed time:       0 days  3 hours 33 minutes 14.6 seconds.
 File lengths (MBytes):  RWF=  10232 Int=      0 D2E=      0 Chk=     64 Scr=      1
