 Entering Gaussian System, Link 0=g16
 Initial command:
 /nopt/nrel/apps/gaussian/g16B/g16/l1.exe "/dev/shm/Gau-153962.inp" -scrdir="/dev/shm/"
 Default is to use a total of  36 processors:
                               36 via shared-memory
                                1 via Linda
 Entering Link 1 = /nopt/nrel/apps/gaussian/g16B/g16/l1.exe PID=    153963.
  
 Copyright (c) 1988-2017, Gaussian, Inc.  All Rights Reserved.
 ...
 ******************************************
 Gaussian 16:  ES64L-G16RevB.01 20-Dec-2017
                15-Aug-2020 
 ******************************************
 %RWF=/dev/shm/,5GB,/scratch/hmayes/ti_eg5_mipa_tsa_ircr_opt_tsa_ts_ircf_opt_tsa_
 ts_3978666/,-1
 %NoSave
 %OldChk=ti_eg5_mipa_tsa_ircr_opt_tsa_ts_ircf_opt_tsa.chk
 %Chk=/dev/shm/ti_eg5_mipa_tsa_ircr_opt_tsa_ts_ircf_opt_tsa_ts.chk
 %CPU=0-35
 SetSPE:  set environment variable "MP_BIND" = "yes"
 SetSPE:  set environment variable "MP_BLIST" = "0,1,2,3,4,5,6,7,8,9,10,11,12,13,14,15,16,17,18,19,20,21,22,23,24,25,26,27,28,29,30,31,32,33,34,35"
 Will use up to   36 processors via shared memory.
 %Mem=72948012KB
 Copying data from "ti_eg5_mipa_tsa_ircr_opt_tsa_ts_ircf_opt_tsa.chk" to current chk file "/dev/shm/ti_eg5_mipa_tsa_ircr_opt_tsa_ts_ircf_opt_tsa_ts.chk"
 IOpt=  2 FromEx=T IUOpen= 4 IOptOp= 5 NList=   0 IFRang= 0 IUIn= 4 IUOut= 2.
 Default route: CacheSize=180224 MaxDisk=256GB
 ----------------------------------------------------------------------
 # m062x/Def2TZVP nosymm scf=(xqc,maxconventionalcycles=400) opt=(TS,Re
 adFC,noeigentest,maxcycles=200,NoFreeze) freq=NoRaman CPHF=Grid=Fine S
 CRF=(Solvent=1,2-EthaneDiol,Read) guess=read geom=allcheck
 ----------------------------------------------------------------------
 1/4=180224,5=1,6=200,10=3,11=1,18=20,26=3,29=2007,38=1,40=2/1,3;
 2/4=180224,9=110,12=2,15=1,40=1/2;
 3/4=180224,5=44,7=101,11=2,14=-4,25=1,30=1,70=2203,71=1,72=30,74=-55,116=-2/1,2,3;
 4/4=180224,5=1/1;
 5/4=180224,5=2,8=3,13=1,38=6,53=30,85=400/2,8;
 6/4=180224,7=2,8=2,9=2,10=2,28=1/1;
 7/4=180224,30=1/1,2,3,16;
 1/4=180224,5=1,6=200,11=1,18=20,26=3/3(2);
 2/4=180224,9=110,15=1/2;
 99/4=180224/99;
 2/4=180224,9=110,15=1/2;
 3/4=180224,5=44,7=101,11=2,14=-2,25=1,30=1,70=2205,71=1,72=30,74=-55/1,2,3;
 4/4=180224,5=5,16=3,69=1/1;
 5/4=180224,5=2,8=3,13=1,38=5,53=30,85=400/2,8;
 7/4=180224,30=1/1,2,3,16;
 1/4=180224,5=1,6=200,11=1,18=20,26=3/3(-5);
 2/4=180224,9=110,15=1/2;
 6/4=180224,7=2,8=2,9=2,10=2,19=2,28=1/1;
 99/4=180224,9=1/99;
 Structure from the checkpoint file:  "/dev/shm/ti_eg5_mipa_tsa_ircr_opt_tsa_ts_ircf_opt_tsa_ts.chk"
 --------------------
 attempt unbinding ts
 --------------------
 Charge =  0 Multiplicity = 1
 Redundant internal coordinates found in file.  (old form).
 O,0,2.5968673488,0.8504302271,0.3729478769
 Ti,0,0.9988295805,-0.2417939773,1.3354426293
 O,0,1.0123904497,-1.3525895346,-2.7395195131
 O,0,2.2792927591,-1.6756928335,1.5420027228
 O,0,0.1591115869,1.3716028661,1.2191124268
 C,0,0.4033708474,2.7199009559,0.9470385841
 C,0,0.9908751351,3.4052247322,2.1678851686
 C,0,4.0041079068,0.7365726231,0.5106816513
 C,0,4.505423415,1.8495856048,1.4141600229
 O,0,5.8907745271,1.7192316598,1.6691849104
 C,0,2.6490605478,-1.979166477,2.8625403486
 C,0,3.0179343453,-0.6735946929,3.5479959823
 O,0,2.0492799739,0.3118332332,3.1422583252
 C,0,2.3594692965,-1.80290536,-2.873998386
 C,0,3.04171617,-2.1597085945,-1.5668500287
 O,0,2.2556360164,-3.0751393633,-0.8175507719
 H,0,4.2577151612,-0.2392355042,0.9323978709
 H,0,4.4708622076,0.8150991745,-0.4758330612
 H,0,4.2650268148,2.8206918198,0.9692460739
 H,0,3.9991151422,1.7875428067,2.3782746887
 H,0,3.2181862629,-1.2607599192,-0.9761533784
 H,0,1.8102599093,-2.448054696,3.3919565929
 H,0,3.4993741131,-2.6667546812,2.8834208424
 H,0,3.0261246216,-0.7566718172,4.6345167816
 H,0,3.9910763402,-0.3169137216,3.2108532976
 H,0,1.1051156631,2.8232917051,0.1126970443
 H,0,-0.5346079372,3.2108495256,0.6665257848
 H,0,1.9302549167,2.9152986887,2.4307890606
 H,0,0.3029994395,3.2976059688,3.0123072428
 O,0,1.1804280259,4.7824158162,1.8803211536
 H,0,2.3968566721,-2.8558594721,0.1245659307
 H,0,2.0927900367,5.0208468633,2.0605475283
 H,0,6.3755064508,1.8989085397,0.8567736181
 H,0,1.3485135739,0.4187377911,3.8378884457
 O,0,1.725898158,0.6503376137,-1.9399649903
 H,0,0.8292867592,-1.8451036449,-0.5950836831
 C,0,0.7965722342,-0.2028816337,-2.0199450335
 O,0,0.5849354053,-0.9084035816,-0.4613303161
 C,0,-0.61988027,0.2823755398,-2.2450117812
 C,0,-1.6492665028,-0.5993735337,-2.5407247135
 C,0,-3.2079605973,1.2422205704,-2.6183691361
 C,0,-2.939962227,-0.1215737559,-2.7298050776
 H,0,-1.4573390288,-1.6603951006,-2.6234575735
 C,0,-4.0085171159,-1.1088603905,-3.046974823
 H,0,-4.2145534683,1.6083105737,-2.7635142478
 O,0,-3.8265322815,-2.2964177989,-3.1524363672
 O,0,-5.2073713977,-0.5429927872,-3.2028224671
 H,0,2.9572077611,-1.0453940111,-3.3836318071
 H,0,4.0129718244,-2.5988089682,-1.8149856406
 H,0,2.2819014957,-2.6838992654,-3.5092530254
 O,0,-0.2857200047,-1.0312522089,2.3378775231
 C,0,-1.3663594212,-0.5971045848,3.1148552177
 C,0,-0.977843998,-0.5175837277,4.5758859849
 O,0,0.0107138737,0.4902818321,4.8150509345
 H,0,2.3062020494,0.8413143575,-0.6158330137
 H,0,-0.5271160043,-1.4587708327,4.8899307482
 H,0,-1.8583332508,-0.3244966122,5.1912083491
 H,0,-0.4073221438,1.3585696659,4.779290898
 H,0,-1.7062089051,0.3863132371,2.7668295745
 H,0,-2.1942156053,-1.305162559,3.0120562059
 C,0,-6.2945153502,-1.4223846484,-3.5241839851
 H,0,-6.05795952,-1.9571307359,-4.4445359569
 H,0,-6.4324944276,-2.1413858675,-2.7159689757
 C,0,-7.5113998434,-0.5493855545,-3.6979695552
 H,0,-7.7138635657,-0.009923212,-2.7677217848
 H,0,-8.3699733955,-1.1818526002,-3.9211276603
 O,0,-7.3642435046,0.3480588831,-4.7815689967
 H,0,-6.6062028488,0.9140922,-4.597934676
 C,0,-0.8856753043,1.6399317985,-2.1383859551
 C,0,-2.1774300351,2.1190880225,-2.3219996471
 H,0,-2.3776533516,3.17882233,-2.2362108024
 H,0,-0.070701462,2.3150367443,-1.9147986703
 Recover connectivity data from disk.
 Any frozen variables have been unfrozen.

 GradGradGradGradGradGradGradGradGradGradGradGradGradGradGradGradGradGrad
 Berny optimization.
 Initialization pass.
 Force constant matrix read from checkpoint file:
 "/dev/shm/ti_eg5_mipa_tsa_ircr_opt_tsa_ts_ircf_opt_tsa_ts.chk"
                           ----------------------------
                           !    Initial Parameters    !
                           ! (Angstroms and Degrees)  !
 --------------------------                            --------------------------
 ! Name  Definition              Value          Derivative Info.                !
 --------------------------------------------------------------------------------
 ! R1    R(1,2)                  2.1617         D2E/DX2 =    0.1353             !
 ! R2    R(1,8)                  1.4185         D2E/DX2 =    0.3676             !
 ! R3    R(1,55)                 1.0307         D2E/DX2 =    0.329              !
 ! R4    R(2,4)                  1.9335         D2E/DX2 =    0.1323             !
 ! R5    R(2,5)                  1.8226         D2E/DX2 =    0.2413             !
 ! R6    R(2,13)                 2.1621         D2E/DX2 =    0.0717             !
 ! R7    R(2,38)                 1.9606         D2E/DX2 =    0.1563             !
 ! R8    R(2,51)                 1.8106         D2E/DX2 =    0.2638             !
 ! R9    R(3,14)                 1.4267         D2E/DX2 =    0.3581             !
 ! R10   R(3,37)                 1.3734         D2E/DX2 =    0.3846             !
 ! R11   R(4,11)                 1.4045         D2E/DX2 =    0.3037             !
 ! R12   R(5,6)                  1.397          D2E/DX2 =    0.3832             !
 ! R13   R(6,7)                  1.5183         D2E/DX2 =    0.2934             !
 ! R14   R(6,26)                 1.0951         D2E/DX2 =    0.3319             !
 ! R15   R(6,27)                 1.0952         D2E/DX2 =    0.3311             !
 ! R16   R(7,28)                 1.0916         D2E/DX2 =    0.342              !
 ! R17   R(7,29)                 1.0944         D2E/DX2 =    0.3311             !
 ! R18   R(7,30)                 1.4196         D2E/DX2 =    0.3638             !
 ! R19   R(8,9)                  1.5187         D2E/DX2 =    0.2924             !
 ! R20   R(8,17)                 1.0929         D2E/DX2 =    0.3383             !
 ! R21   R(8,18)                 1.0942         D2E/DX2 =    0.3336             !
 ! R22   R(9,10)                 1.4146         D2E/DX2 =    0.3681             !
 ! R23   R(9,19)                 1.0949         D2E/DX2 =    0.3317             !
 ! R24   R(9,20)                 1.0907         D2E/DX2 =    0.3448             !
 ! R25   R(10,33)                0.9629         D2E/DX2 =    0.5343             !
 ! R26   R(11,12)                1.52           D2E/DX2 =    0.2266             !
 ! R27   R(11,22)                1.0971         D2E/DX2 =    0.3262             !
 ! R28   R(11,23)                1.0937         D2E/DX2 =    0.3347             !
 ! R29   R(12,13)                1.4401         D2E/DX2 =    0.2822             !
 ! R30   R(12,24)                1.0897         D2E/DX2 =    0.3452             !
 ! R31   R(12,25)                1.0899         D2E/DX2 =    0.3449             !
 ! R32   R(13,34)                0.9932         D2E/DX2 =    0.3641             !
 ! R33   R(14,15)                1.517          D2E/DX2 =    0.3079             !
 ! R34   R(14,48)                1.0913         D2E/DX2 =    0.3423             !
 ! R35   R(14,50)                1.0889         D2E/DX2 =    0.347              !
 ! R36   R(15,16)                1.4203         D2E/DX2 =    0.3628             !
 ! R37   R(15,21)                1.09           D2E/DX2 =    0.3503             !
 ! R38   R(15,49)                1.0944         D2E/DX2 =    0.3327             !
 ! R39   R(16,31)                0.9776         D2E/DX2 =    0.4543             !
 ! R40   R(30,32)                0.9601         D2E/DX2 =    0.5454             !
 ! R41   R(35,37)                1.2641         D2E/DX2 =    0.6316             !
 ! R42   R(35,55)                1.4583         D2E/DX2 =    0.0673             !
 ! R43   R(36,38)                0.9772         D2E/DX2 =    0.4621             !
 ! R44   R(37,38)                1.7239         D2E/DX2 =    0.0842             !
 ! R45   R(37,39)                1.5141         D2E/DX2 =    0.3083             !
 ! R46   R(39,40)                1.3873         D2E/DX2 =    0.4058             !
 ! R47   R(39,69)                1.3874         D2E/DX2 =    0.4055             !
 ! R48   R(40,42)                1.3892         D2E/DX2 =    0.4046             !
 ! R49   R(40,43)                1.0814         D2E/DX2 =    0.3699             !
 ! R50   R(41,42)                1.3943         D2E/DX2 =    0.3951             !
 ! R51   R(41,45)                1.0809         D2E/DX2 =    0.3699             !
 ! R52   R(41,70)                1.3852         D2E/DX2 =    0.4121             !
 ! R53   R(42,44)                1.489          D2E/DX2 =    0.3242             !
 ! R54   R(44,46)                1.206          D2E/DX2 =    0.8448             !
 ! R55   R(44,47)                1.3348         D2E/DX2 =    0.4327             !
 ! R56   R(47,61)                1.4347         D2E/DX2 =    0.3274             !
 ! R57   R(51,52)                1.4            D2E/DX2 =    0.3938             !
 ! R58   R(52,53)                1.5139         D2E/DX2 =    0.2977             !
 ! R59   R(52,59)                1.0971         D2E/DX2 =    0.328              !
 ! R60   R(52,60)                1.0942         D2E/DX2 =    0.3341             !
 ! R61   R(53,54)                1.4319         D2E/DX2 =    0.3408             !
 ! R62   R(53,56)                1.0898         D2E/DX2 =    0.3456             !
 ! R63   R(53,57)                1.0914         D2E/DX2 =    0.3415             !
 ! R64   R(54,58)                0.9643         D2E/DX2 =    0.5318             !
 ! R65   R(61,62)                1.0904         D2E/DX2 =    0.3438             !
 ! R66   R(61,63)                1.0905         D2E/DX2 =    0.3444             !
 ! R67   R(61,64)                1.5077         D2E/DX2 =    0.3051             !
 ! R68   R(64,65)                1.0942         D2E/DX2 =    0.3328             !
 ! R69   R(64,66)                1.0895         D2E/DX2 =    0.3465             !
 ! R70   R(64,67)                1.4147         D2E/DX2 =    0.3681             !
 ! R71   R(67,68)                0.9637         D2E/DX2 =    0.5318             !
 ! R72   R(69,70)                1.3899         D2E/DX2 =    0.4018             !
 ! R73   R(69,72)                1.0816         D2E/DX2 =    0.3687             !
 ! R74   R(70,71)                1.0819         D2E/DX2 =    0.3658             !
 ! A1    A(2,1,8)              130.5089         D2E/DX2 =    0.1417             !
 ! A2    A(2,1,55)             102.3688         D2E/DX2 =    0.0838             !
 ! A3    A(8,1,55)             111.8521         D2E/DX2 =    0.116              !
 ! A4    A(1,2,4)               86.1413         D2E/DX2 =    0.0292             !
 ! A5    A(1,2,5)               82.2359         D2E/DX2 =    0.0447             !
 ! A6    A(1,2,13)              83.3124         D2E/DX2 =    0.0591             !
 ! A7    A(1,2,38)              85.4004         D2E/DX2 =    0.0791             !
 ! A8    A(4,2,13)              77.224          D2E/DX2 =    0.0195             !
 ! A9    A(4,2,38)              89.1727         D2E/DX2 =    0.0304             !
 ! A10   A(4,2,51)              95.0106         D2E/DX2 =    0.0191             !
 ! A11   A(5,2,13)              92.8955         D2E/DX2 =    0.0191             !
 ! A12   A(5,2,38)              98.3502         D2E/DX2 =    0.0254             !
 ! A13   A(5,2,51)              95.4195         D2E/DX2 =    0.0292             !
 ! A14   A(13,2,38)            162.8379         D2E/DX2 =    0.0365             !
 ! A15   A(13,2,51)             89.6371         D2E/DX2 =    0.0444             !
 ! A16   A(38,2,51)            102.0852         D2E/DX2 =    0.0438             !
 ! A17   A(14,3,37)            117.5153         D2E/DX2 =    0.6037             !
 ! A18   A(2,4,11)             115.7881         D2E/DX2 =    0.0433             !
 ! A19   A(2,5,6)              141.8368         D2E/DX2 =    0.1513             !
 ! A20   A(5,6,7)              110.2851         D2E/DX2 =    0.1791             !
 ! A21   A(5,6,26)             110.5817         D2E/DX2 =    0.064              !
 ! A22   A(5,6,27)             109.4373         D2E/DX2 =    0.0627             !
 ! A23   A(7,6,26)             108.7865         D2E/DX2 =    0.0735             !
 ! A24   A(7,6,27)             109.5725         D2E/DX2 =    0.0731             !
 ! A25   A(26,6,27)            108.14           D2E/DX2 =    0.0278             !
 ! A26   A(6,7,28)             108.9087         D2E/DX2 =    0.0708             !
 ! A27   A(6,7,29)             109.4391         D2E/DX2 =    0.0721             !
 ! A28   A(6,7,30)             109.0669         D2E/DX2 =    0.155              !
 ! A29   A(28,7,29)            108.1145         D2E/DX2 =    0.0274             !
 ! A30   A(28,7,30)            111.6717         D2E/DX2 =    0.0604             !
 ! A31   A(29,7,30)            109.6095         D2E/DX2 =    0.0595             !
 ! A32   A(1,8,9)              109.051          D2E/DX2 =    0.1602             !
 ! A33   A(1,8,17)             109.8368         D2E/DX2 =    0.057              !
 ! A34   A(1,8,18)             109.2614         D2E/DX2 =    0.058              !
 ! A35   A(9,8,17)             110.3782         D2E/DX2 =    0.056              !
 ! A36   A(9,8,18)             110.0574         D2E/DX2 =    0.0559             !
 ! A37   A(17,8,18)            108.2401         D2E/DX2 =    0.0221             !
 ! A38   A(8,9,10)             111.2832         D2E/DX2 =    0.1496             !
 ! A39   A(8,9,19)             109.6214         D2E/DX2 =    0.0715             !
 ! A40   A(8,9,20)             109.3253         D2E/DX2 =    0.0713             !
 ! A41   A(10,9,19)            111.7155         D2E/DX2 =    0.0635             !
 ! A42   A(10,9,20)            106.8572         D2E/DX2 =    0.059              !
 ! A43   A(19,9,20)            107.9214         D2E/DX2 =    0.0281             !
 ! A44   A(9,10,33)            108.8853         D2E/DX2 =    0.1759             !
 ! A45   A(4,11,12)            107.5955         D2E/DX2 =    0.0631             !
 ! A46   A(4,11,22)            110.1668         D2E/DX2 =    0.0394             !
 ! A47   A(4,11,23)            111.0059         D2E/DX2 =    0.0428             !
 ! A48   A(12,11,22)           109.5732         D2E/DX2 =    0.056              !
 ! A49   A(12,11,23)           110.0412         D2E/DX2 =    0.0584             !
 ! A50   A(22,11,23)           108.4511         D2E/DX2 =    0.0264             !
 ! A51   A(11,12,13)           107.3044         D2E/DX2 =    0.0698             !
 ! A52   A(11,12,24)           112.7041         D2E/DX2 =    0.0416             !
 ! A53   A(11,12,25)           110.9943         D2E/DX2 =    0.0369             !
 ! A54   A(13,12,24)           109.763          D2E/DX2 =    0.0403             !
 ! A55   A(13,12,25)           106.8266         D2E/DX2 =    0.0403             !
 ! A56   A(24,12,25)           109.0663         D2E/DX2 =    0.0197             !
 ! A57   A(2,13,12)            112.7693         D2E/DX2 =    0.0515             !
 ! A58   A(2,13,34)            105.6688         D2E/DX2 =    0.0283             !
 ! A59   A(12,13,34)           110.5427         D2E/DX2 =    0.0267             !
 ! A60   A(3,14,15)            114.6858         D2E/DX2 =    0.4314             !
 ! A61   A(3,14,48)            110.0049         D2E/DX2 =    0.1061             !
 ! A62   A(3,14,50)            104.0694         D2E/DX2 =    0.0873             !
 ! A63   A(15,14,48)           108.6224         D2E/DX2 =    0.0941             !
 ! A64   A(15,14,50)           110.1464         D2E/DX2 =    0.1073             !
 ! A65   A(48,14,50)           109.159          D2E/DX2 =    0.0292             !
 ! A66   A(14,15,16)           110.9314         D2E/DX2 =    0.2423             !
 ! A67   A(14,15,21)           110.2289         D2E/DX2 =    0.0745             !
 ! A68   A(14,15,49)           107.3449         D2E/DX2 =    0.0835             !
 ! A69   A(16,15,21)           109.5875         D2E/DX2 =    0.0764             !
 ! A70   A(16,15,49)           110.621          D2E/DX2 =    0.0701             !
 ! A71   A(21,15,49)           108.064          D2E/DX2 =    0.0278             !
 ! A72   A(15,16,31)           106.4929         D2E/DX2 =    0.2223             !
 ! A73   A(7,30,32)            109.2561         D2E/DX2 =    0.1744             !
 ! A74   A(37,35,55)           116.001          D2E/DX2 =    0.6008             !
 ! A75   A(3,37,35)            118.8583         D2E/DX2 =    0.2324             !
 ! A76   A(3,37,39)            109.7199         D2E/DX2 =    0.224              !
 ! A77   A(35,37,39)           118.7398         D2E/DX2 =    0.2256             !
 ! A78   A(2,38,36)            113.4868         D2E/DX2 =    0.1497             !
 ! A79   A(37,39,40)           121.4764         D2E/DX2 =    0.1401             !
 ! A80   A(37,39,69)           118.7761         D2E/DX2 =    0.1455             !
 ! A81   A(40,39,69)           119.7447         D2E/DX2 =    0.0871             !
 ! A82   A(39,40,42)           119.9867         D2E/DX2 =    0.084              !
 ! A83   A(39,40,43)           120.5457         D2E/DX2 =    0.0795             !
 ! A84   A(42,40,43)           119.4674         D2E/DX2 =    0.0801             !
 ! A85   A(42,41,45)           119.9693         D2E/DX2 =    0.0818             !
 ! A86   A(42,41,70)           119.556          D2E/DX2 =    0.0831             !
 ! A87   A(45,41,70)           120.4747         D2E/DX2 =    0.0821             !
 ! A88   A(40,42,41)           120.2713         D2E/DX2 =    0.0887             !
 ! A89   A(40,42,44)           117.8838         D2E/DX2 =    0.1458             !
 ! A90   A(41,42,44)           121.8447         D2E/DX2 =    0.1497             !
 ! A91   A(42,44,46)           124.2794         D2E/DX2 =    0.1846             !
 ! A92   A(42,44,47)           112.8497         D2E/DX2 =    0.2153             !
 ! A93   A(46,44,47)           122.8707         D2E/DX2 =    0.2288             !
 ! A94   A(44,47,61)           116.5424         D2E/DX2 =    0.3073             !
 ! A95   A(2,51,52)            136.0291         D2E/DX2 =    0.2781             !
 ! A96   A(51,52,53)           110.7203         D2E/DX2 =    0.3446             !
 ! A97   A(51,52,59)           109.9387         D2E/DX2 =    0.0735             !
 ! A98   A(51,52,60)           109.3412         D2E/DX2 =    0.0906             !
 ! A99   A(53,52,59)           109.7882         D2E/DX2 =    0.0821             !
 ! A100  A(53,52,60)           108.5919         D2E/DX2 =    0.0945             !
 ! A101  A(59,52,60)           108.4131         D2E/DX2 =    0.0286             !
 ! A102  A(52,53,54)           112.0459         D2E/DX2 =    0.2055             !
 ! A103  A(52,53,56)           109.8091         D2E/DX2 =    0.0704             !
 ! A104  A(52,53,57)           110.2646         D2E/DX2 =    0.0713             !
 ! A105  A(54,53,56)           105.9161         D2E/DX2 =    0.0652             !
 ! A106  A(54,53,57)           109.7721         D2E/DX2 =    0.0804             !
 ! A107  A(56,53,57)           108.9046         D2E/DX2 =    0.0279             !
 ! A108  A(53,54,58)           109.1653         D2E/DX2 =    0.1822             !
 ! A109  A(47,61,62)           108.9813         D2E/DX2 =    0.0612             !
 ! A110  A(47,61,63)           109.511          D2E/DX2 =    0.0622             !
 ! A111  A(47,61,64)           106.4089         D2E/DX2 =    0.1753             !
 ! A112  A(62,61,63)           109.2484         D2E/DX2 =    0.0286             !
 ! A113  A(62,61,64)           111.2092         D2E/DX2 =    0.0661             !
 ! A114  A(63,61,64)           111.4122         D2E/DX2 =    0.0646             !
 ! A115  A(61,64,65)           109.6825         D2E/DX2 =    0.0737             !
 ! A116  A(61,64,66)           108.8763         D2E/DX2 =    0.0701             !
 ! A117  A(61,64,67)           111.8183         D2E/DX2 =    0.1659             !
 ! A118  A(65,64,66)           108.3317         D2E/DX2 =    0.0273             !
 ! A119  A(65,64,67)           110.9574         D2E/DX2 =    0.0659             !
 ! A120  A(66,64,67)           107.0591         D2E/DX2 =    0.0609             !
 ! A121  A(64,67,68)           107.9672         D2E/DX2 =    0.1835             !
 ! A122  A(39,69,70)           120.3443         D2E/DX2 =    0.0827             !
 ! A123  A(39,69,72)           118.8326         D2E/DX2 =    0.0796             !
 ! A124  A(70,69,72)           120.8225         D2E/DX2 =    0.0793             !
 ! A125  A(41,70,69)           120.0961         D2E/DX2 =    0.0821             !
 ! A126  A(41,70,71)           119.9571         D2E/DX2 =    0.0812             !
 ! A127  A(69,70,71)           119.9465         D2E/DX2 =    0.0811             !
 ! A128  L(1,2,51,4,-1)        181.1519         D2E/DX2 =    0.0219             !
 ! A129  L(4,2,5,1,-1)         168.3771         D2E/DX2 =    0.0189             !
 ! A130  L(1,55,35,6,-1)       178.6126         D2E/DX2 =    0.5204             !
 ! A131  L(1,2,51,4,-2)        172.4952         D2E/DX2 =    0.0415             !
 ! A132  L(4,2,5,1,-2)         188.5704         D2E/DX2 =    0.0152             !
 ! A133  L(1,55,35,6,-2)       190.5043         D2E/DX2 =    0.0637             !
 ! D1    D(8,1,2,4)            -25.7645         D2E/DX2 =    0.0137             !
 ! D2    D(8,1,2,5)            145.665          D2E/DX2 =    0.0129             !
 ! D3    D(8,1,2,13)            51.8051         D2E/DX2 =    0.0156             !
 ! D4    D(8,1,2,38)          -115.2436         D2E/DX2 =    0.0286             !
 ! D5    D(55,1,2,4)           107.7503         D2E/DX2 =    0.0342             !
 ! D6    D(55,1,2,5)           -80.8201         D2E/DX2 =    0.0291             !
 ! D7    D(55,1,2,13)         -174.68           D2E/DX2 =    0.0326             !
 ! D8    D(55,1,2,38)           18.2713         D2E/DX2 =    0.0621             !
 ! D9    D(2,1,8,9)           -101.0231         D2E/DX2 =    0.02               !
 ! D10   D(2,1,8,17)            20.0549         D2E/DX2 =    0.0196             !
 ! D11   D(2,1,8,18)           138.6445         D2E/DX2 =    0.0186             !
 ! D12   D(55,1,8,9)           128.7241         D2E/DX2 =    0.0192             !
 ! D13   D(55,1,8,17)         -110.1979         D2E/DX2 =    0.0195             !
 ! D14   D(55,1,8,18)            8.3917         D2E/DX2 =    0.0172             !
 ! D15   D(2,1,35,37)          -12.8782         D2E/DX2 =    0.5412             !
 ! D16   D(8,1,35,37)          128.4501         D2E/DX2 =    0.2547             !
 ! D17   D(8,1,51,52)          122.2893         D2E/DX2 =    0.0153             !
 ! D18   D(55,1,51,52)        -101.0583         D2E/DX2 =    0.0242             !
 ! D19   D(1,2,4,11)           113.7943         D2E/DX2 =    0.0403             !
 ! D20   D(13,2,4,11)           29.7863         D2E/DX2 =    0.0105             !
 ! D21   D(38,2,4,11)         -160.7603         D2E/DX2 =    0.0159             !
 ! D22   D(51,2,4,11)          -58.7009         D2E/DX2 =    0.0268             !
 ! D23   D(11,4,5,6)            95.0912         D2E/DX2 =    0.0087             !
 ! D24   D(1,2,5,6)            -12.6443         D2E/DX2 =    0.0337             !
 ! D25   D(13,2,5,6)            70.1992         D2E/DX2 =    0.0139             !
 ! D26   D(38,2,5,6)           -96.8007         D2E/DX2 =    0.0205             !
 ! D27   D(51,2,5,6)           160.1091         D2E/DX2 =    0.0198             !
 ! D28   D(1,2,13,12)          -91.1897         D2E/DX2 =    0.0241             !
 ! D29   D(1,2,13,34)          147.9473         D2E/DX2 =    0.0212             !
 ! D30   D(4,2,13,12)           -3.6479         D2E/DX2 =    0.0063             !
 ! D31   D(4,2,13,34)         -124.5108         D2E/DX2 =    0.0111             !
 ! D32   D(5,2,13,12)         -173.0189         D2E/DX2 =    0.0155             !
 ! D33   D(5,2,13,34)           66.1182         D2E/DX2 =    0.0166             !
 ! D34   D(38,2,13,12)         -41.9809         D2E/DX2 =    0.0072             !
 ! D35   D(38,2,13,34)        -162.8438         D2E/DX2 =    0.011              !
 ! D36   D(51,2,13,12)          91.573          D2E/DX2 =    0.0133             !
 ! D37   D(51,2,13,34)         -29.2899         D2E/DX2 =    0.0162             !
 ! D38   D(1,2,38,36)          107.2089         D2E/DX2 =    0.0209             !
 ! D39   D(4,2,38,36)           21.0138         D2E/DX2 =    0.0088             !
 ! D40   D(5,2,38,36)         -171.348          D2E/DX2 =    0.016              !
 ! D41   D(13,2,38,36)          58.2382         D2E/DX2 =    0.0047             !
 ! D42   D(51,2,38,36)         -73.9333         D2E/DX2 =    0.0106             !
 ! D43   D(4,2,51,52)          153.5102         D2E/DX2 =    0.0167             !
 ! D44   D(5,2,51,52)          -16.5051         D2E/DX2 =    0.015              !
 ! D45   D(13,2,51,52)          76.3689         D2E/DX2 =    0.0188             !
 ! D46   D(38,2,51,52)        -116.2635         D2E/DX2 =    0.0257             !
 ! D47   D(37,3,14,15)          62.1194         D2E/DX2 =    0.106              !
 ! D48   D(37,3,14,48)         -60.6567         D2E/DX2 =    0.0471             !
 ! D49   D(37,3,14,50)        -177.4842         D2E/DX2 =    0.06               !
 ! D50   D(14,3,37,35)          26.0072         D2E/DX2 =    0.1428             !
 ! D51   D(14,3,37,39)         167.3361         D2E/DX2 =    0.098              !
 ! D52   D(2,4,11,12)          -49.3066         D2E/DX2 =    0.0169             !
 ! D53   D(2,4,11,22)           70.0919         D2E/DX2 =    0.0325             !
 ! D54   D(2,4,11,23)         -169.7629         D2E/DX2 =    0.0303             !
 ! D55   D(2,5,6,7)            -79.8015         D2E/DX2 =    0.0226             !
 ! D56   D(2,5,6,26)            40.5658         D2E/DX2 =    0.0265             !
 ! D57   D(2,5,6,27)           159.5901         D2E/DX2 =    0.027              !
 ! D58   D(5,6,7,28)            60.1281         D2E/DX2 =    0.0186             !
 ! D59   D(5,6,7,29)           -57.8681         D2E/DX2 =    0.0185             !
 ! D60   D(5,6,7,30)          -177.7713         D2E/DX2 =    0.0191             !
 ! D61   D(26,6,7,28)          -61.3122         D2E/DX2 =    0.0182             !
 ! D62   D(26,6,7,29)         -179.3083         D2E/DX2 =    0.0166             !
 ! D63   D(26,6,7,30)           60.7885         D2E/DX2 =    0.0182             !
 ! D64   D(27,6,7,28)         -179.3445         D2E/DX2 =    0.0164             !
 ! D65   D(27,6,7,29)           62.6593         D2E/DX2 =    0.0176             !
 ! D66   D(27,6,7,30)          -57.2439         D2E/DX2 =    0.0182             !
 ! D67   D(6,7,30,32)         -125.8861         D2E/DX2 =    0.0158             !
 ! D68   D(28,7,30,32)          -5.4685         D2E/DX2 =    0.0213             !
 ! D69   D(29,7,30,32)         114.316          D2E/DX2 =    0.0255             !
 ! D70   D(1,8,9,10)           175.3876         D2E/DX2 =    0.0185             !
 ! D71   D(1,8,9,19)           -60.5265         D2E/DX2 =    0.0175             !
 ! D72   D(1,8,9,20)            57.5864         D2E/DX2 =    0.0181             !
 ! D73   D(17,8,9,10)           54.6407         D2E/DX2 =    0.0177             !
 ! D74   D(17,8,9,19)          178.7265         D2E/DX2 =    0.0159             !
 ! D75   D(17,8,9,20)          -63.1605         D2E/DX2 =    0.0181             !
 ! D76   D(18,8,9,10)          -64.7707         D2E/DX2 =    0.0178             !
 ! D77   D(18,8,9,19)           59.3151         D2E/DX2 =    0.0181             !
 ! D78   D(18,8,9,20)          177.4281         D2E/DX2 =    0.0167             !
 ! D79   D(8,9,10,33)           68.9631         D2E/DX2 =    0.0164             !
 ! D80   D(19,9,10,33)         -53.9286         D2E/DX2 =    0.0224             !
 ! D81   D(20,9,10,33)        -171.7532         D2E/DX2 =    0.0234             !
 ! D82   D(4,11,12,13)          41.6767         D2E/DX2 =    0.0141             !
 ! D83   D(4,11,12,24)         162.6246         D2E/DX2 =    0.0184             !
 ! D84   D(4,11,12,25)         -74.7029         D2E/DX2 =    0.0209             !
 ! D85   D(22,11,12,13)        -78.0997         D2E/DX2 =    0.0181             !
 ! D86   D(22,11,12,24)         42.8483         D2E/DX2 =    0.0179             !
 ! D87   D(22,11,12,25)        165.5208         D2E/DX2 =    0.0191             !
 ! D88   D(23,11,12,13)        162.7399         D2E/DX2 =    0.0174             !
 ! D89   D(23,11,12,24)        -76.3122         D2E/DX2 =    0.0164             !
 ! D90   D(23,11,12,25)         46.3603         D2E/DX2 =    0.0174             !
 ! D91   D(11,12,13,2)         -19.5036         D2E/DX2 =    0.0121             !
 ! D92   D(11,12,13,34)         98.5359         D2E/DX2 =    0.0157             !
 ! D93   D(24,12,13,2)        -142.29           D2E/DX2 =    0.0184             !
 ! D94   D(24,12,13,34)        -24.2505         D2E/DX2 =    0.0152             !
 ! D95   D(25,12,13,2)          99.5918         D2E/DX2 =    0.0196             !
 ! D96   D(25,12,13,34)       -142.3686         D2E/DX2 =    0.0181             !
 ! D97   D(3,14,15,16)          52.3785         D2E/DX2 =    0.0291             !
 ! D98   D(3,14,15,21)         -69.1871         D2E/DX2 =    0.02               !
 ! D99   D(3,14,15,49)         173.342          D2E/DX2 =    0.0196             !
 ! D100  D(48,14,15,16)        175.8966         D2E/DX2 =    0.0338             !
 ! D101  D(48,14,15,21)         54.3309         D2E/DX2 =    0.0196             !
 ! D102  D(48,14,15,49)        -63.1399         D2E/DX2 =    0.0196             !
 ! D103  D(50,14,15,16)        -64.5973         D2E/DX2 =    0.0238             !
 ! D104  D(50,14,15,21)        173.8371         D2E/DX2 =    0.0231             !
 ! D105  D(50,14,15,49)         56.3662         D2E/DX2 =    0.0188             !
 ! D106  D(14,15,16,31)       -145.8549         D2E/DX2 =    0.0329             !
 ! D107  D(21,15,16,31)        -23.9139         D2E/DX2 =    0.0239             !
 ! D108  D(49,15,16,31)         95.135          D2E/DX2 =    0.0342             !
 ! D109  D(55,35,37,3)        -113.2919         D2E/DX2 =    0.439              !
 ! D110  D(55,35,37,39)        108.8402         D2E/DX2 =    0.2343             !
 ! D111  D(3,37,39,40)          28.8284         D2E/DX2 =    0.0294             !
 ! D112  D(3,37,39,69)        -151.782          D2E/DX2 =    0.0299             !
 ! D113  D(35,37,39,40)        170.2094         D2E/DX2 =    0.0299             !
 ! D114  D(35,37,39,69)        -10.401          D2E/DX2 =    0.0302             !
 ! D115  D(37,39,40,42)        179.4334         D2E/DX2 =    0.0074             !
 ! D116  D(37,39,40,43)         -0.4011         D2E/DX2 =    0.0081             !
 ! D117  D(69,39,40,42)          0.0497         D2E/DX2 =    0.0076             !
 ! D118  D(69,39,40,43)       -179.7849         D2E/DX2 =    0.0075             !
 ! D119  D(37,39,69,70)       -179.1932         D2E/DX2 =    0.0071             !
 ! D120  D(37,39,69,72)          1.0648         D2E/DX2 =    0.0084             !
 ! D121  D(40,39,69,70)          0.2071         D2E/DX2 =    0.0077             !
 ! D122  D(40,39,69,72)       -179.5348         D2E/DX2 =    0.008              !
 ! D123  D(39,40,42,41)         -0.2592         D2E/DX2 =    0.0078             !
 ! D124  D(39,40,42,44)        179.9174         D2E/DX2 =    0.0073             !
 ! D125  D(43,40,42,41)        179.5771         D2E/DX2 =    0.0074             !
 ! D126  D(43,40,42,44)         -0.2463         D2E/DX2 =    0.0079             !
 ! D127  D(45,41,42,40)       -179.8152         D2E/DX2 =    0.0076             !
 ! D128  D(45,41,42,44)          0.001          D2E/DX2 =    0.0078             !
 ! D129  D(70,41,42,40)          0.2112         D2E/DX2 =    0.0079             !
 ! D130  D(70,41,42,44)       -179.9726         D2E/DX2 =    0.0074             !
 ! D131  D(42,41,70,69)          0.0453         D2E/DX2 =    0.0091             !
 ! D132  D(42,41,70,71)        179.8626         D2E/DX2 =    0.0087             !
 ! D133  D(45,41,70,69)       -179.9281         D2E/DX2 =    0.0086             !
 ! D134  D(45,41,70,71)         -0.1108         D2E/DX2 =    0.0096             !
 ! D135  D(40,42,44,46)         -0.1123         D2E/DX2 =    0.0149             !
 ! D136  D(40,42,44,47)        179.7454         D2E/DX2 =    0.014              !
 ! D137  D(41,42,44,46)       -179.9327         D2E/DX2 =    0.0141             !
 ! D138  D(41,42,44,47)         -0.075          D2E/DX2 =    0.0142             !
 ! D139  D(42,44,47,61)        179.4063         D2E/DX2 =    0.0233             !
 ! D140  D(46,44,47,61)         -0.7337         D2E/DX2 =    0.0225             !
 ! D141  D(44,47,61,62)        -57.8998         D2E/DX2 =    0.0234             !
 ! D142  D(44,47,61,63)         61.555          D2E/DX2 =    0.0228             !
 ! D143  D(44,47,61,64)       -177.9072         D2E/DX2 =    0.0165             !
 ! D144  D(2,51,52,53)         -96.6067         D2E/DX2 =    0.0538             !
 ! D145  D(2,51,52,59)          24.8772         D2E/DX2 =    0.0363             !
 ! D146  D(2,51,52,60)         143.7871         D2E/DX2 =    0.0379             !
 ! D147  D(51,52,53,54)         65.8464         D2E/DX2 =    0.0415             !
 ! D148  D(51,52,53,56)        -51.5624         D2E/DX2 =    0.0227             !
 ! D149  D(51,52,53,57)       -171.5679         D2E/DX2 =    0.0255             !
 ! D150  D(59,52,53,54)        -55.7261         D2E/DX2 =    0.0212             !
 ! D151  D(59,52,53,56)       -173.1349         D2E/DX2 =    0.0212             !
 ! D152  D(59,52,53,57)         66.8596         D2E/DX2 =    0.0188             !
 ! D153  D(60,52,53,54)       -174.0982         D2E/DX2 =    0.0286             !
 ! D154  D(60,52,53,56)         68.4929         D2E/DX2 =    0.0181             !
 ! D155  D(60,52,53,57)        -51.5126         D2E/DX2 =    0.0184             !
 ! D156  D(52,53,54,58)         75.246          D2E/DX2 =    0.0167             !
 ! D157  D(56,53,54,58)       -165.0398         D2E/DX2 =    0.0245             !
 ! D158  D(57,53,54,58)        -47.6189         D2E/DX2 =    0.0223             !
 ! D159  D(47,61,64,65)        -60.2982         D2E/DX2 =    0.0189             !
 ! D160  D(47,61,64,66)       -178.6788         D2E/DX2 =    0.0187             !
 ! D161  D(47,61,64,67)         63.2326         D2E/DX2 =    0.021              !
 ! D162  D(62,61,64,65)       -178.8519         D2E/DX2 =    0.0169             !
 ! D163  D(62,61,64,66)         62.7675         D2E/DX2 =    0.0177             !
 ! D164  D(62,61,64,67)        -55.3211         D2E/DX2 =    0.019              !
 ! D165  D(63,61,64,65)         59.007          D2E/DX2 =    0.0177             !
 ! D166  D(63,61,64,66)        -59.3736         D2E/DX2 =    0.0169             !
 ! D167  D(63,61,64,67)       -177.4622         D2E/DX2 =    0.0183             !
 ! D168  D(61,64,67,68)        -60.7583         D2E/DX2 =    0.0163             !
 ! D169  D(65,64,67,68)         62.0502         D2E/DX2 =    0.0232             !
 ! D170  D(66,64,67,68)       -179.9266         D2E/DX2 =    0.0227             !
 ! D171  D(39,69,70,41)         -0.2552         D2E/DX2 =    0.0091             !
 ! D172  D(39,69,70,71)        179.9275         D2E/DX2 =    0.0085             !
 ! D173  D(72,69,70,41)        179.4816         D2E/DX2 =    0.009              !
 ! D174  D(72,69,70,71)         -0.3357         D2E/DX2 =    0.0098             !
 --------------------------------------------------------------------------------
 Trust Radius=3.00D-01 FncErr=1.00D-07 GrdErr=1.00D-06 EigMax=2.50D+02 EigMin=1.00D-04
 Number of steps in this run=    200 maximum allowed number of steps=    432.
 Search for a saddle point of order  1.
 GradGradGradGradGradGradGradGradGradGradGradGradGradGradGradGradGradGrad

 Symmetry turned off by external request.
 Stoichiometry    C20H36O15Ti
 Framework group  C1[X(C20H36O15Ti)]
 Deg. of freedom   210
 Full point group                 C1      NOp   1
                          Input orientation:                          
 ---------------------------------------------------------------------
 Center     Atomic      Atomic             Coordinates (Angstroms)
 Number     Number       Type             X           Y           Z
 ---------------------------------------------------------------------
      1          8           0        2.596867    0.850430    0.372948
      2         22           0        0.998830   -0.241794    1.335443
      3          8           0        1.012390   -1.352590   -2.739520
      4          8           0        2.279293   -1.675693    1.542003
      5          8           0        0.159112    1.371603    1.219112
      6          6           0        0.403371    2.719901    0.947039
      7          6           0        0.990875    3.405225    2.167885
      8          6           0        4.004108    0.736573    0.510682
      9          6           0        4.505423    1.849586    1.414160
     10          8           0        5.890775    1.719232    1.669185
     11          6           0        2.649061   -1.979166    2.862540
     12          6           0        3.017934   -0.673595    3.547996
     13          8           0        2.049280    0.311833    3.142258
     14          6           0        2.359469   -1.802905   -2.873998
     15          6           0        3.041716   -2.159709   -1.566850
     16          8           0        2.255636   -3.075139   -0.817551
     17          1           0        4.257715   -0.239236    0.932398
     18          1           0        4.470862    0.815099   -0.475833
     19          1           0        4.265027    2.820692    0.969246
     20          1           0        3.999115    1.787543    2.378275
     21          1           0        3.218186   -1.260760   -0.976153
     22          1           0        1.810260   -2.448055    3.391957
     23          1           0        3.499374   -2.666755    2.883421
     24          1           0        3.026125   -0.756672    4.634517
     25          1           0        3.991076   -0.316914    3.210853
     26          1           0        1.105116    2.823292    0.112697
     27          1           0       -0.534608    3.210850    0.666526
     28          1           0        1.930255    2.915299    2.430789
     29          1           0        0.302999    3.297606    3.012307
     30          8           0        1.180428    4.782416    1.880321
     31          1           0        2.396857   -2.855859    0.124566
     32          1           0        2.092790    5.020847    2.060548
     33          1           0        6.375506    1.898909    0.856774
     34          1           0        1.348514    0.418738    3.837888
     35          8           0        1.725898    0.650338   -1.939965
     36          1           0        0.829287   -1.845104   -0.595084
     37          6           0        0.796572   -0.202882   -2.019945
     38          8           0        0.584935   -0.908404   -0.461330
     39          6           0       -0.619880    0.282376   -2.245012
     40          6           0       -1.649267   -0.599374   -2.540725
     41          6           0       -3.207961    1.242221   -2.618369
     42          6           0       -2.939962   -0.121574   -2.729805
     43          1           0       -1.457339   -1.660395   -2.623458
     44          6           0       -4.008517   -1.108860   -3.046975
     45          1           0       -4.214553    1.608311   -2.763514
     46          8           0       -3.826532   -2.296418   -3.152436
     47          8           0       -5.207371   -0.542993   -3.202822
     48          1           0        2.957208   -1.045394   -3.383632
     49          1           0        4.012972   -2.598809   -1.814986
     50          1           0        2.281901   -2.683899   -3.509253
     51          8           0       -0.285720   -1.031252    2.337878
     52          6           0       -1.366359   -0.597105    3.114855
     53          6           0       -0.977844   -0.517584    4.575886
     54          8           0        0.010714    0.490282    4.815051
     55          1           0        2.306202    0.841314   -0.615833
     56          1           0       -0.527116   -1.458771    4.889931
     57          1           0       -1.858333   -0.324497    5.191208
     58          1           0       -0.407322    1.358570    4.779291
     59          1           0       -1.706209    0.386313    2.766830
     60          1           0       -2.194216   -1.305163    3.012056
     61          6           0       -6.294515   -1.422385   -3.524184
     62          1           0       -6.057960   -1.957131   -4.444536
     63          1           0       -6.432494   -2.141386   -2.715969
     64          6           0       -7.511400   -0.549386   -3.697970
     65          1           0       -7.713864   -0.009923   -2.767722
     66          1           0       -8.369973   -1.181853   -3.921128
     67          8           0       -7.364244    0.348059   -4.781569
     68          1           0       -6.606203    0.914092   -4.597935
     69          6           0       -0.885675    1.639932   -2.138386
     70          6           0       -2.177430    2.119088   -2.322000
     71          1           0       -2.377653    3.178822   -2.236211
     72          1           0       -0.070701    2.315037   -1.914799
 ---------------------------------------------------------------------
 Rotational constants (GHZ):           0.1494666           0.0562186           0.0527814
 Standard basis: def2TZVP (5D, 7F)
  1346 basis functions,  2175 primitive gaussians,  1528 cartesian basis functions
   149 alpha electrons      149 beta electrons
       nuclear repulsion energy      5208.3219983431 Hartrees.
 NAtoms=   72 NActive=   72 NUniq=   72 SFac= 1.00D+00 NAtFMM=   60 NAOKFM=T Big=T
 Integral buffers will be    131072 words long.
 Raffenetti 2 integral format.
 Two-electron integral symmetry is turned off.
 Using the following non-standard input for PCM:
 PDENS=7.0
 --- end of non-standard input.
 ------------------------------------------------------------------------------
 Polarizable Continuum Model (PCM)
 =================================
 Model                : PCM.
 Atomic radii         : UFF (Universal Force Field).
 Polarization charges : Total charges.
 Charge compensation  : None.
 Solution method      : On-the-fly selection.
 Cavity type          : Scaled VdW (van der Waals Surface) (Alpha=1.100).
 Cavity algorithm     : GePol (No added spheres)
                        Default sphere list used, NSphG=   72.
                        Lebedev-Laikov grids with approx.  7.0 points / Ang**2.
                        Smoothing algorithm: York/Karplus (Gamma=1.0000).
                        Polarization charges: spherical gaussians, with
                                              point-specific exponents (IZeta= 3).
                        Self-potential: point-specific (ISelfS= 7).
                        Self-field    : sphere-specific E.n sum rule (ISelfD= 2).
 1st derivatives      : Analytical E(r).r(x)/FMM algorithm (CHGder, D1EAlg=3).
                        Cavity 1st derivative terms included.
 Solvent              : 1,2-EthaneDiol, Eps=  40.245000 Eps(inf)=   2.050051
 ------------------------------------------------------------------------------
 One-electron integrals computed using PRISM.
   1 Symmetry operations used in ECPInt.
 ECPInt:  NShTT=  148240 NPrTT=  454565 LenC2=  111314 LenP2D=  226116.
 LDataN:  DoStor=T MaxTD1= 6 Len=  172
 NBasis=  1346 RedAO= T EigKep=  6.19D-06  NBF=  1346
 NBsUse=  1346 1.00D-06 EigRej= -1.00D+00 NBFU=  1346
 Initial guess from the checkpoint file:  "/dev/shm/ti_eg5_mipa_tsa_ircr_opt_tsa_ts_ircf_opt_tsa_ts.chk"
 B after Tr=     0.000000    0.000000    0.000000
         Rot=    1.000000    0.000000    0.000000    0.000000 Ang=   0.00 deg.
 Requested convergence on RMS density matrix=1.00D-08 within 400 cycles.
 Requested convergence on MAX density matrix=1.00D-06.
 Requested convergence on             energy=1.00D-06.
 No special actions if energy rises.
 Inv3:  Mode=1 IEnd=   147168048.
 Iteration    1 A*A^-1 deviation from unit magnitude is 7.11D-15 for   1593.
 Iteration    1 A*A^-1 deviation from orthogonality  is 4.14D-15 for   1593    110.
 Iteration    1 A^-1*A deviation from unit magnitude is 3.33D-15 for   2917.
 Iteration    1 A^-1*A deviation from orthogonality  is 2.37D-15 for   6619   6607.
 Error on total polarization charges =  0.01786
 SCF Done:  E(RM062X) =  -2761.83497159     A.U. after    1 cycles
            NFock=  1  Conv=0.18D-08     -V/T= 2.0035
 QCSCF skips out because SCF is already converged.

 **********************************************************************

            Population analysis using the SCF Density.

 **********************************************************************

 Alpha  occ. eigenvalues -- -180.50220 -20.50230 -19.68287 -19.66520 -19.65988
 Alpha  occ. eigenvalues --  -19.65299 -19.64342 -19.63734 -19.63427 -19.63231
 Alpha  occ. eigenvalues --  -19.62917 -19.62807 -19.62582 -19.62206 -19.61869
 Alpha  occ. eigenvalues --  -19.60254 -19.59194 -17.19625 -17.19587 -17.19516
 Alpha  occ. eigenvalues --  -10.70262 -10.68449 -10.59755 -10.59570 -10.59389
 Alpha  occ. eigenvalues --  -10.58959 -10.58937 -10.58881 -10.58765 -10.58479
 Alpha  occ. eigenvalues --  -10.58351 -10.58120 -10.57929 -10.57757 -10.56543
 Alpha  occ. eigenvalues --  -10.55856 -10.55754 -10.55636 -10.55397 -10.55164
 Alpha  occ. eigenvalues --   -2.64131  -1.70679  -1.70599  -1.70209  -1.25149
 Alpha  occ. eigenvalues --   -1.22732  -1.18836  -1.17112  -1.16579  -1.16141
 Alpha  occ. eigenvalues --   -1.15283  -1.15054  -1.15000  -1.14739  -1.12305
 Alpha  occ. eigenvalues --   -1.11288  -1.10661  -1.10553  -1.09375  -0.98306
 Alpha  occ. eigenvalues --   -0.89631  -0.87670  -0.85757  -0.84749  -0.84384
 Alpha  occ. eigenvalues --   -0.83956  -0.83504  -0.82353  -0.76184  -0.76046
 Alpha  occ. eigenvalues --   -0.72158  -0.71526  -0.71133  -0.71117  -0.70521
 Alpha  occ. eigenvalues --   -0.69668  -0.66702  -0.65847  -0.64000  -0.63482
 Alpha  occ. eigenvalues --   -0.61918  -0.61421  -0.60671  -0.60295  -0.60182
 Alpha  occ. eigenvalues --   -0.60059  -0.59276  -0.58480  -0.58249  -0.57962
 Alpha  occ. eigenvalues --   -0.57409  -0.57099  -0.56770  -0.55982  -0.55740
 Alpha  occ. eigenvalues --   -0.55344  -0.54989  -0.54696  -0.53952  -0.52724
 Alpha  occ. eigenvalues --   -0.52483  -0.52443  -0.51658  -0.51577  -0.51311
 Alpha  occ. eigenvalues --   -0.51129  -0.50893  -0.50689  -0.50541  -0.50373
 Alpha  occ. eigenvalues --   -0.49360  -0.48721  -0.48362  -0.48300  -0.47797
 Alpha  occ. eigenvalues --   -0.47334  -0.45736  -0.45375  -0.45037  -0.44693
 Alpha  occ. eigenvalues --   -0.44118  -0.43799  -0.43321  -0.42442  -0.42050
 Alpha  occ. eigenvalues --   -0.41682  -0.41575  -0.41338  -0.41119  -0.40478
 Alpha  occ. eigenvalues --   -0.40070  -0.39735  -0.39014  -0.38565  -0.37964
 Alpha  occ. eigenvalues --   -0.37552  -0.37160  -0.36657  -0.36410  -0.36251
 Alpha  occ. eigenvalues --   -0.36036  -0.35370  -0.35107  -0.34829  -0.34284
 Alpha  occ. eigenvalues --   -0.33883  -0.33539  -0.32371  -0.31833
 Alpha virt. eigenvalues --   -0.02553  -0.02057  -0.01193  -0.00488   0.00280
 Alpha virt. eigenvalues --    0.03486   0.04575   0.05440   0.05747   0.06094
 Alpha virt. eigenvalues --    0.06530   0.07327   0.07837   0.08033   0.08444
 Alpha virt. eigenvalues --    0.08711   0.09046   0.09293   0.09673   0.10134
 Alpha virt. eigenvalues --    0.10331   0.11187   0.11319   0.11693   0.12036
 Alpha virt. eigenvalues --    0.12563   0.12879   0.13349   0.13519   0.13941
 Alpha virt. eigenvalues --    0.14022   0.14197   0.14633   0.14936   0.15023
 Alpha virt. eigenvalues --    0.15370   0.15653   0.15800   0.16139   0.16355
 Alpha virt. eigenvalues --    0.16480   0.16784   0.17201   0.17636   0.17863
 Alpha virt. eigenvalues --    0.18147   0.18505   0.18751   0.19280   0.19741
 Alpha virt. eigenvalues --    0.19981   0.20217   0.20540   0.20854   0.21349
 Alpha virt. eigenvalues --    0.21542   0.21750   0.21781   0.22063   0.22784
 Alpha virt. eigenvalues --    0.23242   0.23531   0.23721   0.24133   0.24524
 Alpha virt. eigenvalues --    0.24780   0.25417   0.25845   0.25969   0.26546
 Alpha virt. eigenvalues --    0.26680   0.26717   0.27073   0.27342   0.27549
 Alpha virt. eigenvalues --    0.27776   0.28254   0.28400   0.28877   0.29401
 Alpha virt. eigenvalues --    0.29642   0.29917   0.30612   0.30810   0.30971
 Alpha virt. eigenvalues --    0.31272   0.31671   0.31912   0.32315   0.32795
 Alpha virt. eigenvalues --    0.33274   0.33474   0.33964   0.34331   0.34539
 Alpha virt. eigenvalues --    0.35142   0.35521   0.35673   0.35964   0.36139
 Alpha virt. eigenvalues --    0.36385   0.36654   0.37115   0.37511   0.37660
 Alpha virt. eigenvalues --    0.37905   0.38256   0.38724   0.38956   0.39584
 Alpha virt. eigenvalues --    0.39766   0.39878   0.40105   0.40321   0.40652
 Alpha virt. eigenvalues --    0.40858   0.41132   0.41577   0.41898   0.41981
 Alpha virt. eigenvalues --    0.42135   0.42406   0.42648   0.42718   0.43270
 Alpha virt. eigenvalues --    0.43285   0.43692   0.43814   0.44161   0.44329
 Alpha virt. eigenvalues --    0.44621   0.45153   0.45203   0.45375   0.45704
 Alpha virt. eigenvalues --    0.46019   0.46106   0.46265   0.46642   0.47011
 Alpha virt. eigenvalues --    0.47118   0.47171   0.47572   0.47953   0.48151
 Alpha virt. eigenvalues --    0.48261   0.48363   0.49001   0.49107   0.49363
 Alpha virt. eigenvalues --    0.49737   0.49868   0.50136   0.50165   0.50750
 Alpha virt. eigenvalues --    0.50843   0.51193   0.51305   0.51633   0.52039
 Alpha virt. eigenvalues --    0.52369   0.52394   0.52640   0.53255   0.53576
 Alpha virt. eigenvalues --    0.53746   0.54274   0.54446   0.54942   0.55229
 Alpha virt. eigenvalues --    0.55482   0.55704   0.56074   0.56263   0.56691
 Alpha virt. eigenvalues --    0.57486   0.57729   0.57906   0.58025   0.58335
 Alpha virt. eigenvalues --    0.58746   0.59249   0.59374   0.59822   0.60255
 Alpha virt. eigenvalues --    0.60423   0.61147   0.61348   0.61740   0.62181
 Alpha virt. eigenvalues --    0.62567   0.62946   0.63354   0.64019   0.64169
 Alpha virt. eigenvalues --    0.64658   0.64960   0.65410   0.65872   0.66191
 Alpha virt. eigenvalues --    0.66313   0.66643   0.67357   0.67491   0.67786
 Alpha virt. eigenvalues --    0.67889   0.67999   0.68684   0.69225   0.69681
 Alpha virt. eigenvalues --    0.70370   0.70760   0.70824   0.71475   0.71773
 Alpha virt. eigenvalues --    0.71853   0.72365   0.72711   0.73008   0.73143
 Alpha virt. eigenvalues --    0.73821   0.74589   0.75045   0.75140   0.75768
 Alpha virt. eigenvalues --    0.75977   0.76189   0.76851   0.77265   0.77578
 Alpha virt. eigenvalues --    0.77856   0.78118   0.78930   0.79310   0.79828
 Alpha virt. eigenvalues --    0.80486   0.80750   0.80933   0.81250   0.81709
 Alpha virt. eigenvalues --    0.81919   0.82525   0.82865   0.83433   0.83823
 Alpha virt. eigenvalues --    0.84423   0.84716   0.84990   0.85783   0.85976
 Alpha virt. eigenvalues --    0.86806   0.87306   0.87713   0.88064   0.88470
 Alpha virt. eigenvalues --    0.88858   0.89737   0.89971   0.90436   0.90596
 Alpha virt. eigenvalues --    0.90647   0.91109   0.91800   0.92012   0.92180
 Alpha virt. eigenvalues --    0.92946   0.93157   0.93240   0.93565   0.94032
 Alpha virt. eigenvalues --    0.94560   0.95228   0.95612   0.95633   0.95918
 Alpha virt. eigenvalues --    0.96206   0.97042   0.97262   0.97735   0.97989
 Alpha virt. eigenvalues --    0.99213   0.99354   0.99915   1.00076   1.01233
 Alpha virt. eigenvalues --    1.01485   1.01725   1.01924   1.02812   1.03094
 Alpha virt. eigenvalues --    1.03639   1.03858   1.04348   1.04553   1.05109
 Alpha virt. eigenvalues --    1.05770   1.06026   1.06467   1.07363   1.08246
 Alpha virt. eigenvalues --    1.08599   1.08954   1.10536   1.11063   1.11360
 Alpha virt. eigenvalues --    1.11987   1.12309   1.13098   1.13564   1.14005
 Alpha virt. eigenvalues --    1.14654   1.15205   1.15447   1.15938   1.16875
 Alpha virt. eigenvalues --    1.17191   1.17514   1.17862   1.18238   1.18730
 Alpha virt. eigenvalues --    1.19373   1.19700   1.20074   1.20624   1.21341
 Alpha virt. eigenvalues --    1.21599   1.22230   1.22755   1.23684   1.23911
 Alpha virt. eigenvalues --    1.24363   1.24926   1.25163   1.26149   1.26820
 Alpha virt. eigenvalues --    1.27335   1.27776   1.28194   1.28677   1.29078
 Alpha virt. eigenvalues --    1.29288   1.30292   1.30747   1.30867   1.31081
 Alpha virt. eigenvalues --    1.31860   1.32308   1.32925   1.33746   1.33931
 Alpha virt. eigenvalues --    1.34606   1.34981   1.35579   1.36654   1.37271
 Alpha virt. eigenvalues --    1.38626   1.39890   1.40081   1.40936   1.41430
 Alpha virt. eigenvalues --    1.41978   1.42281   1.42645   1.43299   1.43835
 Alpha virt. eigenvalues --    1.44434   1.45027   1.45744   1.46463   1.46546
 Alpha virt. eigenvalues --    1.46850   1.48004   1.48199   1.49092   1.49230
 Alpha virt. eigenvalues --    1.49948   1.50290   1.50655   1.51235   1.51871
 Alpha virt. eigenvalues --    1.52038   1.52328   1.52754   1.53343   1.54234
 Alpha virt. eigenvalues --    1.54526   1.54983   1.55470   1.56205   1.56646
 Alpha virt. eigenvalues --    1.56982   1.57219   1.57882   1.58075   1.59015
 Alpha virt. eigenvalues --    1.59148   1.59463   1.59891   1.60129   1.60453
 Alpha virt. eigenvalues --    1.61107   1.61349   1.61824   1.62021   1.62303
 Alpha virt. eigenvalues --    1.62785   1.63273   1.63496   1.63692   1.64227
 Alpha virt. eigenvalues --    1.64551   1.64659   1.65071   1.65606   1.66022
 Alpha virt. eigenvalues --    1.66325   1.66471   1.67217   1.67531   1.67738
 Alpha virt. eigenvalues --    1.67996   1.68138   1.68734   1.69065   1.69586
 Alpha virt. eigenvalues --    1.70532   1.70742   1.71255   1.71708   1.71981
 Alpha virt. eigenvalues --    1.72422   1.73019   1.73619   1.74099   1.74371
 Alpha virt. eigenvalues --    1.74941   1.75547   1.75670   1.75809   1.76349
 Alpha virt. eigenvalues --    1.77533   1.77707   1.78212   1.78822   1.79228
 Alpha virt. eigenvalues --    1.79449   1.80353   1.80743   1.81080   1.82175
 Alpha virt. eigenvalues --    1.82491   1.82612   1.82887   1.83375   1.84363
 Alpha virt. eigenvalues --    1.84785   1.85295   1.85778   1.85899   1.86443
 Alpha virt. eigenvalues --    1.87083   1.87793   1.88039   1.88091   1.88471
 Alpha virt. eigenvalues --    1.89248   1.89815   1.90053   1.90368   1.90759
 Alpha virt. eigenvalues --    1.91227   1.91825   1.92013   1.92599   1.92817
 Alpha virt. eigenvalues --    1.93257   1.93863   1.94497   1.95095   1.95511
 Alpha virt. eigenvalues --    1.95906   1.96208   1.96279   1.96852   1.97195
 Alpha virt. eigenvalues --    1.97904   1.98317   1.99025   1.99985   2.00390
 Alpha virt. eigenvalues --    2.00685   2.01361   2.01858   2.02287   2.03073
 Alpha virt. eigenvalues --    2.03523   2.03942   2.04168   2.04864   2.05254
 Alpha virt. eigenvalues --    2.05476   2.05621   2.06573   2.06791   2.07074
 Alpha virt. eigenvalues --    2.07451   2.08244   2.08510   2.08823   2.09157
 Alpha virt. eigenvalues --    2.09788   2.10346   2.10816   2.10946   2.11299
 Alpha virt. eigenvalues --    2.11906   2.12189   2.12627   2.13330   2.13548
 Alpha virt. eigenvalues --    2.14779   2.15048   2.15118   2.16663   2.17616
 Alpha virt. eigenvalues --    2.17805   2.18108   2.18846   2.19098   2.20034
 Alpha virt. eigenvalues --    2.20445   2.20980   2.21129   2.22155   2.22638
 Alpha virt. eigenvalues --    2.22905   2.23051   2.24134   2.24921   2.25809
 Alpha virt. eigenvalues --    2.26113   2.26379   2.26874   2.27554   2.28507
 Alpha virt. eigenvalues --    2.28754   2.28962   2.29376   2.29850   2.30277
 Alpha virt. eigenvalues --    2.30670   2.30781   2.31470   2.32026   2.32503
 Alpha virt. eigenvalues --    2.33003   2.33448   2.33928   2.34224   2.34440
 Alpha virt. eigenvalues --    2.35124   2.35348   2.36569   2.36804   2.37020
 Alpha virt. eigenvalues --    2.38003   2.38059   2.38704   2.39023   2.39197
 Alpha virt. eigenvalues --    2.39938   2.40588   2.40849   2.41548   2.41942
 Alpha virt. eigenvalues --    2.42616   2.42658   2.43476   2.43808   2.44480
 Alpha virt. eigenvalues --    2.44744   2.45321   2.45689   2.46154   2.46210
 Alpha virt. eigenvalues --    2.46897   2.47349   2.47674   2.48199   2.48613
 Alpha virt. eigenvalues --    2.48850   2.49966   2.50581   2.50656   2.50780
 Alpha virt. eigenvalues --    2.51174   2.51809   2.52058   2.52775   2.53134
 Alpha virt. eigenvalues --    2.53346   2.54004   2.54519   2.54938   2.55470
 Alpha virt. eigenvalues --    2.55685   2.56120   2.56638   2.56805   2.57141
 Alpha virt. eigenvalues --    2.57744   2.57948   2.58791   2.59300   2.59621
 Alpha virt. eigenvalues --    2.60211   2.60310   2.60849   2.60972   2.61689
 Alpha virt. eigenvalues --    2.61837   2.62490   2.62699   2.63160   2.63694
 Alpha virt. eigenvalues --    2.64201   2.64928   2.65396   2.65559   2.65895
 Alpha virt. eigenvalues --    2.66573   2.67085   2.67160   2.67394   2.67786
 Alpha virt. eigenvalues --    2.68227   2.68995   2.69279   2.69463   2.69631
 Alpha virt. eigenvalues --    2.70030   2.70258   2.70525   2.71014   2.71669
 Alpha virt. eigenvalues --    2.72217   2.72508   2.72593   2.73142   2.73635
 Alpha virt. eigenvalues --    2.73950   2.74427   2.75175   2.75938   2.76170
 Alpha virt. eigenvalues --    2.76632   2.77057   2.77895   2.78330   2.78767
 Alpha virt. eigenvalues --    2.79148   2.79315   2.79944   2.80533   2.81160
 Alpha virt. eigenvalues --    2.81718   2.81742   2.81997   2.82935   2.83132
 Alpha virt. eigenvalues --    2.83468   2.83743   2.84345   2.84659   2.85250
 Alpha virt. eigenvalues --    2.85404   2.86281   2.86718   2.87036   2.87307
 Alpha virt. eigenvalues --    2.87495   2.87998   2.88466   2.89382   2.89858
 Alpha virt. eigenvalues --    2.90491   2.90827   2.91703   2.92125   2.92415
 Alpha virt. eigenvalues --    2.92710   2.93464   2.94455   2.95156   2.95549
 Alpha virt. eigenvalues --    2.95829   2.96486   2.96703   2.97228   2.98186
 Alpha virt. eigenvalues --    2.98484   2.98884   2.99108   3.00302   3.00817
 Alpha virt. eigenvalues --    3.00974   3.01341   3.01372   3.02188   3.03132
 Alpha virt. eigenvalues --    3.03832   3.04570   3.05672   3.05927   3.06115
 Alpha virt. eigenvalues --    3.06555   3.07196   3.07897   3.08732   3.08825
 Alpha virt. eigenvalues --    3.09063   3.09454   3.10215   3.11033   3.11463
 Alpha virt. eigenvalues --    3.12075   3.12746   3.13125   3.13508   3.13764
 Alpha virt. eigenvalues --    3.14085   3.14884   3.15270   3.15814   3.16619
 Alpha virt. eigenvalues --    3.17233   3.17461   3.17909   3.18084   3.18696
 Alpha virt. eigenvalues --    3.19017   3.19148   3.20220   3.20585   3.20687
 Alpha virt. eigenvalues --    3.20837   3.21312   3.21803   3.22040   3.22676
 Alpha virt. eigenvalues --    3.22781   3.23211   3.23614   3.23730   3.24225
 Alpha virt. eigenvalues --    3.24666   3.24820   3.25705   3.25833   3.26501
 Alpha virt. eigenvalues --    3.26720   3.27142   3.27474   3.27820   3.27996
 Alpha virt. eigenvalues --    3.28278   3.28559   3.28904   3.29501   3.29985
 Alpha virt. eigenvalues --    3.30795   3.31014   3.31933   3.32181   3.32374
 Alpha virt. eigenvalues --    3.33086   3.33671   3.34175   3.34687   3.35111
 Alpha virt. eigenvalues --    3.35598   3.35768   3.36159   3.36620   3.36984
 Alpha virt. eigenvalues --    3.37149   3.37590   3.37820   3.38508   3.38657
 Alpha virt. eigenvalues --    3.39299   3.39336   3.39727   3.39979   3.40517
 Alpha virt. eigenvalues --    3.40737   3.40956   3.41229   3.42378   3.42413
 Alpha virt. eigenvalues --    3.42537   3.43121   3.43560   3.43754   3.43985
 Alpha virt. eigenvalues --    3.44120   3.44777   3.45230   3.45839   3.46180
 Alpha virt. eigenvalues --    3.46629   3.47198   3.47455   3.47770   3.48310
 Alpha virt. eigenvalues --    3.49024   3.49625   3.50341   3.51307   3.52181
 Alpha virt. eigenvalues --    3.52389   3.52851   3.53233   3.54207   3.55168
 Alpha virt. eigenvalues --    3.55334   3.55587   3.56013   3.57433   3.57556
 Alpha virt. eigenvalues --    3.58741   3.59118   3.59378   3.59909   3.61306
 Alpha virt. eigenvalues --    3.61647   3.61919   3.62952   3.63192   3.63967
 Alpha virt. eigenvalues --    3.64702   3.65509   3.66041   3.67291   3.67779
 Alpha virt. eigenvalues --    3.67982   3.68997   3.70683   3.71463   3.72217
 Alpha virt. eigenvalues --    3.73114   3.74225   3.75296   3.75868   3.77060
 Alpha virt. eigenvalues --    3.77418   3.77614   3.77858   3.78771   3.79510
 Alpha virt. eigenvalues --    3.79826   3.80908   3.81125   3.81453   3.82720
 Alpha virt. eigenvalues --    3.84292   3.84778   3.85441   3.86559   3.86744
 Alpha virt. eigenvalues --    3.87684   3.88607   3.89399   3.89825   3.90825
 Alpha virt. eigenvalues --    3.91554   3.91956   3.92192   3.92932   3.93706
 Alpha virt. eigenvalues --    3.94329   3.94922   3.95748   3.96383   3.96974
 Alpha virt. eigenvalues --    3.97647   3.98137   3.98428   3.98946   4.00272
 Alpha virt. eigenvalues --    4.00350   4.01215   4.02165   4.02497   4.03130
 Alpha virt. eigenvalues --    4.03616   4.05072   4.05907   4.07459   4.08185
 Alpha virt. eigenvalues --    4.09011   4.09576   4.12241   4.12839   4.13473
 Alpha virt. eigenvalues --    4.14765   4.16180   4.16906   4.18393   4.20313
 Alpha virt. eigenvalues --    4.21072   4.22536   4.22925   4.23919   4.24531
 Alpha virt. eigenvalues --    4.25364   4.26137   4.26241   4.28029   4.28502
 Alpha virt. eigenvalues --    4.31510   4.32971   4.33238   4.33731   4.34095
 Alpha virt. eigenvalues --    4.34941   4.36157   4.36850   4.38313   4.38473
 Alpha virt. eigenvalues --    4.39224   4.40857   4.41281   4.41968   4.44316
 Alpha virt. eigenvalues --    4.45354   4.45472   4.47002   4.47871   4.49268
 Alpha virt. eigenvalues --    4.50415   4.51987   4.53845   4.54222   4.55057
 Alpha virt. eigenvalues --    4.57628   4.59138   4.59498   4.60550   4.62237
 Alpha virt. eigenvalues --    4.63449   4.63815   4.63969   4.65027   4.66832
 Alpha virt. eigenvalues --    4.67343   4.69567   4.70159   4.71842   4.73146
 Alpha virt. eigenvalues --    4.74616   4.74815   4.76164   4.76844   4.77637
 Alpha virt. eigenvalues --    4.77952   4.78963   4.79614   4.82706   4.84747
 Alpha virt. eigenvalues --    4.90652   4.92156   4.94377   4.97039   5.00023
 Alpha virt. eigenvalues --    5.16530   5.17760   5.18968   5.20905   5.21573
 Alpha virt. eigenvalues --    5.22060   5.22501   5.22735   5.23960   5.24899
 Alpha virt. eigenvalues --    5.25769   5.26423   5.26498   5.26951   5.27242
 Alpha virt. eigenvalues --    5.27579   5.27976   5.28638   5.29032   5.29630
 Alpha virt. eigenvalues --    5.30657   5.31578   5.31808   5.32585   5.34006
 Alpha virt. eigenvalues --    5.34151   5.35345   5.35484   5.35629   5.36500
 Alpha virt. eigenvalues --    5.37842   5.38878   5.39286   5.39669   5.42092
 Alpha virt. eigenvalues --    5.43750   5.44446   5.44835   5.45519   5.45828
 Alpha virt. eigenvalues --    5.46618   5.46956   5.47310   5.47742   5.47915
 Alpha virt. eigenvalues --    5.48557   5.49508   5.50363   5.51331   5.51429
 Alpha virt. eigenvalues --    5.52233   5.53728   5.55128   5.56035   5.59713
 Alpha virt. eigenvalues --    5.60575   5.62015   5.66040   5.68548   5.70767
 Alpha virt. eigenvalues --    5.71129   5.71737   5.72344   5.72779   5.73073
 Alpha virt. eigenvalues --    5.73348   5.75899   5.76458   5.76956   5.77386
 Alpha virt. eigenvalues --    5.78047   5.78502   5.80915   5.81420   5.82490
 Alpha virt. eigenvalues --    5.82774   5.84648   5.85182   5.85826   5.86929
 Alpha virt. eigenvalues --    5.89038   5.89467   5.89676   5.90022   5.90877
 Alpha virt. eigenvalues --    5.92841   5.95576   5.97951   5.98165   6.00532
 Alpha virt. eigenvalues --    6.01435   6.03957   6.05781   6.06401   6.13205
 Alpha virt. eigenvalues --    6.14556   6.17097   6.17454   6.18463   6.19543
 Alpha virt. eigenvalues --    6.22772   6.24102   6.25790   6.25937   6.26477
 Alpha virt. eigenvalues --    6.27010   6.27469   6.31455   6.34860   6.39898
 Alpha virt. eigenvalues --    6.40726   6.43302   6.44786   6.44973   6.45109
 Alpha virt. eigenvalues --    6.46847   6.47817   6.49669   6.50371   6.52402
 Alpha virt. eigenvalues --    6.53713   6.55574   6.56219   6.57249   6.59029
 Alpha virt. eigenvalues --    6.61179   6.63943   6.64628   6.64964   6.65814
 Alpha virt. eigenvalues --    6.66534   6.66633   6.67521   6.68223   6.70035
 Alpha virt. eigenvalues --    6.72874   6.73239   6.73769   6.74186   6.75401
 Alpha virt. eigenvalues --    6.75920   6.77077   6.77548   6.77741   6.80569
 Alpha virt. eigenvalues --    6.81775   6.83057   6.83496   6.84142   6.87338
 Alpha virt. eigenvalues --    6.88575   6.89019   6.90640   6.92670   6.93052
 Alpha virt. eigenvalues --    6.94674   6.95361   6.96163   6.96481   6.98264
 Alpha virt. eigenvalues --    6.98445   6.99628   7.03454   7.05195   7.06139
 Alpha virt. eigenvalues --    7.06275   7.07180   7.08861   7.10924   7.11568
 Alpha virt. eigenvalues --    7.11800   7.12600   7.13833   7.13974   7.14251
 Alpha virt. eigenvalues --    7.17185   7.21183   7.22295   7.23153   7.24086
 Alpha virt. eigenvalues --    7.26891   7.28591   7.32375   7.34969   7.39084
 Alpha virt. eigenvalues --    7.43074   7.43610  22.39887  22.51429  22.52139
 Alpha virt. eigenvalues --   22.57784  22.60171  22.61101  22.62598  22.62708
 Alpha virt. eigenvalues --   22.64456  22.66255  22.67624  22.70996  22.71430
 Alpha virt. eigenvalues --   22.78768  22.84183  22.96456  23.16253  23.26595
 Alpha virt. eigenvalues --   23.44139  23.62549  43.91508  43.97160  43.99588
 Alpha virt. eigenvalues --   44.00791  44.08320  44.12069  44.12725  44.21390
 Alpha virt. eigenvalues --   44.22930  44.28535  44.32736  44.39030  44.44082
 Alpha virt. eigenvalues --   44.49883  44.56478
          Condensed to atoms (all electrons):
 Mulliken charges:
               1
     1  O   -0.521175
     2  Ti   1.195524
     3  O   -0.325335
     4  O   -0.661906
     5  O   -0.529295
     6  C   -0.058979
     7  C   -0.125159
     8  C   -0.159368
     9  C   -0.124997
    10  O   -0.521764
    11  C   -0.028942
    12  C   -0.163467
    13  O   -0.459548
    14  C   -0.090342
    15  C   -0.082220
    16  O   -0.565548
    17  H    0.186035
    18  H    0.182737
    19  H    0.157608
    20  H    0.165785
    21  H    0.082358
    22  H    0.149974
    23  H    0.147811
    24  H    0.182557
    25  H    0.170821
    26  H    0.126830
    27  H    0.146994
    28  H    0.139043
    29  H    0.137291
    30  O   -0.531723
    31  H    0.383758
    32  H    0.351655
    33  H    0.344269
    34  H    0.438623
    35  O   -0.603706
    36  H    0.397554
    37  C    0.350122
    38  O   -0.648571
    39  C    0.244762
    40  C   -0.291498
    41  C   -0.196010
    42  C    0.088264
    43  H    0.184683
    44  C    0.369878
    45  H    0.178016
    46  O   -0.396652
    47  O   -0.293788
    48  H    0.153903
    49  H    0.150036
    50  H    0.157420
    51  O   -0.529617
    52  C   -0.089450
    53  C   -0.111919
    54  O   -0.539626
    55  H    0.424985
    56  H    0.164223
    57  H    0.167929
    58  H    0.371926
    59  H    0.152830
    60  H    0.153149
    61  C   -0.138635
    62  H    0.160254
    63  H    0.155489
    64  C   -0.077073
    65  H    0.142967
    66  H    0.146110
    67  O   -0.516663
    68  H    0.345320
    69  C   -0.198320
    70  C   -0.153780
    71  H    0.169611
    72  H    0.215970
 Sum of Mulliken charges =  -0.00000
 Mulliken charges with hydrogens summed into heavy atoms:
               1
     1  O   -0.096190
     2  Ti   1.195524
     3  O   -0.325335
     4  O   -0.661906
     5  O   -0.529295
     6  C    0.214845
     7  C    0.151175
     8  C    0.209404
     9  C    0.198396
    10  O   -0.177496
    11  C    0.268842
    12  C    0.189911
    13  O   -0.020925
    14  C    0.220981
    15  C    0.150174
    16  O   -0.181790
    30  O   -0.180068
    35  O   -0.603706
    37  C    0.350122
    38  O   -0.251018
    39  C    0.244762
    40  C   -0.106814
    41  C   -0.017994
    42  C    0.088264
    44  C    0.369878
    46  O   -0.396652
    47  O   -0.293788
    51  O   -0.529617
    52  C    0.216529
    53  C    0.220233
    54  O   -0.167699
    61  C    0.177108
    64  C    0.212003
    67  O   -0.171342
    69  C    0.017651
    70  C    0.015832
 Electronic spatial extent (au):  <R**2>=          21798.8387
 Charge=             -0.0000 electrons
 Dipole moment (field-independent basis, Debye):
    X=              2.5379    Y=              3.4663    Z=              9.8212  Tot=             10.7197
 Quadrupole moment (field-independent basis, Debye-Ang):
   XX=           -198.9118   YY=           -236.0834   ZZ=           -215.4978
   XY=              1.4699   XZ=            -21.2451   YZ=             -7.0775
 Traceless Quadrupole moment (field-independent basis, Debye-Ang):
   XX=             17.9192   YY=            -19.2524   ZZ=              1.3332
   XY=              1.4699   XZ=            -21.2451   YZ=             -7.0775
 Octapole moment (field-independent basis, Debye-Ang**2):
  XXX=             91.5647  YYY=             -2.3064  ZZZ=            362.9883  XYY=             43.0648
  XXY=            -27.7381  XXZ=             94.9872  XZZ=            101.4317  YZZ=            -12.0725
  YYZ=             59.7683  XYZ=             -2.9010
 Hexadecapole moment (field-independent basis, Debye-Ang**3):
 XXXX=         -13764.5882 YYYY=          -4460.4974 ZZZZ=          -9607.6781 XXXY=            172.8133
 XXXZ=          -4406.2813 YYYX=           -304.3559 YYYZ=           -771.0774 ZZZX=          -4070.6963
 ZZZY=           -583.4582 XXYY=          -2734.4783 XXZZ=          -4699.3732 YYZZ=          -2175.3500
 XXYZ=           -105.6576 YYXZ=          -1000.6795 ZZXY=           -234.2824
 N-N= 5.208321998343D+03 E-N=-1.691340831959D+04  KE= 2.752205997038D+03
   1 Symmetry operations used in ECPInt.
 ECPInt:  NShTT=  148240 NPrTT=  454565 LenC2=  111314 LenP2D=  226116.
 LDataN:  DoStor=T MaxTD1= 7 Len=  274
 D1PCM: PCM CHGder 1st derivatives, ID1Alg=3 FixD1E=F DoIter=F DoCFld=F I1PDM=0.
 Calling FoFJK, ICntrl=      2127 FMM=T ISym2X=0 I1Cent= 0 IOpClX= 0 NMat=1 NMatS=1 NMatT=0.
 -------------------------------------------------------------------
 Center     Atomic                   Forces (Hartrees/Bohr)
 Number     Number              X              Y              Z
 -------------------------------------------------------------------
      1        8           0.000000594    0.000004835   -0.000007064
      2       22          -0.000007047   -0.000000964   -0.000006399
      3        8           0.000000513   -0.000008331   -0.000001482
      4        8           0.000001831    0.000002692   -0.000002475
      5        8           0.000005894   -0.000000235    0.000009340
      6        6          -0.000000203   -0.000001193   -0.000006654
      7        6          -0.000000713   -0.000000976    0.000003342
      8        6           0.000001912   -0.000003885   -0.000003238
      9        6          -0.000000689    0.000000849    0.000000446
     10        8          -0.000000720   -0.000003691    0.000000151
     11        6          -0.000002695   -0.000001154    0.000000830
     12        6           0.000000259    0.000000626    0.000000183
     13        8          -0.000002137   -0.000003955   -0.000000339
     14        6           0.000001106    0.000002780   -0.000001896
     15        6          -0.000001950   -0.000002148    0.000001301
     16        8           0.000002015    0.000001840    0.000003571
     17        1          -0.000001262    0.000000367    0.000001340
     18        1          -0.000000291   -0.000000523    0.000000725
     19        1          -0.000000660    0.000000300   -0.000000224
     20        1           0.000000235    0.000000752    0.000000554
     21        1          -0.000001413   -0.000002094    0.000000579
     22        1           0.000000370   -0.000000383    0.000000905
     23        1          -0.000000205    0.000000676   -0.000000282
     24        1          -0.000002980   -0.000000271    0.000000335
     25        1           0.000000364    0.000000451    0.000002495
     26        1          -0.000001632    0.000003006   -0.000000494
     27        1          -0.000001718   -0.000001817    0.000001714
     28        1          -0.000001815   -0.000002102   -0.000000593
     29        1          -0.000000469    0.000001382   -0.000001068
     30        8           0.000005093   -0.000001450   -0.000010621
     31        1          -0.000001604   -0.000000922   -0.000000853
     32        1          -0.000001783    0.000001034    0.000007025
     33        1           0.000000517    0.000002668    0.000001470
     34        1           0.000000572    0.000004497    0.000000164
     35        8           0.000016728    0.000006750    0.000026633
     36        1           0.000000908    0.000003908    0.000000830
     37        6           0.001270371    0.004246944   -0.009387979
     38        8          -0.001273720   -0.004253001    0.009391588
     39        6          -0.000000791    0.000000718   -0.000001072
     40        6           0.000000197    0.000000044    0.000001772
     41        6           0.000000400   -0.000000457   -0.000001563
     42        6           0.000000113    0.000000040   -0.000000635
     43        1           0.000000558   -0.000000562   -0.000000143
     44        6           0.000000397   -0.000000271    0.000001265
     45        1           0.000000527   -0.000000237   -0.000000895
     46        8           0.000000606    0.000000018   -0.000001752
     47        8           0.000000303   -0.000000101   -0.000000892
     48        1           0.000000800   -0.000001529    0.000000365
     49        1           0.000000433    0.000000080    0.000000996
     50        1           0.000000297   -0.000000564    0.000000627
     51        8          -0.000003829   -0.000003494   -0.000001457
     52        6          -0.000000356    0.000001849    0.000002764
     53        6          -0.000000793    0.000003145   -0.000000571
     54        8          -0.000001608   -0.000000947    0.000005044
     55        1          -0.000006796    0.000003242   -0.000007826
     56        1           0.000000267    0.000000720   -0.000001153
     57        1          -0.000000584   -0.000000825    0.000000645
     58        1           0.000000853    0.000002953   -0.000004554
     59        1           0.000000316    0.000000089   -0.000000885
     60        1          -0.000000706    0.000000452    0.000000086
     61        6           0.000000016   -0.000000647    0.000000204
     62        1           0.000001191    0.000001114   -0.000001250
     63        1           0.000000071   -0.000001103   -0.000001942
     64        6           0.000000168   -0.000000042   -0.000001091
     65        1           0.000001956    0.000001122   -0.000001547
     66        1          -0.000000139    0.000000358    0.000000419
     67        8           0.000002095   -0.000002755   -0.000003174
     68        1          -0.000000620    0.000001403   -0.000000124
     69        6           0.000000101    0.000000493   -0.000002559
     70        6           0.000001044   -0.000000399   -0.000000746
     71        1           0.000000536   -0.000000073   -0.000000880
     72        1          -0.000000597   -0.000001091   -0.000001335
 -------------------------------------------------------------------
 Cartesian Forces:  Max     0.009391588 RMS     0.000999303

 GradGradGradGradGradGradGradGradGradGradGradGradGradGradGradGradGradGrad
 Berny optimization.
 FormGI is forming the generalized inverse of G from B-inverse, IUseBI=4.
 Internal  Forces:  Max     0.010128774 RMS     0.000525437
 Search for a saddle point.
 Step number   1 out of a maximum of  200
 All quantities printed in internal units (Hartrees-Bohrs-Radians)
 Swapping is turned off.
 Second derivative matrix not updated -- first step.
 ITU=  0
     Eigenvalues ---   -0.01724  -0.00182   0.00154   0.00166   0.00202
     Eigenvalues ---    0.00232   0.00282   0.00282   0.00295   0.00315
     Eigenvalues ---    0.00326   0.00364   0.00389   0.00449   0.00518
     Eigenvalues ---    0.00535   0.00556   0.00599   0.00632   0.00663
     Eigenvalues ---    0.00765   0.00932   0.01114   0.01308   0.01638
     Eigenvalues ---    0.01700   0.01787   0.01859   0.02032   0.02117
     Eigenvalues ---    0.02151   0.02225   0.02288   0.02456   0.02549
     Eigenvalues ---    0.02705   0.02759   0.02802   0.02866   0.02923
     Eigenvalues ---    0.03478   0.03925   0.04088   0.04215   0.04430
     Eigenvalues ---    0.04495   0.04568   0.04573   0.04714   0.04760
     Eigenvalues ---    0.04785   0.04787   0.04805   0.04852   0.04878
     Eigenvalues ---    0.04911   0.05011   0.05155   0.05323   0.05388
     Eigenvalues ---    0.05478   0.05525   0.05980   0.06121   0.06255
[...]
   D40       -3.06751   0.00048   0.00000  -0.01434  -0.01502  -3.08253
   D41        0.59007  -0.00044   0.00000   0.00405   0.00405   0.59412
   D42       -1.42585   0.00207   0.00000   0.00122   0.00215  -1.42369
   D43        2.69624   0.00006   0.00000  -0.05720  -0.05730   2.63894
   D44       -0.34453   0.00055   0.00000  -0.05041  -0.05040  -0.39493
   D45        1.32276  -0.00005   0.00000  -0.03910  -0.03928   1.28348
   D46       -2.03286  -0.00774   0.00000  -0.11220  -0.11220  -2.14506
   D47        0.96632  -0.00277   0.00000   0.04247   0.04247   1.00879
   D48       -1.17722  -0.00083   0.00000   0.03996   0.03996  -1.13725
   D49        3.07080  -0.00245   0.00000   0.04125   0.04125   3.11204
   D50        0.65016   0.00359   0.00000  -0.02331  -0.02344   0.62672
   D51        2.88301   0.00090   0.00000  -0.00989  -0.00976   2.87324
   D52       -0.81622  -0.00083   0.00000   0.00707   0.00706  -0.80915
   D53        1.26849  -0.00044   0.00000   0.00679   0.00678   1.27527
   D54       -2.91586  -0.00028   0.00000   0.00712   0.00715  -2.90871
   D55       -1.37271   0.00007   0.00000   0.09312   0.09313  -1.27957
   D56        0.72557   0.00020   0.00000   0.09716   0.09715   0.82272
   D57        2.80507   0.00005   0.00000   0.09702   0.09701   2.90208
   D58        1.04396  -0.00020   0.00000   0.05714   0.05714   1.10110
   D59       -1.02051  -0.00023   0.00000   0.05610   0.05611  -0.96440
   D60       -3.08078  -0.00032   0.00000   0.05501   0.05502  -3.02576
   D61       -1.06354  -0.00016   0.00000   0.05609   0.05608  -1.00746
   D62       -3.12801  -0.00019   0.00000   0.05505   0.05505  -3.07296
   D63        1.09490  -0.00028   0.00000   0.05396   0.05396   1.14886
   D64       -3.13287  -0.00002   0.00000   0.06017   0.06016  -3.07271
   D65        1.08584  -0.00006   0.00000   0.05913   0.05913   1.14497
   D66       -0.97443  -0.00015   0.00000   0.05805   0.05804  -0.91639
   D67       -1.11980  -0.00036   0.00000   0.01738   0.01738  -1.10243
   D68        1.01299  -0.00008   0.00000   0.02313   0.02313   1.03612
   D69        3.07345  -0.00022   0.00000   0.02334   0.02334   3.09679
   D70        3.11922   0.00009   0.00000   0.07343   0.07343  -3.09053
   D71       -0.99906   0.00015   0.00000   0.07368   0.07367  -0.92539
   D72        1.06052  -0.00003   0.00000   0.06909   0.06908   1.12960
   D73        0.99164   0.00001   0.00000   0.07214   0.07215   1.06379
   D74       -3.12664   0.00008   0.00000   0.07239   0.07239  -3.05425
   D75       -1.06706  -0.00010   0.00000   0.06780   0.06780  -0.99926
   D76       -1.06000  -0.00032   0.00000   0.06957   0.06958  -0.99042
   D77        1.10490  -0.00026   0.00000   0.06982   0.06983   1.17473
   D78       -3.11871  -0.00044   0.00000   0.06523   0.06523  -3.05348
   D79        1.24898  -0.00022   0.00000   0.03618   0.03618   1.28516
   D80       -0.89500  -0.00023   0.00000   0.04156   0.04156  -0.85345
   D81       -2.94783  -0.00014   0.00000   0.04206   0.04206  -2.90577
   D82        0.75808   0.00029   0.00000  -0.01889  -0.01882   0.73927
   D83        2.86702   0.00031   0.00000  -0.02337  -0.02333   2.84368
   D84       -1.27056   0.00029   0.00000  -0.02061  -0.02057  -1.29112
   D85       -1.33386   0.00002   0.00000  -0.01892  -0.01888  -1.35274
   D86        0.77507   0.00004   0.00000  -0.02340  -0.02340   0.75167
   D87        2.92068   0.00003   0.00000  -0.02064  -0.02063   2.90005
   D88        2.86994  -0.00000   0.00000  -0.01835  -0.01833   2.85161
   D89       -1.30431   0.00001   0.00000  -0.02284  -0.02285  -1.32716
   D90        0.84130   0.00000   0.00000  -0.02008  -0.02008   0.82122
   D91       -0.40962   0.00030   0.00000   0.00764   0.00770  -0.40192
   D92        1.65208   0.00010   0.00000   0.01205   0.01197   1.66406
   D93       -2.55514   0.00018   0.00000   0.01214   0.01222  -2.54292
   D94       -0.49343  -0.00002   0.00000   0.01655   0.01650  -0.47694
   D95        1.66675   0.00026   0.00000   0.01108   0.01115   1.67790
   D96       -2.55473   0.00006   0.00000   0.01549   0.01542  -2.53931
   D97        0.81648  -0.00129   0.00000  -0.00922  -0.00923   0.80725
   D98       -1.29680   0.00001   0.00000  -0.01360  -0.01360  -1.31040
   D99        2.92555  -0.00028   0.00000  -0.01228  -0.01227   2.91328
   D100       2.97884  -0.00193   0.00000  -0.01110  -0.01110   2.96774
   D101       0.86556  -0.00063   0.00000  -0.01547  -0.01547   0.85009
   D102      -1.19527  -0.00092   0.00000  -0.01415  -0.01415  -1.20942
   D103      -1.22787  -0.00045   0.00000  -0.00938  -0.00938  -1.23726
   D104       2.94204   0.00085   0.00000  -0.01376  -0.01376   2.92828
   D105       0.88120   0.00056   0.00000  -0.01243  -0.01243   0.86877
   D106      -2.60785   0.00082   0.00000   0.00329   0.00329  -2.60456
   D107      -0.48049  -0.00048   0.00000   0.00504   0.00504  -0.47545
   D108       1.59360   0.00035   0.00000   0.00808   0.00808   1.60169
   D109      -2.03704   0.01662   0.00000   0.02246   0.02245  -2.01459
   D110       2.07834   0.01299   0.00000  -0.00256  -0.00256   2.07578
   D111       0.69000  -0.00222   0.00000  -0.21167  -0.21165   0.47835
   D112      -2.49040  -0.00216   0.00000  -0.23828  -0.23826  -2.72866
   D113       2.92169   0.00243   0.00000  -0.18571  -0.18573   2.73596
   D114      -0.25870   0.00248   0.00000  -0.21232  -0.21234  -0.47104
   D115       3.10559   0.00006   0.00000  -0.01970  -0.01995   3.08564
   D116      -0.03399  -0.00005   0.00000  -0.02895  -0.02915  -0.06314
   D117       0.00257   0.00006   0.00000   0.00716   0.00717   0.00975
   D118      -3.13701  -0.00005   0.00000  -0.00209  -0.00203  -3.13904
   D119      -3.10195  -0.00013   0.00000   0.02041   0.02016  -3.08179
   D120       0.04000  -0.00004   0.00000   0.03230   0.03209   0.07209
   D121       0.00088  -0.00001   0.00000  -0.00579  -0.00577  -0.00489
   D122      -3.14036   0.00008   0.00000   0.00609   0.00616  -3.13420
   D123      -0.00461  -0.00006   0.00000  -0.00355  -0.00359  -0.00820
   D124      -3.13499  -0.00023   0.00000  -0.00939  -0.00941   3.13879
   D125       3.13500   0.00005   0.00000   0.00560   0.00552   3.14051
   D126       0.00462  -0.00013   0.00000  -0.00025  -0.00031   0.00431
   D127      -3.13755  -0.00003   0.00000  -0.00433  -0.00431   3.14132
   D128      -0.00765   0.00016   0.00000   0.00179   0.00177  -0.00588
   D129       0.00317  -0.00000   0.00000  -0.00146  -0.00145   0.00172
   D130       3.13308   0.00019   0.00000   0.00465   0.00463   3.13771
   D131       0.00028   0.00005   0.00000   0.00285   0.00287   0.00315
   D132      -3.14116  -0.00005   0.00000  -0.00189  -0.00191   3.14012
   D133       3.14100   0.00009   0.00000   0.00573   0.00575  -3.13643
   D134      -0.00043  -0.00002   0.00000   0.00099   0.00097   0.00053
   D135      -0.00080  -0.00002   0.00000   0.03952   0.03950   0.03870
   D136       3.13505   0.00030   0.00000   0.04500   0.04499  -3.10315
   D137      -3.13097  -0.00020   0.00000   0.03353   0.03355  -3.09741
   D138       0.00489   0.00012   0.00000   0.03902   0.03904   0.04392
   D139      -3.13658  -0.00025   0.00000  -0.00100  -0.00100  -3.13758
   D140      -0.00064   0.00006   0.00000   0.00440   0.00440   0.00376
   D141      -1.06892   0.00012   0.00000  -0.02301  -0.02301  -1.09193
   D142       1.01475   0.00026   0.00000  -0.02222  -0.02222   0.99254
   D143       3.11775   0.00030   0.00000  -0.02095  -0.02095   3.09680
   D144      -1.72005   0.00048   0.00000  -0.01743  -0.01743  -1.73748
   D145       0.39483  -0.00007   0.00000  -0.01679  -0.01679   0.37804
   D146       2.47386   0.00044   0.00000  -0.01659  -0.01659   2.45727
   D147       1.12584  -0.00061   0.00000   0.01850   0.01850   1.14433
   D148      -0.92171  -0.00036   0.00000   0.01454   0.01454  -0.90716
   D149      -3.02033  -0.00036   0.00000   0.01883   0.01883  -3.00150
   D150      -0.99074  -0.00016   0.00000   0.01807   0.01807  -0.97267
   D151      -3.03829   0.00009   0.00000   0.01412   0.01412  -3.02417
   D152       1.14627   0.00008   0.00000   0.01841   0.01841   1.16468
   D153      -3.05634  -0.00043   0.00000   0.01769   0.01769  -3.03865
   D154       1.17930  -0.00017   0.00000   0.01373   0.01373   1.19304
   D155      -0.91933  -0.00018   0.00000   0.01803   0.01802  -0.90130
   D156       1.46714  -0.00031   0.00000   0.18325   0.18325   1.65039
   D157      -2.72690  -0.00066   0.00000   0.18290   0.18289  -2.54401
   D158      -0.67643  -0.00032   0.00000   0.18437   0.18438  -0.49205
   D159      -1.06300   0.00003   0.00000   0.00482   0.00482  -1.05817
   D160      -3.12830   0.00002   0.00000   0.00518   0.00518  -3.12311
   D161       1.09371   0.00005   0.00000   0.00561   0.00561   1.09932
   D162      -3.13275   0.00008   0.00000   0.00569   0.00569  -3.12706
   D163       1.08514   0.00006   0.00000   0.00604   0.00604   1.09118
   D164      -0.97604   0.00009   0.00000   0.00647   0.00647  -0.96957
   D165       1.01893   0.00006   0.00000   0.00625   0.00625   1.02518
   D166      -1.04637   0.00005   0.00000   0.00661   0.00661  -1.03976
   D167      -3.10754   0.00008   0.00000   0.00703   0.00703  -3.10051
   D168      -1.08159   0.00006   0.00000  -0.06007  -0.06007  -1.14165
   D169       1.06197   0.00008   0.00000  -0.05997  -0.05997   1.00200
   D170       3.12150   0.00011   0.00000  -0.06016  -0.06016   3.06134
   D171      -0.00231  -0.00005   0.00000   0.00078   0.00073  -0.00158
   D172       3.13913   0.00006   0.00000   0.00551   0.00551  -3.13855
   D173       3.13892  -0.00014   0.00000  -0.01132  -0.01142   3.12750
   D174      -0.00283  -0.00004   0.00000  -0.00659  -0.00664  -0.00947
         Item               Value     Threshold  Converged?
 Maximum Force            0.030062     0.000450     NO 
 RMS     Force            0.003053     0.000300     NO 
 Maximum Displacement     1.004538     0.001800     NO 
 RMS     Displacement     0.197986     0.001200     NO 
 Predicted change in Energy=-4.081046D-03
 GradGradGradGradGradGradGradGradGradGradGradGradGradGradGradGradGradGrad

 Symmetry turned off by external request.
 Stoichiometry    C20H36O15Ti
 Framework group  C1[X(C20H36O15Ti)]
 Deg. of freedom   210
 Full point group                 C1      NOp   1
                          Input orientation:                          
 ---------------------------------------------------------------------
 Center     Atomic      Atomic             Coordinates (Angstroms)
 Number     Number       Type             X           Y           Z
 ---------------------------------------------------------------------
      1          8           0        2.596071    0.768223    0.361584
      2         22           0        1.093328   -0.139033    1.392475
      3          8           0        0.895630   -1.366209   -2.614315
      4          8           0        2.252499   -1.680604    1.609444
      5          8           0        0.252458    1.475684    1.226227
      6          6           0        0.585134    2.822065    1.068390
      7          6           0        1.134340    3.391241    2.366815
      8          6           0        3.994535    0.674610    0.402438
      9          6           0        4.557574    1.832556    1.211466
     10          8           0        5.973740    1.820009    1.226613
     11          6           0        2.655205   -1.975669    2.919967
     12          6           0        3.101935   -0.676361    3.562575
     13          8           0        2.149701    0.335849    3.180858
     14          6           0        2.248513   -1.790479   -2.761469
     15          6           0        2.951943   -2.167439   -1.468841
     16          8           0        2.119061   -3.006329   -0.674375
     17          1           0        4.307573   -0.278770    0.843596
     18          1           0        4.402195    0.716918   -0.616101
     19          1           0        4.163726    2.773625    0.812291
     20          1           0        4.229732    1.748940    2.249045
     21          1           0        3.214833   -1.274477   -0.901365
     22          1           0        1.817779   -2.399107    3.489135
     23          1           0        3.477698   -2.696836    2.926115
     24          1           0        3.151506   -0.737497    4.649455
     25          1           0        4.070061   -0.359617    3.176299
     26          1           0        1.342190    2.927435    0.280046
     27          1           0       -0.302607    3.392256    0.774678
     28          1           0        2.060813    2.872316    2.629095
     29          1           0        0.410783    3.224030    3.166660
     30          8           0        1.337432    4.790083    2.276644
     31          1           0        2.343570   -2.820596    0.260620
     32          1           0        2.004462    4.958657    1.602548
     33          1           0        6.293617    2.102963    0.363946
     34          1           0        1.462219    0.429767    3.896504
     35          8           0        1.564888    0.670633   -1.808991
     36          1           0        0.943418   -1.898252   -0.486043
     37          6           0        0.642638   -0.278700   -1.788094
     38          8           0        0.602647   -0.971143   -0.424986
     39          6           0       -0.763861    0.217531   -2.083580
     40          6           0       -1.735714   -0.646463   -2.566391
     41          6           0       -3.365432    1.132051   -2.476379
     42          6           0       -3.032932   -0.189831   -2.767331
     43          1           0       -1.491879   -1.674823   -2.795431
     44          6           0       -4.038898   -1.155167   -3.290595
     45          1           0       -4.375772    1.481802   -2.634829
     46          8           0       -3.811279   -2.318071   -3.515664
     47          8           0       -5.235515   -0.599007   -3.488879
     48          1           0        2.831982   -1.013588   -3.258826
     49          1           0        3.876100   -2.687932   -1.733732
     50          1           0        2.182968   -2.657197   -3.417209
     51          8           0       -0.251348   -0.862999    2.390117
     52          6           0       -1.275531   -0.358400    3.198557
     53          6           0       -0.885059   -0.437728    4.659111
     54          8           0        0.225361    0.419739    4.956229
     55          1           0        2.083886    0.770695   -0.776561
     56          1           0       -0.561470   -1.450167    4.900639
     57          1           0       -1.733428   -0.178375    5.293400
     58          1           0       -0.090710    1.268293    5.282103
     59          1           0       -1.485669    0.683877    2.927338
     60          1           0       -2.187074   -0.945822    3.048885
     61          6           0       -6.268498   -1.460014   -3.988281
     62          1           0       -5.978260   -1.826715   -4.973576
     63          1           0       -6.395701   -2.306741   -3.313052
     64          6           0       -7.521405   -0.624563   -4.064872
     65          1           0       -7.780525   -0.258486   -3.066936
     66          1           0       -8.339688   -1.248034   -4.423640
     67          8           0       -7.385630    0.446476   -4.978955
     68          1           0       -6.714270    1.047550   -4.638056
     69          6           0       -1.095364    1.532993   -1.792148
     70          6           0       -2.393538    1.989316   -1.987149
     71          1           0       -2.644029    3.017113   -1.760368
     72          1           0       -0.325842    2.196988   -1.423029
 ---------------------------------------------------------------------
 Rotational constants (GHZ):           0.1538801           0.0544865           0.0510902
 Standard basis: def2TZVP (5D, 7F)
  1346 basis functions,  2175 primitive gaussians,  1528 cartesian basis functions
   149 alpha electrons      149 beta electrons
       nuclear repulsion energy      5212.8986134098 Hartrees.
 NAtoms=   72 NActive=   72 NUniq=   72 SFac= 1.00D+00 NAtFMM=   60 NAOKFM=T Big=T
 Integral buffers will be    131072 words long.
 Raffenetti 2 integral format.
 Two-electron integral symmetry is turned off.
 ------------------------------------------------------------------------------
 Polarizable Continuum Model (PCM)
 =================================
 Model                : PCM.
 Atomic radii         : UFF (Universal Force Field).
 Polarization charges : Total charges.
 Charge compensation  : None.
 Solution method      : On-the-fly selection.
 Cavity type          : Scaled VdW (van der Waals Surface) (Alpha=1.100).
 Cavity algorithm     : GePol (No added spheres)
                        Default sphere list used, NSphG=   72.
                        Lebedev-Laikov grids with approx.  7.0 points / Ang**2.
                        Smoothing algorithm: York/Karplus (Gamma=1.0000).
                        Polarization charges: spherical gaussians, with
                                              point-specific exponents (IZeta= 3).
                        Self-potential: point-specific (ISelfS= 7).
                        Self-field    : sphere-specific E.n sum rule (ISelfD= 2).
 1st derivatives      : Analytical E(r).r(x)/FMM algorithm (CHGder, D1EAlg=3).
                        Cavity 1st derivative terms included.
 Solvent              : 1,2-EthaneDiol, Eps=  40.245000 Eps(inf)=   2.050051
 ------------------------------------------------------------------------------
 One-electron integrals computed using PRISM.
   1 Symmetry operations used in ECPInt.
 ECPInt:  NShTT=  148240 NPrTT=  454565 LenC2=  110871 LenP2D=  225528.
 LDataN:  DoStor=T MaxTD1= 6 Len=  172
 NBasis=  1346 RedAO= T EigKep=  6.02D-06  NBF=  1346
 NBsUse=  1346 1.00D-06 EigRej= -1.00D+00 NBFU=  1346
 Initial guess from the checkpoint file:  "/dev/shm/ti_eg5_mipa_tsa_ircr_opt_tsa_ts_ircf_opt_tsa_ts.chk"
 B after Tr=    -0.013944   -0.007204   -0.010418
         Rot=    0.999998    0.001333    0.000804    0.001124 Ang=   0.22 deg.
 ExpMin= 3.27D-02 ExpMax= 2.12D+05 ExpMxC= 2.04D+03 IAcc=3 IRadAn=         5 AccDes= 0.00D+00
 Harris functional with IExCor= 1009 and IRadAn=       5 diagonalized for initial guess.
 HarFok:  IExCor= 1009 AccDes= 0.00D+00 IRadAn=         5 IDoV= 1 UseB2=F ITyADJ=14
 ICtDFT=  3500011 ScaDFX=  1.000000  1.000000  1.000000  1.000000
 FoFCou: FMM=F IPFlag=           0 FMFlag=      100000 FMFlg1=        2001
         NFxFlg=           0 DoJE=T BraDBF=F KetDBF=T FulRan=T
         wScrn=  0.000000 ICntrl=       500 IOpCl=  0 I1Cent=   200000004 NGrid=           0
         NMat0=    1 NMatS0=      1 NMatT0=    0 NMatD0=    1 NMtDS0=    0 NMtDT0=    0
 Symmetry not used in FoFCou.
 Requested convergence on RMS density matrix=1.00D-08 within 400 cycles.
 Requested convergence on MAX density matrix=1.00D-06.
 Requested convergence on             energy=1.00D-06.
 No special actions if energy rises.
 Inv3:  Mode=1 IEnd=   144241068.
 Iteration    1 A*A^-1 deviation from unit magnitude is 3.66D-15 for   6773.
 Iteration    1 A*A^-1 deviation from orthogonality  is 2.39D-15 for   2326    109.
 Iteration    1 A^-1*A deviation from unit magnitude is 3.89D-15 for   6773.
 Iteration    1 A^-1*A deviation from orthogonality  is 3.78D-14 for   3957   3914.
 Error on total polarization charges =  0.01807
 SCF Done:  E(RM062X) =  -2761.83042062     A.U. after   13 cycles
            NFock= 13  Conv=0.36D-08     -V/T= 2.0035
 QCSCF skips out because SCF is already converged.
   1 Symmetry operations used in ECPInt.
 ECPInt:  NShTT=  148240 NPrTT=  454565 LenC2=  110871 LenP2D=  225528.
 LDataN:  DoStor=T MaxTD1= 7 Len=  274
 D1PCM: PCM CHGder 1st derivatives, ID1Alg=3 FixD1E=F DoIter=F DoCFld=F I1PDM=0.
 Calling FoFJK, ICntrl=      2127 FMM=T ISym2X=0 I1Cent= 0 IOpClX= 0 NMat=1 NMatS=1 NMatT=0.
