 Entering Gaussian System, Link 0=g16
 Initial command:
 /nopt/nrel/apps/gaussian/g16B/g16/l1.exe "/dev/shm/Gau-176503.inp" -scrdir="/dev/shm/"
 Default is to use a total of  36 processors:
                               36 via shared-memory
                                1 via Linda
 Entering Link 1 = /nopt/nrel/apps/gaussian/g16B/g16/l1.exe PID=    176504.
  
 Copyright (c) 1988-2017, Gaussian, Inc.  All Rights Reserved.

 ******************************************
 Gaussian 16:  ES64L-G16RevB.01 20-Dec-2017
                29-Sep-2019 
 ******************************************
 %RWF=/dev/shm/,5GB,/tmp/scratch/1475323/,-1
 %NoSave
 %OldChk=acetic_acid_1.chk
 %Chk=/dev/shm/acetic_acid_1_w.chk
 Copying data from "acetic_acid_1.chk" to current chk file "/dev/shm/acetic_acid_1_w.chk"
 IOpt=  2 FromEx=T IUOpen= 4 IOptOp= 5 NList=   0 IFRang= 0 IUIn= 4 IUOut= 2.
 Default route: CacheSize=180224 MaxDisk=256GB
 ----------------------------------------------------------------------
 # m062x/Def2TZVP nosymm scf=xqc opt freq=NoRaman CPHF=Grid=Fine SCRF=(
 Solvent=Water,Read) guess=read geom=allcheck
 ----------------------------------------------------------------------
 1/4=180224,18=20,19=15,26=3,29=7,38=1,40=2/1,3;
 2/4=180224,9=110,12=2,15=1,40=1/2;
 3/4=180224,5=44,7=101,11=2,14=-4,25=1,30=1,70=2203,71=1,72=1,74=-55,116=-2/1,2,3;
 4/4=180224,5=1/1;
 5/4=180224,5=2,8=3,13=1,38=6,53=1/2,8;
 6/4=180224,7=2,8=2,9=2,10=2,28=1/1;
 7/4=180224,30=1/1,2,3,16;
 1/4=180224,18=20,19=15,26=3/3(2);
 2/4=180224,9=110,15=1/2;
 99/4=180224/99;
 2/4=180224,9=110,15=1/2;
 3/4=180224,5=44,7=101,11=2,14=-2,25=1,30=1,70=2205,71=1,72=1,74=-55/1,2,3;
 4/4=180224,5=5,16=3,69=1/1;
 5/4=180224,5=2,8=3,13=1,38=5,53=1/2,8;
 7/4=180224,30=1/1,2,3,16;
 1/4=180224,18=20,19=15,26=3/3(-5);
 2/4=180224,9=110,15=1/2;
 6/4=180224,7=2,8=2,9=2,10=2,19=2,28=1/1;
 99/4=180224,9=1/99;
 Structure from the checkpoint file:  "/dev/shm/acetic_acid_1_w.chk"
 ----------------------------------------------------------------------
 obabel acetic_acid_0.pdb -O acetic_acid.pdb --confab --conf10000 --ori
 ginal
 ----------------------------------------------------------------------
 Charge =  0 Multiplicity = 1
 Redundant internal coordinates found in file.  (old form).
 C,0,-0.7485718175,0.7062460758,-0.167967305
 O,0,0.4514496996,0.7819417686,-0.1779310837
 C,0,-1.5467558853,-0.5526397579,0.0118610329
 H,0,-2.2008472512,-0.4488153483,0.8876179116
 H,0,-2.1900930914,-0.705185494,-0.8648052532
 H,0,-0.8703183426,-1.4021967349,0.1399948962
 O,0,-1.5356999919,1.779026324,-0.3229110353
 H,0,-0.9611633197,2.5536231667,-0.4348591635
 Recover connectivity data from disk.

 GradGradGradGradGradGradGradGradGradGradGradGradGradGradGradGradGradGrad
 Berny optimization.
 Initialization pass.
                           ----------------------------
                           !    Initial Parameters    !
                           ! (Angstroms and Degrees)  !
 --------------------------                            --------------------------
 ! Name  Definition              Value          Derivative Info.                !
 --------------------------------------------------------------------------------
 ! R1    R(1,2)                  1.2024         estimate D2E/DX2                !
 ! R2    R(1,3)                  1.5014         estimate D2E/DX2                !
 ! R3    R(1,7)                  1.3396         estimate D2E/DX2                !
 ! R4    R(3,4)                  1.098          estimate D2E/DX2                !
 ! R5    R(3,5)                  1.098          estimate D2E/DX2                !
 ! R6    R(3,6)                  1.0935         estimate D2E/DX2                !
 ! R7    R(7,8)                  0.9709         estimate D2E/DX2                !
 ! A1    A(2,1,3)              125.7554         estimate D2E/DX2                !
 ! A2    A(2,1,7)              122.3467         estimate D2E/DX2                !
 ! A3    A(3,1,7)              111.8979         estimate D2E/DX2                !
 ! A4    A(1,3,4)              109.4477         estimate D2E/DX2                !
 ! A5    A(1,3,5)              109.4105         estimate D2E/DX2                !
 ! A6    A(1,3,6)              109.6695         estimate D2E/DX2                !
 ! A7    A(4,3,5)              107.5121         estimate D2E/DX2                !
 ! A8    A(4,3,6)              110.3966         estimate D2E/DX2                !
 ! A9    A(5,3,6)              110.3684         estimate D2E/DX2                !
 ! A10   A(1,7,8)              107.7309         estimate D2E/DX2                !
 ! D1    D(2,1,3,4)            121.5704         estimate D2E/DX2                !
 ! D2    D(2,1,3,5)           -120.8642         estimate D2E/DX2                !
 ! D3    D(2,1,3,6)              0.324          estimate D2E/DX2                !
 ! D4    D(7,1,3,4)            -58.4578         estimate D2E/DX2                !
 ! D5    D(7,1,3,5)             59.1076         estimate D2E/DX2                !
 ! D6    D(7,1,3,6)           -179.7043         estimate D2E/DX2                !
 ! D7    D(2,1,7,8)              0.0585         estimate D2E/DX2                !
 ! D8    D(3,1,7,8)           -179.9144         estimate D2E/DX2                !
 --------------------------------------------------------------------------------
 Trust Radius=3.00D-01 FncErr=1.00D-07 GrdErr=1.00D-06 EigMax=2.50D+02 EigMin=1.00D-04
 Number of steps in this run=     35 maximum allowed number of steps=    100.
 GradGradGradGradGradGradGradGradGradGradGradGradGradGradGradGradGradGrad

                          Input orientation:                          
 ---------------------------------------------------------------------
 Center     Atomic      Atomic             Coordinates (Angstroms)
 Number     Number       Type             X           Y           Z
 ---------------------------------------------------------------------
      1          6           0       -0.748572    0.706246   -0.167967
      2          8           0        0.451450    0.781942   -0.177931
      3          6           0       -1.546756   -0.552640    0.011861
      4          1           0       -2.200847   -0.448815    0.887618
      5          1           0       -2.190093   -0.705185   -0.864805
      6          1           0       -0.870318   -1.402197    0.139995
      7          8           0       -1.535700    1.779026   -0.322911
      8          1           0       -0.961163    2.553623   -0.434859
 ---------------------------------------------------------------------
                    Distance matrix (angstroms):
                    1          2          3          4          5
     1  C    0.000000
     2  O    1.202448   0.000000
     3  C    1.501409   2.410385   0.000000
     4  H    2.134837   3.112047   1.097982   0.000000
     5  H    2.134410   3.108230   1.098042   1.771109   0.000000
     6  H    2.134290   2.572666   1.093496   1.799495   1.799237
     7  O    1.339566   2.227995   2.355602   2.621274   2.625488
     8  H    1.878624   2.280426   3.192389   3.507192   3.509267
                    6          7          8
     6  H    0.000000
     7  O    3.282864   0.000000
     8  H    3.998402   0.970889   0.000000
 Symmetry turned off by external request.
 Stoichiometry    C2H4O2
 Framework group  C1[X(C2H4O2)]
 Deg. of freedom    18
 Full point group                 C1      NOp   1
 Rotational constants (GHZ):          11.4952070           9.5033793           5.3774123
 Standard basis: def2TZVP (5D, 7F)
   148 basis functions,   236 primitive gaussians,   168 cartesian basis functions
    16 alpha electrons       16 beta electrons
       nuclear repulsion energy       121.5525219013 Hartrees.
 NAtoms=    8 NActive=    8 NUniq=    8 SFac= 1.00D+00 NAtFMM=   60 NAOKFM=F Big=F
 Integral buffers will be    131072 words long.
 Raffenetti 2 integral format.
 Two-electron integral symmetry is turned off.
 Using the following non-standard input for PCM:
 PDENS=7.0
 --- end of non-standard input.
 ------------------------------------------------------------------------------
 Polarizable Continuum Model (PCM)
 =================================
 Model                : PCM.
 Atomic radii         : UFF (Universal Force Field).
 Polarization charges : Total charges.
 Charge compensation  : None.
 Solution method      : On-the-fly selection.
 Cavity type          : Scaled VdW (van der Waals Surface) (Alpha=1.100).
 Cavity algorithm     : GePol (No added spheres)
                        Default sphere list used, NSphG=    8.
                        Lebedev-Laikov grids with approx.  7.0 points / Ang**2.
                        Smoothing algorithm: York/Karplus (Gamma=1.0000).
                        Polarization charges: spherical gaussians, with
                                              point-specific exponents (IZeta= 3).
                        Self-potential: point-specific (ISelfS= 7).
                        Self-field    : sphere-specific E.n sum rule (ISelfD= 2).
 1st derivatives      : Analytical E(r).r(x)/FMM algorithm (CHGder, D1EAlg=3).
                        Cavity 1st derivative terms included.
 Solvent              : Water, Eps=  78.355300 Eps(inf)=   1.777849
 ------------------------------------------------------------------------------
 Spheres list:
 ISph  on   Nord     Re0    Alpha      Xe            Ye            Ze
    1   C      1    1.9255  1.100     -0.748572      0.706246     -0.167967
    2   O      2    1.7500  1.100      0.451450      0.781942     -0.177931
    3   C      3    1.9255  1.100     -1.546756     -0.552640      0.011861
    4   H      4    1.4430  1.100     -2.200847     -0.448815      0.887618
    5   H      5    1.4430  1.100     -2.190093     -0.705185     -0.864805
    6   H      6    1.4430  1.100     -0.870318     -1.402197      0.139995
    7   O      7    1.7500  1.100     -1.535700      1.779026     -0.322911
    8   H      8    1.4430  1.100     -0.961163      2.553623     -0.434859
 ------------------------------------------------------------------------------
 One-electron integrals computed using PRISM.
   1 Symmetry operations used in ECPInt.
 ECPInt:  NShTT=    1830 NPrTT=    5560 LenC2=    1822 LenP2D=    4792.
 LDataN:  DoStor=T MaxTD1= 6 Len=  172
 NBasis=   148 RedAO= T EigKep=  4.30D-04  NBF=   148
 NBsUse=   148 1.00D-06 EigRej= -1.00D+00 NBFU=   148
 Initial guess from the checkpoint file:  "/dev/shm/acetic_acid_1_w.chk"
 B after Tr=     0.000000    0.000000    0.000000
         Rot=    1.000000    0.000000    0.000000    0.000000 Ang=   0.00 deg.
 Keep R1 ints in memory in canonical form, NReq=96713811.
 Requested convergence on RMS density matrix=1.00D-08 within  32 cycles.
 Requested convergence on MAX density matrix=1.00D-06.
 Requested convergence on             energy=1.00D-06.
 No special actions if energy rises.
 Inv3:  Mode=1 IEnd=     4583088.
 Iteration    1 A*A^-1 deviation from unit magnitude is 3.11D-15 for    201.
 Iteration    1 A*A^-1 deviation from orthogonality  is 1.44D-15 for   1043    501.
 Iteration    1 A^-1*A deviation from unit magnitude is 2.89D-15 for    621.
 Iteration    1 A^-1*A deviation from orthogonality  is 2.47D-15 for   1177    892.
 Error on total polarization charges =  0.00732
 SCF Done:  E(RM062X) =  -229.095992276     A.U. after   11 cycles
            NFock= 11  Conv=0.70D-08     -V/T= 2.0045
 QCSCF skips out because SCF is already converged.

 **********************************************************************

            Population analysis using the SCF Density.

 **********************************************************************

 Alpha  occ. eigenvalues --  -19.67676 -19.62556 -10.68450 -10.54787  -1.24607
 Alpha  occ. eigenvalues --   -1.14936  -0.85615  -0.70158  -0.59080  -0.57058
 Alpha  occ. eigenvalues --   -0.55873  -0.48230  -0.47320  -0.46289  -0.40809
 Alpha  occ. eigenvalues --   -0.36796
 Alpha virt. eigenvalues --    0.04690   0.06924   0.10256   0.14645   0.15821
 Alpha virt. eigenvalues --    0.17230   0.19879   0.23441   0.24500   0.26803
 Alpha virt. eigenvalues --    0.28081   0.32795   0.39126   0.40059   0.43375
 Alpha virt. eigenvalues --    0.43836   0.47214   0.48406   0.50175   0.51163
 Alpha virt. eigenvalues --    0.52549   0.58360   0.60602   0.61160   0.64525
 Alpha virt. eigenvalues --    0.68439   0.70005   0.80339   0.81638   0.87206
 Alpha virt. eigenvalues --    0.89051   0.96113   1.01274   1.02278   1.06596
 Alpha virt. eigenvalues --    1.09177   1.19678   1.36777   1.37656   1.41198
 Alpha virt. eigenvalues --    1.46132   1.52833   1.54059   1.54090   1.57065
 Alpha virt. eigenvalues --    1.62953   1.64179   1.65343   1.72567   1.81887
 Alpha virt. eigenvalues --    1.84077   1.85138   1.93291   1.97760   2.01033
 Alpha virt. eigenvalues --    2.09571   2.11535   2.14283   2.15891   2.19870
 Alpha virt. eigenvalues --    2.24821   2.29474   2.32770   2.36368   2.37597
 Alpha virt. eigenvalues --    2.39539   2.52032   2.52139   2.57479   2.70728
 Alpha virt. eigenvalues --    2.72800   2.75916   2.80183   2.81046   2.90295
 Alpha virt. eigenvalues --    2.94006   2.95766   2.97394   3.04530   3.10715
 Alpha virt. eigenvalues --    3.12971   3.14942   3.17702   3.21752   3.24312
 Alpha virt. eigenvalues --    3.26043   3.32816   3.39606   3.42927   3.50434
 Alpha virt. eigenvalues --    3.53631   3.68366   3.77043   3.79651   3.86362
 Alpha virt. eigenvalues --    3.86453   3.92099   4.08404   4.31410   4.36079
 Alpha virt. eigenvalues --    4.37410   4.46386   4.54663   4.68269   5.15808
 Alpha virt. eigenvalues --    5.18814   5.21719   5.38822   5.38915   5.51534
 Alpha virt. eigenvalues --    5.61560   5.74515   5.85628   5.88414   6.16251
 Alpha virt. eigenvalues --    6.19790   6.30943   6.34719   6.42751   6.45829
 Alpha virt. eigenvalues --    6.62837   6.68750   6.76104   6.79736   6.86988
 Alpha virt. eigenvalues --    7.06591   7.08054   7.27688  22.39860  23.32837
 Alpha virt. eigenvalues --   43.85423  43.94457
          Condensed to atoms (all electrons):
               1          2          3          4          5          6
     1  C    4.363005   0.669725   0.327793  -0.018833  -0.018587  -0.044725
     2  O    0.669725   7.899570  -0.090376   0.002068   0.002016   0.006548
     3  C    0.327793  -0.090376   5.124768   0.380966   0.380847   0.407779
     4  H   -0.018833   0.002068   0.380966   0.496251  -0.021526  -0.016589
     5  H   -0.018587   0.002016   0.380847  -0.021526   0.495978  -0.016556
     6  H   -0.044725   0.006548   0.407779  -0.016589  -0.016556   0.501773
     7  O    0.358544  -0.102047  -0.105494   0.003345   0.003297   0.005052
     8  H   -0.018474   0.005686   0.012879  -0.000499  -0.000498  -0.000674
               7          8
     1  C    0.358544  -0.018474
     2  O   -0.102047   0.005686
     3  C   -0.105494   0.012879
     4  H    0.003345  -0.000499
     5  H    0.003297  -0.000498
     6  H    0.005052  -0.000674
     7  O    7.965157   0.289352
     8  H    0.289352   0.351462
 Mulliken charges:
               1
     1  C    0.381551
     2  O   -0.393189
     3  C   -0.439161
     4  H    0.174817
     5  H    0.175031
     6  H    0.157393
     7  O   -0.417206
     8  H    0.360765
 Sum of Mulliken charges =  -0.00000
 Mulliken charges with hydrogens summed into heavy atoms:
               1
     1  C    0.381551
     2  O   -0.393189
     3  C    0.068079
     7  O   -0.056441
 Electronic spatial extent (au):  <R**2>=            394.9586
 Charge=             -0.0000 electrons
 Dipole moment (field-independent basis, Debye):
    X=             -2.2149    Y=              0.0132    Z=             -0.0074  Tot=              2.2150
 Quadrupole moment (field-independent basis, Debye-Ang):
   XX=            -25.1959   YY=            -18.2507   ZZ=            -23.0288
   XY=              0.5270   XZ=              0.0731   YZ=             -0.7075
 Traceless Quadrupole moment (field-independent basis, Debye-Ang):
   XX=             -3.0375   YY=              3.9078   ZZ=             -0.8703
   XY=              0.5270   XZ=              0.0731   YZ=             -0.7075
 Octapole moment (field-independent basis, Debye-Ang**2):
  XXX=             67.1852  YYY=            -22.8040  ZZZ=             10.7728  XYY=             19.7156
  XXY=            -21.9213  XXZ=              4.8419  XZZ=             20.0646  YZZ=            -13.9422
  YYZ=              0.3293  XYZ=              0.0086
 Hexadecapole moment (field-independent basis, Debye-Ang**3):
 XXXX=           -250.4234 YYYY=           -133.3949 ZZZZ=            -33.1838 XXXY=             45.9475
 XXXZ=            -11.2033 YYYX=             15.9240 YYYZ=              3.7678 ZZZX=             -8.7527
 ZZZY=             15.5290 XXYY=            -83.7877 XXZZ=            -43.0130 YYZZ=            -38.1421
 XXYZ=              7.5356 YYXZ=             -0.4287 ZZXY=             10.7047
 N-N= 1.215525219013D+02 E-N=-7.808986555444D+02  KE= 2.280672766627D+02
   1 Symmetry operations used in ECPInt.
 ECPInt:  NShTT=    1830 NPrTT=    5560 LenC2=    1822 LenP2D=    4792.
 LDataN:  DoStor=T MaxTD1= 7 Len=  274
 D1PCM: PCM CHGder 1st derivatives, ID1Alg=3 FixD1E=F DoIter=F DoCFld=F I1PDM=0.
 Calling FoFJK, ICntrl=      2127 FMM=F ISym2X=0 I1Cent= 0 IOpClX= 0 NMat=1 NMatS=1 NMatT=0.
 -------------------------------------------------------------------
 Center     Atomic                   Forces (Hartrees/Bohr)
 Number     Number              X              Y              Z
 -------------------------------------------------------------------
      1        6          -0.004159948   -0.004064399    0.000556672
      2        8           0.002330872    0.000281348   -0.000036893
      3        6          -0.001323782   -0.002656565    0.000381082
      4        1           0.003537296   -0.000500826   -0.004229064
      5        1           0.003476252    0.000740069    0.004242737
      6        1          -0.003883181    0.004327448   -0.000651721
      7        8           0.001458603    0.002098498   -0.000299508
      8        1          -0.001436112   -0.000225573    0.000036696
 -------------------------------------------------------------------
 Cartesian Forces:  Max     0.004327448 RMS     0.002523640

 GradGradGradGradGradGradGradGradGradGradGradGradGradGradGradGradGradGrad
 Berny optimization.
 FormGI is forming the generalized inverse of G from B-inverse, IUseBI=4.
 Internal  Forces:  Max     0.005842459 RMS     0.002148099
 Search for a local minimum.
 Step number   1 out of a maximum of   35
 All quantities printed in internal units (Hartrees-Bohrs-Radians)
 Mixed Optimization -- RFO/linear search
 Second derivative matrix not updated -- first step.
 ITU=  0
     Eigenvalues ---    0.00747   0.01158   0.02491   0.07432   0.07601
     Eigenvalues ---    0.16000   0.16000   0.16000   0.16000   0.25000
     Eigenvalues ---    0.25000   0.32230   0.33900   0.33906   0.34412
     Eigenvalues ---    0.53196   0.57302   1.03603
 RFO step:  Lambda=-3.38712388D-04 EMin= 7.47306539D-03
 Linear search not attempted -- first point.
 Iteration  1 RMS(Cart)=  0.00712470 RMS(Int)=  0.00001679
 Iteration  2 RMS(Cart)=  0.00001913 RMS(Int)=  0.00000042
 Iteration  3 RMS(Cart)=  0.00000000 RMS(Int)=  0.00000042
 Variable       Old X    -DE/DX   Delta X   Delta X   Delta X     New X
                                 (Linear)    (Quad)   (Total)
    R1        2.27230   0.00234   0.00000   0.00226   0.00226   2.27456
    R2        2.83725  -0.00259   0.00000  -0.00803  -0.00803   2.82922
    R3        2.53141   0.00151   0.00000   0.00264   0.00264   2.53405
    R4        2.07489  -0.00553   0.00000  -0.01629  -0.01629   2.05860
    R5        2.07500  -0.00552   0.00000  -0.01628  -0.01628   2.05872
    R6        2.06641  -0.00584   0.00000  -0.01696  -0.01696   2.04945
    R7        1.83471  -0.00103   0.00000  -0.00194  -0.00194   1.83278
    A1        2.19485  -0.00014   0.00000  -0.00055  -0.00055   2.19430
    A2        2.13535  -0.00044   0.00000  -0.00174  -0.00174   2.13361
    A3        1.95299   0.00057   0.00000   0.00229   0.00229   1.95528
    A4        1.91022  -0.00023   0.00000  -0.00132  -0.00132   1.90891
    A5        1.90957  -0.00023   0.00000  -0.00129  -0.00129   1.90828
    A6        1.91409   0.00052   0.00000   0.00301   0.00301   1.91711
    A7        1.87644   0.00031   0.00000   0.00242   0.00242   1.87886
    A8        1.92678  -0.00019   0.00000  -0.00147  -0.00147   1.92532
    A9        1.92629  -0.00019   0.00000  -0.00141  -0.00141   1.92488
   A10        1.88026   0.00187   0.00000   0.01165   0.01165   1.89191
    D1        2.12180  -0.00006   0.00000  -0.00105  -0.00105   2.12076
    D2       -2.10948   0.00005   0.00000   0.00037   0.00037  -2.10911
    D3        0.00565  -0.00000   0.00000  -0.00030  -0.00030   0.00535
    D4       -1.02028  -0.00005   0.00000  -0.00026  -0.00026  -1.02055
    D5        1.03162   0.00006   0.00000   0.00115   0.00115   1.03277
    D6       -3.13643   0.00001   0.00000   0.00048   0.00048  -3.13595
    D7        0.00102   0.00000   0.00000   0.00021   0.00021   0.00123
    D8       -3.14010  -0.00001   0.00000  -0.00054  -0.00054  -3.14064
         Item               Value     Threshold  Converged?
 Maximum Force            0.005842     0.000450     NO 
 RMS     Force            0.002148     0.000300     NO 
 Maximum Displacement     0.015257     0.001800     NO 
 RMS     Displacement     0.007122     0.001200     NO 
 Predicted change in Energy=-1.695375D-04
 GradGradGradGradGradGradGradGradGradGradGradGradGradGradGradGradGradGrad

                          Input orientation:                          
 ---------------------------------------------------------------------
 Center     Atomic      Atomic             Coordinates (Angstroms)
 Number     Number       Type             X           Y           Z
 ---------------------------------------------------------------------
      1          6           0       -0.749587    0.702054   -0.167699
      2          8           0        0.451713    0.776547   -0.177183
      3          6           0       -1.546226   -0.552784    0.011834
      4          1           0       -2.194155   -0.448176    0.881294
      5          1           0       -2.183507   -0.703162   -0.858861
      6          1           0       -0.878392   -1.397706    0.139463
      7          8           0       -1.534438    1.778219   -0.322797
      8          1           0       -0.967408    2.557008   -0.435050
 ---------------------------------------------------------------------
                    Distance matrix (angstroms):
                    1          2          3          4          5
     1  C    0.000000
     2  O    1.203645   0.000000
     3  C    1.497159   2.407200   0.000000
     4  H    2.123721   3.101763   1.089364   0.000000
     5  H    2.123314   3.098162   1.089426   1.758770   0.000000
     6  H    2.126013   2.568427   1.084520   1.784139   1.783919
     7  O    1.340961   2.229203   2.354930   2.615702   2.620288
     8  H    1.886737   2.291384   3.194612   3.502684   3.505313
                    6          7          8
     6  H    0.000000
     7  O    3.275757   0.000000
     8  H    3.997218   0.969863   0.000000
 Symmetry turned off by external request.
 Stoichiometry    C2H4O2
 Framework group  C1[X(C2H4O2)]
 Deg. of freedom    18
 Full point group                 C1      NOp   1
 Rotational constants (GHZ):          11.4935047           9.5322551           5.3837528
 Standard basis: def2TZVP (5D, 7F)
   148 basis functions,   236 primitive gaussians,   168 cartesian basis functions
    16 alpha electrons       16 beta electrons
       nuclear repulsion energy       121.6641138369 Hartrees.
 NAtoms=    8 NActive=    8 NUniq=    8 SFac= 1.00D+00 NAtFMM=   60 NAOKFM=F Big=F
 Integral buffers will be    131072 words long.
 Raffenetti 2 integral format.
 Two-electron integral symmetry is turned off.
 ------------------------------------------------------------------------------
 Polarizable Continuum Model (PCM)
 =================================
 Model                : PCM.
 Atomic radii         : UFF (Universal Force Field).
 Polarization charges : Total charges.
 Charge compensation  : None.
 Solution method      : On-the-fly selection.
 Cavity type          : Scaled VdW (van der Waals Surface) (Alpha=1.100).
 Cavity algorithm     : GePol (No added spheres)
                        Default sphere list used, NSphG=    8.
                        Lebedev-Laikov grids with approx.  7.0 points / Ang**2.
                        Smoothing algorithm: York/Karplus (Gamma=1.0000).
                        Polarization charges: spherical gaussians, with
                                              point-specific exponents (IZeta= 3).
                        Self-potential: point-specific (ISelfS= 7).
                        Self-field    : sphere-specific E.n sum rule (ISelfD= 2).
 1st derivatives      : Analytical E(r).r(x)/FMM algorithm (CHGder, D1EAlg=3).
                        Cavity 1st derivative terms included.
 Solvent              : Water, Eps=  78.355300 Eps(inf)=   1.777849
 ------------------------------------------------------------------------------
 Spheres list:
 ISph  on   Nord     Re0    Alpha      Xe            Ye            Ze
    1   C      1    1.9255  1.100     -0.749587      0.702054     -0.167699
    2   O      2    1.7500  1.100      0.451713      0.776547     -0.177183
    3   C      3    1.9255  1.100     -1.546226     -0.552784      0.011834
    4   H      4    1.4430  1.100     -2.194155     -0.448176      0.881294
    5   H      5    1.4430  1.100     -2.183507     -0.703162     -0.858861
    6   H      6    1.4430  1.100     -0.878392     -1.397706      0.139463
    7   O      7    1.7500  1.100     -1.534438      1.778219     -0.322797
    8   H      8    1.4430  1.100     -0.967408      2.557008     -0.435050
 ------------------------------------------------------------------------------
 One-electron integrals computed using PRISM.
   1 Symmetry operations used in ECPInt.
 ECPInt:  NShTT=    1830 NPrTT=    5560 LenC2=    1822 LenP2D=    4793.
 LDataN:  DoStor=T MaxTD1= 6 Len=  172
 NBasis=   148 RedAO= T EigKep=  4.18D-04  NBF=   148
 NBsUse=   148 1.00D-06 EigRej= -1.00D+00 NBFU=   148
 Initial guess from the checkpoint file:  "/dev/shm/acetic_acid_1_w.chk"
 B after Tr=    -0.000872   -0.005609    0.000647
         Rot=    1.000000   -0.000004    0.000068    0.000521 Ang=  -0.06 deg.
 Keep R1 ints in memory in canonical form, NReq=96713811.
 Requested convergence on RMS density matrix=1.00D-08 within  32 cycles.
 Requested convergence on MAX density matrix=1.00D-06.
 Requested convergence on             energy=1.00D-06.
 No special actions if energy rises.
 Inv3:  Mode=1 IEnd=     4575675.
 Iteration    1 A*A^-1 deviation from unit magnitude is 3.55D-15 for    561.
 Iteration    1 A*A^-1 deviation from orthogonality  is 1.79D-15 for    822     40.
 Iteration    1 A^-1*A deviation from unit magnitude is 3.11D-15 for    561.
 Iteration    1 A^-1*A deviation from orthogonality  is 1.86D-15 for   1177    892.
 Error on total polarization charges =  0.00726
 SCF Done:  E(RM062X) =  -229.096160176     A.U. after    9 cycles
            NFock=  9  Conv=0.33D-08     -V/T= 2.0044
 QCSCF skips out because SCF is already converged.
   1 Symmetry operations used in ECPInt.
 ECPInt:  NShTT=    1830 NPrTT=    5560 LenC2=    1822 LenP2D=    4793.
 LDataN:  DoStor=T MaxTD1= 7 Len=  274
 D1PCM: PCM CHGder 1st derivatives, ID1Alg=3 FixD1E=F DoIter=F DoCFld=F I1PDM=0.
 Calling FoFJK, ICntrl=      2127 FMM=F ISym2X=0 I1Cent= 0 IOpClX= 0 NMat=1 NMatS=1 NMatT=0.
 -------------------------------------------------------------------
 Center     Atomic                   Forces (Hartrees/Bohr)
 Number     Number              X              Y              Z
 -------------------------------------------------------------------
      1        6          -0.000590794   -0.000317179    0.000139064
      2        8           0.000620354    0.000147593   -0.000060076
      3        6          -0.000000724    0.000458223   -0.000095238
      4        1          -0.000030041    0.000012402    0.000133252
      5        1          -0.000040034   -0.000034302   -0.000125196
      6        1           0.000108237   -0.000076355    0.000008569
      7        8           0.000054026    0.000208092   -0.000058471
      8        1          -0.000121023   -0.000398474    0.000058096
 -------------------------------------------------------------------
 Cartesian Forces:  Max     0.000620354 RMS     0.000239755

 GradGradGradGradGradGradGradGradGradGradGradGradGradGradGradGradGradGrad
 Berny optimization.
 Using GEDIIS/GDIIS optimizer.
 FormGI is forming the generalized inverse of G from B-inverse, IUseBI=4.
 Internal  Forces:  Max     0.000629411 RMS     0.000188022
 Search for a local minimum.
 Step number   2 out of a maximum of   35
 All quantities printed in internal units (Hartrees-Bohrs-Radians)
 Mixed Optimization -- En-DIIS/RFO-DIIS
 Update second derivatives using D2CorX and points    1    2
 DE= -1.68D-04 DEPred=-1.70D-04 R= 9.90D-01
 TightC=F SS=  1.41D+00  RLast= 3.27D-02 DXNew= 5.0454D-01 9.8058D-02
 Trust test= 9.90D-01 RLast= 3.27D-02 DXMaxT set to 3.00D-01
 ITU=  1  0
 Use linear search instead of GDIIS.
     Eigenvalues ---    0.00747   0.01157   0.02491   0.07421   0.07601
     Eigenvalues ---    0.15991   0.16000   0.16000   0.16268   0.24954
     Eigenvalues ---    0.25058   0.31488   0.33903   0.34184   0.35218
     Eigenvalues ---    0.53066   0.57414   1.02891
 RFO step:  Lambda=-2.05957545D-06 EMin= 7.47307718D-03
 Quartic linear search produced a step of -0.01510.
 Iteration  1 RMS(Cart)=  0.00099063 RMS(Int)=  0.00000090
 Iteration  2 RMS(Cart)=  0.00000081 RMS(Int)=  0.00000047
 Variable       Old X    -DE/DX   Delta X   Delta X   Delta X     New X
                                 (Linear)    (Quad)   (Total)
    R1        2.27456   0.00063  -0.00003   0.00065   0.00061   2.27517
    R2        2.82922  -0.00033   0.00012  -0.00118  -0.00106   2.82816
    R3        2.53405  -0.00012  -0.00004  -0.00015  -0.00019   2.53386
    R4        2.05860   0.00013   0.00025   0.00002   0.00026   2.05886
    R5        2.05872   0.00013   0.00025   0.00003   0.00027   2.05899
    R6        2.04945   0.00013   0.00026  -0.00001   0.00025   2.04970
    R7        1.83278  -0.00040   0.00003  -0.00077  -0.00074   1.83203
    A1        2.19430   0.00022   0.00001   0.00085   0.00086   2.19515
    A2        2.13361  -0.00004   0.00003  -0.00018  -0.00016   2.13345
    A3        1.95528  -0.00018  -0.00003  -0.00066  -0.00070   1.95458
    A4        1.90891  -0.00001   0.00002  -0.00005  -0.00003   1.90888
    A5        1.90828   0.00001   0.00002   0.00007   0.00009   1.90837
    A6        1.91711  -0.00006  -0.00005  -0.00043  -0.00048   1.91663
    A7        1.87886   0.00005  -0.00004   0.00061   0.00058   1.87944
    A8        1.92532   0.00001   0.00002  -0.00008  -0.00006   1.92526
    A9        1.92488   0.00001   0.00002  -0.00010  -0.00008   1.92480
   A10        1.89191  -0.00026  -0.00018  -0.00134  -0.00151   1.89040
    D1        2.12076  -0.00001   0.00002   0.00092   0.00093   2.12169
    D2       -2.10911   0.00004  -0.00001   0.00167   0.00167  -2.10744
    D3        0.00535   0.00002   0.00000   0.00132   0.00133   0.00668
    D4       -1.02055  -0.00005   0.00000  -0.00187  -0.00187  -1.02241
    D5        1.03277   0.00001  -0.00002  -0.00111  -0.00113   1.03164
    D6       -3.13595  -0.00002  -0.00001  -0.00146  -0.00147  -3.13742
    D7        0.00123  -0.00002  -0.00000  -0.00137  -0.00137  -0.00014
    D8       -3.14064   0.00002   0.00001   0.00131   0.00131  -3.13933
         Item               Value     Threshold  Converged?
 Maximum Force            0.000629     0.000450     NO 
 RMS     Force            0.000188     0.000300     YES
 Maximum Displacement     0.003112     0.001800     NO 
 RMS     Displacement     0.000991     0.001200     YES
 Predicted change in Energy=-1.071518D-06
 GradGradGradGradGradGradGradGradGradGradGradGradGradGradGradGradGradGrad

                          Input orientation:                          
 ---------------------------------------------------------------------
 Center     Atomic      Atomic             Coordinates (Angstroms)
 Number     Number       Type             X           Y           Z
 ---------------------------------------------------------------------
      1          6           0       -0.749647    0.701986   -0.166638
      2          8           0        0.451934    0.777019   -0.177334
      3          6           0       -1.546348   -0.552289    0.011879
      4          1           0       -2.194150   -0.448196    0.881668
      5          1           0       -2.183413   -0.702205   -0.859235
      6          1           0       -0.878266   -1.397259    0.139012
      7          8           0       -1.534888    1.777583   -0.322852
      8          1           0       -0.967223    2.555361   -0.435500
 ---------------------------------------------------------------------
                    Distance matrix (angstroms):
                    1          2          3          4          5
     1  C    0.000000
     2  O    1.203969   0.000000
     3  C    1.496599   2.407487   0.000000
     4  H    2.123312   3.102322   1.089502   0.000000
     5  H    2.122999   3.098087   1.089571   1.759369   0.000000
     6  H    2.125276   2.568461   1.084653   1.784324   1.784098
     7  O    1.340863   2.229297   2.353823   2.615261   2.618709
     8  H    1.885371   2.289794   3.192651   3.501662   3.502913
                    6          7          8
     6  H    0.000000
     7  O    3.274766   0.000000
     8  H    3.995145   0.969470   0.000000
 Symmetry turned off by external request.
 Stoichiometry    C2H4O2
 Framework group  C1[X(C2H4O2)]
 Deg. of freedom    18
 Full point group                 C1      NOp   1
 Rotational constants (GHZ):          11.4924290           9.5371184           5.3851906
 Standard basis: def2TZVP (5D, 7F)
   148 basis functions,   236 primitive gaussians,   168 cartesian basis functions
    16 alpha electrons       16 beta electrons
       nuclear repulsion energy       121.6740170512 Hartrees.
 NAtoms=    8 NActive=    8 NUniq=    8 SFac= 1.00D+00 NAtFMM=   60 NAOKFM=F Big=F
 Integral buffers will be    131072 words long.
 Raffenetti 2 integral format.
 Two-electron integral symmetry is turned off.
 ------------------------------------------------------------------------------
 Polarizable Continuum Model (PCM)
 =================================
 Model                : PCM.
 Atomic radii         : UFF (Universal Force Field).
 Polarization charges : Total charges.
 Charge compensation  : None.
 Solution method      : On-the-fly selection.
 Cavity type          : Scaled VdW (van der Waals Surface) (Alpha=1.100).
 Cavity algorithm     : GePol (No added spheres)
                        Default sphere list used, NSphG=    8.
                        Lebedev-Laikov grids with approx.  7.0 points / Ang**2.
                        Smoothing algorithm: York/Karplus (Gamma=1.0000).
                        Polarization charges: spherical gaussians, with
                                              point-specific exponents (IZeta= 3).
                        Self-potential: point-specific (ISelfS= 7).
                        Self-field    : sphere-specific E.n sum rule (ISelfD= 2).
 1st derivatives      : Analytical E(r).r(x)/FMM algorithm (CHGder, D1EAlg=3).
                        Cavity 1st derivative terms included.
 Solvent              : Water, Eps=  78.355300 Eps(inf)=   1.777849
 ------------------------------------------------------------------------------
 Spheres list:
 ISph  on   Nord     Re0    Alpha      Xe            Ye            Ze
    1   C      1    1.9255  1.100     -0.749647      0.701986     -0.166638
    2   O      2    1.7500  1.100      0.451934      0.777019     -0.177334
    3   C      3    1.9255  1.100     -1.546348     -0.552289      0.011879
    4   H      4    1.4430  1.100     -2.194150     -0.448196      0.881668
    5   H      5    1.4430  1.100     -2.183413     -0.702205     -0.859235
    6   H      6    1.4430  1.100     -0.878266     -1.397259      0.139012
    7   O      7    1.7500  1.100     -1.534888      1.777583     -0.322852
    8   H      8    1.4430  1.100     -0.967223      2.555361     -0.435500
 ------------------------------------------------------------------------------
 One-electron integrals computed using PRISM.
   1 Symmetry operations used in ECPInt.
 ECPInt:  NShTT=    1830 NPrTT=    5560 LenC2=    1822 LenP2D=    4793.
 LDataN:  DoStor=T MaxTD1= 6 Len=  172
 NBasis=   148 RedAO= T EigKep=  4.16D-04  NBF=   148
 NBsUse=   148 1.00D-06 EigRej= -1.00D+00 NBFU=   148
 Initial guess from the checkpoint file:  "/dev/shm/acetic_acid_1_w.chk"
 B after Tr=     0.000047    0.000335    0.000303
         Rot=    1.000000    0.000028   -0.000002   -0.000077 Ang=   0.01 deg.
 Keep R1 ints in memory in canonical form, NReq=96713811.
 Requested convergence on RMS density matrix=1.00D-08 within  32 cycles.
 Requested convergence on MAX density matrix=1.00D-06.
 Requested convergence on             energy=1.00D-06.
 No special actions if energy rises.
 Inv3:  Mode=1 IEnd=     4583088.
 Iteration    1 A*A^-1 deviation from unit magnitude is 3.55D-15 for    458.
 Iteration    1 A*A^-1 deviation from orthogonality  is 1.76D-15 for    543    411.
 Iteration    1 A^-1*A deviation from unit magnitude is 3.77D-15 for    458.
 Iteration    1 A^-1*A deviation from orthogonality  is 1.78D-15 for   1061    331.
 Error on total polarization charges =  0.00726
 SCF Done:  E(RM062X) =  -229.096160911     A.U. after    8 cycles
            NFock=  8  Conv=0.64D-08     -V/T= 2.0044
 QCSCF skips out because SCF is already converged.
   1 Symmetry operations used in ECPInt.
 ECPInt:  NShTT=    1830 NPrTT=    5560 LenC2=    1822 LenP2D=    4793.
 LDataN:  DoStor=T MaxTD1= 7 Len=  274
 D1PCM: PCM CHGder 1st derivatives, ID1Alg=3 FixD1E=F DoIter=F DoCFld=F I1PDM=0.
 Calling FoFJK, ICntrl=      2127 FMM=F ISym2X=0 I1Cent= 0 IOpClX= 0 NMat=1 NMatS=1 NMatT=0.
 -------------------------------------------------------------------
 Center     Atomic                   Forces (Hartrees/Bohr)
 Number     Number              X              Y              Z
 -------------------------------------------------------------------
      1        6          -0.000187434   -0.000191361   -0.000307378
      2        8           0.000108054    0.000083078    0.000101414
      3        6           0.000041777    0.000067717    0.000098633
      4        1          -0.000011908   -0.000022748    0.000034359
      5        1           0.000008288    0.000010176   -0.000024618
      6        1           0.000009168   -0.000063603    0.000015385
      7        8           0.000037272    0.000079961    0.000083692
      8        1          -0.000005217    0.000036781   -0.000001486
 -------------------------------------------------------------------
 Cartesian Forces:  Max     0.000307378 RMS     0.000098807

 GradGradGradGradGradGradGradGradGradGradGradGradGradGradGradGradGradGrad
 Berny optimization.
 Using GEDIIS/GDIIS optimizer.
 FormGI is forming the generalized inverse of G from B-inverse, IUseBI=4.
 Internal  Forces:  Max     0.000112770 RMS     0.000055294
 Search for a local minimum.
 Step number   3 out of a maximum of   35
 All quantities printed in internal units (Hartrees-Bohrs-Radians)
 Mixed Optimization -- En-DIIS/RFO-DIIS
 Swapping is turned off.
 Update second derivatives using D2CorX and points    1    2    3
 DE= -7.34D-07 DEPred=-1.07D-06 R= 6.85D-01
 TightC=F SS=  1.41D+00  RLast= 4.73D-03 DXNew= 5.0454D-01 1.4183D-02
 Trust test= 6.85D-01 RLast= 4.73D-03 DXMaxT set to 3.00D-01
 ITU=  1  1  0
     Eigenvalues ---    0.00748   0.01814   0.02491   0.07411   0.07537
     Eigenvalues ---    0.15241   0.16000   0.16001   0.17157   0.22696
     Eigenvalues ---    0.26809   0.30884   0.33914   0.34140   0.34505
     Eigenvalues ---    0.52007   0.58079   0.94320
 En-DIIS/RFO-DIIS/Sim-DIIS IScMMF=       -3 using points:     3    2
 RFO step:  Lambda=-1.42055594D-06.
 DidBck=T Rises=F RFO-DIIS coefs:   -0.27058    1.27058
 Iteration  1 RMS(Cart)=  0.00127630 RMS(Int)=  0.00000230
 Iteration  2 RMS(Cart)=  0.00000245 RMS(Int)=  0.00000147
 Iteration  3 RMS(Cart)=  0.00000000 RMS(Int)=  0.00000147
 Variable       Old X    -DE/DX   Delta X   Delta X   Delta X     New X
                                 (Linear)    (Quad)   (Total)
    R1        2.27517   0.00011  -0.00078   0.00124   0.00046   2.27563
    R2        2.82816  -0.00000   0.00135  -0.00201  -0.00067   2.82750
    R3        2.53386   0.00006   0.00024  -0.00026  -0.00002   2.53384
    R4        2.05886   0.00003  -0.00033   0.00051   0.00017   2.05904
    R5        2.05899   0.00002  -0.00035   0.00049   0.00014   2.05913
    R6        2.04970   0.00006  -0.00032   0.00053   0.00022   2.04991
    R7        1.83203   0.00003   0.00095  -0.00136  -0.00041   1.83162
    A1        2.19515   0.00002  -0.00109   0.00167   0.00058   2.19573
    A2        2.13345  -0.00011   0.00020  -0.00063  -0.00043   2.13302
    A3        1.95458   0.00009   0.00089  -0.00103  -0.00015   1.95443
    A4        1.90888   0.00003   0.00004   0.00009   0.00013   1.90901
    A5        1.90837  -0.00005  -0.00012  -0.00008  -0.00020   1.90818
    A6        1.91663   0.00005   0.00061  -0.00064  -0.00003   1.91659
    A7        1.87944   0.00001  -0.00073   0.00114   0.00040   1.87984
    A8        1.92526  -0.00003   0.00008  -0.00025  -0.00018   1.92508
    A9        1.92480  -0.00001   0.00010  -0.00022  -0.00012   1.92468
   A10        1.89040   0.00004   0.00192  -0.00260  -0.00068   1.88972
    D1        2.12169  -0.00005  -0.00119  -0.00180  -0.00299   2.11870
    D2       -2.10744  -0.00005  -0.00212  -0.00042  -0.00254  -2.10998
    D3        0.00668  -0.00006  -0.00169  -0.00114  -0.00283   0.00385
    D4       -1.02241   0.00006   0.00237   0.00048   0.00285  -1.01956
    D5        1.03164   0.00006   0.00144   0.00186   0.00330   1.03494
    D6       -3.13742   0.00005   0.00187   0.00114   0.00301  -3.13441
    D7       -0.00014   0.00005   0.00174   0.00093   0.00267   0.00253
    D8       -3.13933  -0.00006  -0.00167  -0.00126  -0.00292   3.14093
         Item               Value     Threshold  Converged?
 Maximum Force            0.000113     0.000450     YES
 RMS     Force            0.000055     0.000300     YES
 Maximum Displacement     0.004063     0.001800     NO 
 RMS     Displacement     0.001277     0.001200     NO 
 Predicted change in Energy=-7.104713D-07
 GradGradGradGradGradGradGradGradGradGradGradGradGradGradGradGradGradGrad

                          Input orientation:                          
 ---------------------------------------------------------------------
 Center     Atomic      Atomic             Coordinates (Angstroms)
 Number     Number       Type             X           Y           Z
 ---------------------------------------------------------------------
      1          6           0       -0.749772    0.701515   -0.168788
      2          8           0        0.452011    0.777476   -0.177223
      3          6           0       -1.546405   -0.552113    0.011619
      4          1           0       -2.193988   -0.446903    0.881553
      5          1           0       -2.183432   -0.703156   -0.859422
      6          1           0       -0.878303   -1.397056    0.139794
      7          8           0       -1.535069    1.777401   -0.322608
      8          1           0       -0.967042    2.554835   -0.433925
 ---------------------------------------------------------------------
                    Distance matrix (angstroms):
                    1          2          3          4          5
     1  C    0.000000
     2  O    1.204211   0.000000
     3  C    1.496246   2.407725   0.000000
     4  H    2.123167   3.101842   1.089595   0.000000
     5  H    2.122606   3.098908   1.089647   1.759764   0.000000
     6  H    2.125027   2.568818   1.084767   1.784383   1.784179
     7  O    1.340852   2.229232   2.353396   2.613754   2.619486
     8  H    1.884755   2.288802   3.191754   3.499473   3.503592
                    6          7          8
     6  H    0.000000
     7  O    3.274498   0.000000
     8  H    3.994305   0.969252   0.000000
 Symmetry turned off by external request.
 Stoichiometry    C2H4O2
 Framework group  C1[X(C2H4O2)]
 Deg. of freedom    18
 Full point group                 C1      NOp   1
 Rotational constants (GHZ):          11.4930581           9.5381747           5.3857466
 Standard basis: def2TZVP (5D, 7F)
   148 basis functions,   236 primitive gaussians,   168 cartesian basis functions
    16 alpha electrons       16 beta electrons
       nuclear repulsion energy       121.6768925575 Hartrees.
 NAtoms=    8 NActive=    8 NUniq=    8 SFac= 1.00D+00 NAtFMM=   60 NAOKFM=F Big=F
 Integral buffers will be    131072 words long.
 Raffenetti 2 integral format.
 Two-electron integral symmetry is turned off.
 ------------------------------------------------------------------------------
 Polarizable Continuum Model (PCM)
 =================================
 Model                : PCM.
 Atomic radii         : UFF (Universal Force Field).
 Polarization charges : Total charges.
 Charge compensation  : None.
 Solution method      : On-the-fly selection.
 Cavity type          : Scaled VdW (van der Waals Surface) (Alpha=1.100).
 Cavity algorithm     : GePol (No added spheres)
                        Default sphere list used, NSphG=    8.
                        Lebedev-Laikov grids with approx.  7.0 points / Ang**2.
                        Smoothing algorithm: York/Karplus (Gamma=1.0000).
                        Polarization charges: spherical gaussians, with
                                              point-specific exponents (IZeta= 3).
                        Self-potential: point-specific (ISelfS= 7).
                        Self-field    : sphere-specific E.n sum rule (ISelfD= 2).
 1st derivatives      : Analytical E(r).r(x)/FMM algorithm (CHGder, D1EAlg=3).
                        Cavity 1st derivative terms included.
 Solvent              : Water, Eps=  78.355300 Eps(inf)=   1.777849
 ------------------------------------------------------------------------------
 Spheres list:
 ISph  on   Nord     Re0    Alpha      Xe            Ye            Ze
    1   C      1    1.9255  1.100     -0.749772      0.701515     -0.168788
    2   O      2    1.7500  1.100      0.452011      0.777476     -0.177223
    3   C      3    1.9255  1.100     -1.546405     -0.552113      0.011619
    4   H      4    1.4430  1.100     -2.193988     -0.446903      0.881553
    5   H      5    1.4430  1.100     -2.183432     -0.703156     -0.859422
    6   H      6    1.4430  1.100     -0.878303     -1.397056      0.139794
    7   O      7    1.7500  1.100     -1.535069      1.777401     -0.322608
    8   H      8    1.4430  1.100     -0.967042      2.554835     -0.433925
 ------------------------------------------------------------------------------
 One-electron integrals computed using PRISM.
   1 Symmetry operations used in ECPInt.
 ECPInt:  NShTT=    1830 NPrTT=    5560 LenC2=    1822 LenP2D=    4793.
 LDataN:  DoStor=T MaxTD1= 6 Len=  172
 NBasis=   148 RedAO= T EigKep=  4.15D-04  NBF=   148
 NBsUse=   148 1.00D-06 EigRej= -1.00D+00 NBFU=   148
 Initial guess from the checkpoint file:  "/dev/shm/acetic_acid_1_w.chk"
 B after Tr=     0.000032    0.000158   -0.000735
         Rot=    1.000000   -0.000046   -0.000016   -0.000047 Ang=  -0.01 deg.
 Keep R1 ints in memory in canonical form, NReq=96713811.
 Requested convergence on RMS density matrix=1.00D-08 within  32 cycles.
 Requested convergence on MAX density matrix=1.00D-06.
 Requested convergence on             energy=1.00D-06.
 No special actions if energy rises.
 Inv3:  Mode=1 IEnd=     4590507.
 Iteration    1 A*A^-1 deviation from unit magnitude is 2.89D-15 for    601.
 Iteration    1 A*A^-1 deviation from orthogonality  is 1.44D-15 for   1153    922.
 Iteration    1 A^-1*A deviation from unit magnitude is 2.89D-15 for    601.
 Iteration    1 A^-1*A deviation from orthogonality  is 2.03D-15 for   1157    753.
 Error on total polarization charges =  0.00726
 SCF Done:  E(RM062X) =  -229.096160220     A.U. after    8 cycles
            NFock=  8  Conv=0.72D-08     -V/T= 2.0044
 QCSCF skips out because SCF is already converged.
   1 Symmetry operations used in ECPInt.
 ECPInt:  NShTT=    1830 NPrTT=    5560 LenC2=    1822 LenP2D=    4793.
 LDataN:  DoStor=T MaxTD1= 7 Len=  274
 D1PCM: PCM CHGder 1st derivatives, ID1Alg=3 FixD1E=F DoIter=F DoCFld=F I1PDM=0.
 Calling FoFJK, ICntrl=      2127 FMM=F ISym2X=0 I1Cent= 0 IOpClX= 0 NMat=1 NMatS=1 NMatT=0.
 -------------------------------------------------------------------
 Center     Atomic                   Forces (Hartrees/Bohr)
 Number     Number              X              Y              Z
 -------------------------------------------------------------------
      1        6           0.000183343    0.000161396    0.000540101
      2        8          -0.000252179   -0.000068461   -0.000194813
      3        6           0.000049435   -0.000219757   -0.000147739
      4        1           0.000034179    0.000026010   -0.000042631
      5        1          -0.000015971   -0.000031234    0.000044125
      6        1          -0.000042126   -0.000021159   -0.000011807
      7        8          -0.000031350   -0.000100341   -0.000143201
      8        1           0.000074669    0.000253546   -0.000044034
 -------------------------------------------------------------------
 Cartesian Forces:  Max     0.000540101 RMS     0.000163647

 GradGradGradGradGradGradGradGradGradGradGradGradGradGradGradGradGradGrad
 Berny optimization.
 Using GEDIIS/GDIIS optimizer.
 FormGI is forming the generalized inverse of G from B-inverse, IUseBI=4.
 Internal  Forces:  Max     0.000254299 RMS     0.000115639
 Search for a local minimum.
 Step number   4 out of a maximum of   35
 All quantities printed in internal units (Hartrees-Bohrs-Radians)
 Mixed Optimization -- En-DIIS/RFO-DIIS
 Swapping is turned off.
 Update second derivatives using D2CorX and points    1    2    3    4
 DE=  6.90D-07 DEPred=-7.10D-07 R=-9.72D-01
 Trust test=-9.72D-01 RLast= 8.33D-03 DXMaxT set to 1.50D-01
 ITU= -1  1  1  0
     Eigenvalues ---    0.00748   0.02489   0.04692   0.07390   0.07497
     Eigenvalues ---    0.14650   0.16001   0.16641   0.17187   0.21026
     Eigenvalues ---    0.27156   0.31359   0.33930   0.34133   0.34719
     Eigenvalues ---    0.52549   0.59112   0.90372
 En-DIIS/RFO-DIIS/Sim-DIIS IScMMF=       -3 using points:     4    3    2
 RFO step:  Lambda=-2.01802871D-06.
 EnCoef did     2 forward-backward iterations
 DidBck=T Rises=T En-DIIS coefs:    0.37364    0.34617    0.28020
 Iteration  1 RMS(Cart)=  0.00089837 RMS(Int)=  0.00000077
 Iteration  2 RMS(Cart)=  0.00000104 RMS(Int)=  0.00000022
 Iteration  3 RMS(Cart)=  0.00000000 RMS(Int)=  0.00000022
 Variable       Old X    -DE/DX   Delta X   Delta X   Delta X     New X
                                 (Linear)    (Quad)   (Total)
    R1        2.27563  -0.00025  -0.00046   0.00023  -0.00022   2.27540
    R2        2.82750   0.00017   0.00071  -0.00025   0.00046   2.82796
    R3        2.53384   0.00012   0.00007   0.00006   0.00012   2.53397
    R4        2.05904  -0.00005  -0.00018   0.00011  -0.00007   2.05896
    R5        2.05913  -0.00002  -0.00017   0.00011  -0.00005   2.05908
    R6        2.04991  -0.00001  -0.00021   0.00018  -0.00002   2.04989
    R7        1.83162   0.00025   0.00047  -0.00011   0.00036   1.83198
    A1        2.19573  -0.00011  -0.00060   0.00025  -0.00035   2.19538
    A2        2.13302  -0.00005   0.00031  -0.00039  -0.00008   2.13294
    A3        1.95443   0.00016   0.00029   0.00014   0.00043   1.95486
    A4        1.90901  -0.00007  -0.00007  -0.00007  -0.00014   1.90887
    A5        1.90818   0.00006   0.00010  -0.00002   0.00007   1.90825
    A6        1.91659   0.00007   0.00016   0.00018   0.00034   1.91693
    A7        1.87984  -0.00002  -0.00041   0.00018  -0.00023   1.87961
    A8        1.92508  -0.00000   0.00013  -0.00014  -0.00001   1.92507
    A9        1.92468  -0.00005   0.00010  -0.00014  -0.00005   1.92464
   A10        1.88972   0.00016   0.00085  -0.00013   0.00072   1.89044
    D1        2.11870   0.00010   0.00161   0.00034   0.00195   2.12065
    D2       -2.10998   0.00007   0.00112   0.00051   0.00163  -2.10835
    D3        0.00385   0.00010   0.00140   0.00043   0.00184   0.00569
    D4       -1.01956  -0.00009  -0.00126  -0.00062  -0.00189  -1.02145
    D5        1.03494  -0.00012  -0.00175  -0.00045  -0.00220   1.03274
    D6       -3.13441  -0.00009  -0.00147  -0.00053  -0.00200  -3.13641
    D7        0.00253  -0.00009  -0.00129  -0.00047  -0.00176   0.00077
    D8        3.14093   0.00010   0.00146   0.00045   0.00192  -3.14033
         Item               Value     Threshold  Converged?
 Maximum Force            0.000254     0.000450     YES
 RMS     Force            0.000116     0.000300     YES
 Maximum Displacement     0.002677     0.001800     NO 
 RMS     Displacement     0.000898     0.001200     YES
 Predicted change in Energy=-9.969938D-07
 GradGradGradGradGradGradGradGradGradGradGradGradGradGradGradGradGradGrad

                          Input orientation:                          
 ---------------------------------------------------------------------
 Center     Atomic      Atomic             Coordinates (Angstroms)
 Number     Number       Type             X           Y           Z
 ---------------------------------------------------------------------
      1          6           0       -0.749794    0.701814   -0.167371
      2          8           0        0.451887    0.777333   -0.177304
      3          6           0       -1.546342   -0.552334    0.011806
      4          1           0       -2.194058   -0.447873    0.881681
      5          1           0       -2.183398   -0.702646   -0.859306
      6          1           0       -0.878391   -1.397484    0.139310
      7          8           0       -1.534841    1.777732   -0.322811
      8          1           0       -0.967064    2.555458   -0.435005
 ---------------------------------------------------------------------
                    Distance matrix (angstroms):
                    1          2          3          4          5
     1  C    0.000000
     2  O    1.204092   0.000000
     3  C    1.496490   2.407633   0.000000
     4  H    2.123250   3.102193   1.089556   0.000000
     5  H    2.122852   3.098418   1.089619   1.759562   0.000000
     6  H    2.125474   2.568990   1.084755   1.784337   1.784118
     7  O    1.340917   2.229138   2.353998   2.615087   2.619299
     8  H    1.885425   2.289445   3.192738   3.501310   3.503532
                    6          7          8
     6  H    0.000000
     7  O    3.275129   0.000000
     8  H    3.995428   0.969441   0.000000
 Symmetry turned off by external request.
 Stoichiometry    C2H4O2
 Framework group  C1[X(C2H4O2)]
 Deg. of freedom    18
 Full point group                 C1      NOp   1
 Rotational constants (GHZ):          11.4940326           9.5351157           5.3849422
 Standard basis: def2TZVP (5D, 7F)
   148 basis functions,   236 primitive gaussians,   168 cartesian basis functions
    16 alpha electrons       16 beta electrons
       nuclear repulsion energy       121.6705717901 Hartrees.
 NAtoms=    8 NActive=    8 NUniq=    8 SFac= 1.00D+00 NAtFMM=   60 NAOKFM=F Big=F
 Integral buffers will be    131072 words long.
 Raffenetti 2 integral format.
 Two-electron integral symmetry is turned off.
 ------------------------------------------------------------------------------
 Polarizable Continuum Model (PCM)
 =================================
 Model                : PCM.
 Atomic radii         : UFF (Universal Force Field).
 Polarization charges : Total charges.
 Charge compensation  : None.
 Solution method      : On-the-fly selection.
 Cavity type          : Scaled VdW (van der Waals Surface) (Alpha=1.100).
 Cavity algorithm     : GePol (No added spheres)
                        Default sphere list used, NSphG=    8.
                        Lebedev-Laikov grids with approx.  7.0 points / Ang**2.
                        Smoothing algorithm: York/Karplus (Gamma=1.0000).
                        Polarization charges: spherical gaussians, with
                                              point-specific exponents (IZeta= 3).
                        Self-potential: point-specific (ISelfS= 7).
                        Self-field    : sphere-specific E.n sum rule (ISelfD= 2).
 1st derivatives      : Analytical E(r).r(x)/FMM algorithm (CHGder, D1EAlg=3).
                        Cavity 1st derivative terms included.
 Solvent              : Water, Eps=  78.355300 Eps(inf)=   1.777849
 ------------------------------------------------------------------------------
 Spheres list:
 ISph  on   Nord     Re0    Alpha      Xe            Ye            Ze
    1   C      1    1.9255  1.100     -0.749794      0.701814     -0.167371
    2   O      2    1.7500  1.100      0.451887      0.777333     -0.177304
    3   C      3    1.9255  1.100     -1.546342     -0.552334      0.011806
    4   H      4    1.4430  1.100     -2.194058     -0.447873      0.881681
    5   H      5    1.4430  1.100     -2.183398     -0.702646     -0.859306
    6   H      6    1.4430  1.100     -0.878391     -1.397484      0.139310
    7   O      7    1.7500  1.100     -1.534841      1.777732     -0.322811
    8   H      8    1.4430  1.100     -0.967064      2.555458     -0.435005
 ------------------------------------------------------------------------------
 One-electron integrals computed using PRISM.
   1 Symmetry operations used in ECPInt.
 ECPInt:  NShTT=    1830 NPrTT=    5560 LenC2=    1822 LenP2D=    4793.
 LDataN:  DoStor=T MaxTD1= 6 Len=  172
 NBasis=   148 RedAO= T EigKep=  4.16D-04  NBF=   148
 NBsUse=   148 1.00D-06 EigRej= -1.00D+00 NBFU=   148
 Initial guess from the checkpoint file:  "/dev/shm/acetic_acid_1_w.chk"
 B after Tr=    -0.000025    0.000024    0.000486
         Rot=    1.000000    0.000032    0.000014    0.000028 Ang=   0.01 deg.
 Keep R1 ints in memory in canonical form, NReq=96713811.
 Requested convergence on RMS density matrix=1.00D-08 within  32 cycles.
 Requested convergence on MAX density matrix=1.00D-06.
 Requested convergence on             energy=1.00D-06.
 No special actions if energy rises.
 Inv3:  Mode=1 IEnd=     4583088.
 Iteration    1 A*A^-1 deviation from unit magnitude is 3.22D-15 for    621.
 Iteration    1 A*A^-1 deviation from orthogonality  is 1.72D-15 for    590     26.
 Iteration    1 A^-1*A deviation from unit magnitude is 3.44D-15 for    621.
 Iteration    1 A^-1*A deviation from orthogonality  is 1.64D-15 for   1178    893.
 Error on total polarization charges =  0.00726
 SCF Done:  E(RM062X) =  -229.096161214     A.U. after    8 cycles
            NFock=  8  Conv=0.58D-08     -V/T= 2.0044
 QCSCF skips out because SCF is already converged.
   1 Symmetry operations used in ECPInt.
 ECPInt:  NShTT=    1830 NPrTT=    5560 LenC2=    1822 LenP2D=    4793.
 LDataN:  DoStor=T MaxTD1= 7 Len=  274
 D1PCM: PCM CHGder 1st derivatives, ID1Alg=3 FixD1E=F DoIter=F DoCFld=F I1PDM=0.
 Calling FoFJK, ICntrl=      2127 FMM=F ISym2X=0 I1Cent= 0 IOpClX= 0 NMat=1 NMatS=1 NMatT=0.
 -------------------------------------------------------------------
 Center     Atomic                   Forces (Hartrees/Bohr)
 Number     Number              X              Y              Z
 -------------------------------------------------------------------
      1        6           0.000065621    0.000042790   -0.000032879
      2        8          -0.000055641   -0.000025602    0.000008099
      3        6           0.000014146   -0.000028275    0.000012765
      4        1           0.000003945   -0.000005469   -0.000006639
      5        1           0.000000081    0.000000684    0.000013402
      6        1          -0.000007662    0.000010009   -0.000002404
      7        8          -0.000040757   -0.000033936    0.000013524
      8        1           0.000020267    0.000039798   -0.000005868
 -------------------------------------------------------------------
 Cartesian Forces:  Max     0.000065621 RMS     0.000027124

 GradGradGradGradGradGradGradGradGradGradGradGradGradGradGradGradGradGrad
 Berny optimization.
 Using GEDIIS/GDIIS optimizer.
 FormGI is forming the generalized inverse of G from B-inverse, IUseBI=4.
 Internal  Forces:  Max     0.000056553 RMS     0.000018178
 Search for a local minimum.
 Step number   5 out of a maximum of   35
 All quantities printed in internal units (Hartrees-Bohrs-Radians)
 Mixed Optimization -- En-DIIS/RFO-DIIS
 Swapping is turned off.
 Update second derivatives using D2CorX and points    1    2    3    4    5
 DE= -9.94D-07 DEPred=-9.97D-07 R= 9.97D-01
 Trust test= 9.97D-01 RLast= 5.52D-03 DXMaxT set to 1.50D-01
 ITU=  0 -1  1  1  0
     Eigenvalues ---    0.00748   0.02489   0.05021   0.07485   0.07550
     Eigenvalues ---    0.15352   0.15996   0.16706   0.17313   0.23577
     Eigenvalues ---    0.26891   0.32767   0.33933   0.34300   0.35131
     Eigenvalues ---    0.53752   0.58558   0.94937
 En-DIIS/RFO-DIIS/Sim-DIIS IScMMF=       -3 using points:     5    4    3    2
 RFO step:  Lambda=-1.94807265D-08.
 DidBck=F Rises=F RFO-DIIS coefs:    0.76888    0.06344    0.07626    0.09143
 Iteration  1 RMS(Cart)=  0.00007136 RMS(Int)=  0.00000007
 Iteration  2 RMS(Cart)=  0.00000001 RMS(Int)=  0.00000007
 Variable       Old X    -DE/DX   Delta X   Delta X   Delta X     New X
                                 (Linear)    (Quad)   (Total)
    R1        2.27540  -0.00006  -0.00008   0.00001  -0.00007   2.27533
    R2        2.82796   0.00002   0.00010  -0.00002   0.00008   2.82804
    R3        2.53397   0.00001  -0.00001   0.00002   0.00001   2.53398
    R4        2.05896  -0.00001  -0.00004   0.00001  -0.00002   2.05894
    R5        2.05908  -0.00001  -0.00004   0.00001  -0.00002   2.05906
    R6        2.04989  -0.00001  -0.00005   0.00001  -0.00004   2.04985
    R7        1.83198   0.00005   0.00005   0.00003   0.00009   1.83207
    A1        2.19538  -0.00003  -0.00009  -0.00004  -0.00013   2.19525
    A2        2.13294   0.00003   0.00011   0.00003   0.00013   2.13308
    A3        1.95486   0.00000  -0.00001   0.00001  -0.00000   1.95486
    A4        1.90887   0.00001   0.00001   0.00001   0.00002   1.90889
    A5        1.90825   0.00000   0.00001   0.00001   0.00002   1.90827
    A6        1.91693   0.00000  -0.00003   0.00004   0.00001   1.91694
    A7        1.87961  -0.00001  -0.00007  -0.00001  -0.00008   1.87954
    A8        1.92507  -0.00000   0.00004  -0.00002   0.00001   1.92509
    A9        1.92464  -0.00000   0.00004  -0.00002   0.00002   1.92465
   A10        1.89044   0.00001   0.00009  -0.00004   0.00005   1.89049
    D1        2.12065  -0.00000  -0.00004  -0.00002  -0.00005   2.12060
    D2       -2.10835  -0.00001  -0.00010  -0.00002  -0.00013  -2.10847
    D3        0.00569  -0.00000  -0.00007  -0.00002  -0.00009   0.00560
    D4       -1.02145   0.00001   0.00013  -0.00002   0.00011  -1.02133
    D5        1.03274   0.00000   0.00006  -0.00002   0.00004   1.03278
    D6       -3.13641   0.00000   0.00009  -0.00002   0.00008  -3.13633
    D7        0.00077   0.00000   0.00008   0.00000   0.00009   0.00086
    D8       -3.14033  -0.00000  -0.00007  -0.00000  -0.00007  -3.14041
         Item               Value     Threshold  Converged?
 Maximum Force            0.000057     0.000450     YES
 RMS     Force            0.000018     0.000300     YES
 Maximum Displacement     0.000197     0.001800     YES
 RMS     Displacement     0.000071     0.001200     YES
 Predicted change in Energy=-1.168174D-08
 Optimization completed.
    -- Stationary point found.
                           ----------------------------
                           !   Optimized Parameters   !
                           ! (Angstroms and Degrees)  !
 --------------------------                            --------------------------
 ! Name  Definition              Value          Derivative Info.                !
 --------------------------------------------------------------------------------
 ! R1    R(1,2)                  1.2041         -DE/DX =   -0.0001              !
 ! R2    R(1,3)                  1.4965         -DE/DX =    0.0                 !
 ! R3    R(1,7)                  1.3409         -DE/DX =    0.0                 !
 ! R4    R(3,4)                  1.0896         -DE/DX =    0.0                 !
 ! R5    R(3,5)                  1.0896         -DE/DX =    0.0                 !
 ! R6    R(3,6)                  1.0848         -DE/DX =    0.0                 !
 ! R7    R(7,8)                  0.9694         -DE/DX =    0.0                 !
 ! A1    A(2,1,3)              125.7861         -DE/DX =    0.0                 !
 ! A2    A(2,1,7)              122.2086         -DE/DX =    0.0                 !
 ! A3    A(3,1,7)              112.0053         -DE/DX =    0.0                 !
 ! A4    A(1,3,4)              109.3701         -DE/DX =    0.0                 !
 ! A5    A(1,3,5)              109.3349         -DE/DX =    0.0                 !
 ! A6    A(1,3,6)              109.8319         -DE/DX =    0.0                 !
 ! A7    A(4,3,5)              107.6939         -DE/DX =    0.0                 !
 ! A8    A(4,3,6)              110.2986         -DE/DX =    0.0                 !
 ! A9    A(5,3,6)              110.2736         -DE/DX =    0.0                 !
 ! A10   A(1,7,8)              108.3142         -DE/DX =    0.0                 !
 ! D1    D(2,1,3,4)            121.5044         -DE/DX =    0.0                 !
 ! D2    D(2,1,3,5)           -120.7994         -DE/DX =    0.0                 !
 ! D3    D(2,1,3,6)              0.3259         -DE/DX =    0.0                 !
 ! D4    D(7,1,3,4)            -58.5245         -DE/DX =    0.0                 !
 ! D5    D(7,1,3,5)             59.1716         -DE/DX =    0.0                 !
 ! D6    D(7,1,3,6)           -179.703          -DE/DX =    0.0                 !
 ! D7    D(2,1,7,8)              0.0443         -DE/DX =    0.0                 !
 ! D8    D(3,1,7,8)           -179.9279         -DE/DX =    0.0                 !
 --------------------------------------------------------------------------------
 GradGradGradGradGradGradGradGradGradGradGradGradGradGradGradGradGradGrad

                          Input orientation:                          
 ---------------------------------------------------------------------
 Center     Atomic      Atomic             Coordinates (Angstroms)
 Number     Number       Type             X           Y           Z
 ---------------------------------------------------------------------
      1          6           0       -0.749794    0.701814   -0.167371
      2          8           0        0.451887    0.777333   -0.177304
      3          6           0       -1.546342   -0.552334    0.011806
      4          1           0       -2.194058   -0.447873    0.881681
      5          1           0       -2.183398   -0.702646   -0.859306
      6          1           0       -0.878391   -1.397484    0.139310
      7          8           0       -1.534841    1.777732   -0.322811
      8          1           0       -0.967064    2.555458   -0.435005
 ---------------------------------------------------------------------
                    Distance matrix (angstroms):
                    1          2          3          4          5
     1  C    0.000000
     2  O    1.204092   0.000000
     3  C    1.496490   2.407633   0.000000
     4  H    2.123250   3.102193   1.089556   0.000000
     5  H    2.122852   3.098418   1.089619   1.759562   0.000000
     6  H    2.125474   2.568990   1.084755   1.784337   1.784118
     7  O    1.340917   2.229138   2.353998   2.615087   2.619299
     8  H    1.885425   2.289445   3.192738   3.501310   3.503532
                    6          7          8
     6  H    0.000000
     7  O    3.275129   0.000000
     8  H    3.995428   0.969441   0.000000
 Symmetry turned off by external request.
 Stoichiometry    C2H4O2
 Framework group  C1[X(C2H4O2)]
 Deg. of freedom    18
 Full point group                 C1      NOp   1
 Rotational constants (GHZ):          11.4940326           9.5351157           5.3849422

 **********************************************************************

            Population analysis using the SCF Density.

 **********************************************************************

 Alpha  occ. eigenvalues --  -19.67632 -19.62529 -10.68450 -10.54529  -1.24508
 Alpha  occ. eigenvalues --   -1.14848  -0.85892  -0.70300  -0.59051  -0.57070
 Alpha  occ. eigenvalues --   -0.55906  -0.48254  -0.47480  -0.46446  -0.40765
 Alpha  occ. eigenvalues --   -0.36785
 Alpha virt. eigenvalues --    0.04678   0.06955   0.10291   0.14747   0.15893
 Alpha virt. eigenvalues --    0.17251   0.19951   0.23478   0.24509   0.26777
 Alpha virt. eigenvalues --    0.28073   0.32810   0.39166   0.40000   0.43573
 Alpha virt. eigenvalues --    0.43901   0.47241   0.48665   0.50463   0.51317
 Alpha virt. eigenvalues --    0.52658   0.58609   0.60656   0.61161   0.64556
 Alpha virt. eigenvalues --    0.68496   0.70266   0.80307   0.81673   0.87205
 Alpha virt. eigenvalues --    0.89109   0.96057   1.01429   1.02334   1.06524
 Alpha virt. eigenvalues --    1.09278   1.19661   1.36797   1.37762   1.41347
 Alpha virt. eigenvalues --    1.46230   1.52952   1.53866   1.54235   1.57461
 Alpha virt. eigenvalues --    1.62873   1.64490   1.65243   1.72673   1.82008
 Alpha virt. eigenvalues --    1.84274   1.84953   1.93643   1.97898   2.00862
 Alpha virt. eigenvalues --    2.09537   2.11500   2.14784   2.16077   2.20212
 Alpha virt. eigenvalues --    2.25012   2.29670   2.33531   2.36653   2.38374
 Alpha virt. eigenvalues --    2.39823   2.52399   2.53058   2.58473   2.70912
 Alpha virt. eigenvalues --    2.73565   2.75958   2.80452   2.81274   2.90410
 Alpha virt. eigenvalues --    2.93914   2.95871   2.97730   3.05076   3.10325
 Alpha virt. eigenvalues --    3.12983   3.14856   3.17952   3.22109   3.24533
 Alpha virt. eigenvalues --    3.26433   3.32954   3.39606   3.43498   3.51024
 Alpha virt. eigenvalues --    3.54122   3.68624   3.77770   3.80208   3.86872
 Alpha virt. eigenvalues --    3.87071   3.92860   4.08622   4.33328   4.37451
 Alpha virt. eigenvalues --    4.38773   4.46777   4.55556   4.68406   5.15817
 Alpha virt. eigenvalues --    5.18845   5.21586   5.38489   5.39045   5.51500
 Alpha virt. eigenvalues --    5.61443   5.74133   5.85921   5.88153   6.16023
 Alpha virt. eigenvalues --    6.20360   6.30942   6.34366   6.42687   6.45798
 Alpha virt. eigenvalues --    6.62687   6.68725   6.76184   6.79760   6.87140
 Alpha virt. eigenvalues --    7.06299   7.08073   7.27594  22.43652  23.32605
 Alpha virt. eigenvalues --   43.85472  43.94383
          Condensed to atoms (all electrons):
               1          2          3          4          5          6
     1  C    4.362422   0.669598   0.326672  -0.018832  -0.018579  -0.044836
     2  O    0.669598   7.902981  -0.091072   0.002101   0.002047   0.006646
     3  C    0.326672  -0.091072   5.118849   0.381887   0.381762   0.409170
     4  H   -0.018832   0.002101   0.381887   0.496262  -0.021590  -0.016804
     5  H   -0.018579   0.002047   0.381762  -0.021590   0.495979  -0.016766
     6  H   -0.044836   0.006646   0.409170  -0.016804  -0.016766   0.501541
     7  O    0.359277  -0.102312  -0.105809   0.003441   0.003391   0.005132
     8  H   -0.018469   0.005606   0.012807  -0.000499  -0.000498  -0.000672
               7          8
     1  C    0.359277  -0.018469
     2  O   -0.102312   0.005606
     3  C   -0.105809   0.012807
     4  H    0.003441  -0.000499
     5  H    0.003391  -0.000498
     6  H    0.005132  -0.000672
     7  O    7.965467   0.289977
     8  H    0.289977   0.350948
 Mulliken charges:
               1
     1  C    0.382747
     2  O   -0.395594
     3  C   -0.434266
     4  H    0.174035
     5  H    0.174253
     6  H    0.156589
     7  O   -0.418565
     8  H    0.360801
 Sum of Mulliken charges =  -0.00000
 Mulliken charges with hydrogens summed into heavy atoms:
               1
     1  C    0.382747
     2  O   -0.395594
     3  C    0.070612
     7  O   -0.057764
 Electronic spatial extent (au):  <R**2>=            394.1153
 Charge=             -0.0000 electrons
 Dipole moment (field-independent basis, Debye):
    X=             -2.2376    Y=              0.0052    Z=             -0.0058  Tot=              2.2376
 Quadrupole moment (field-independent basis, Debye-Ang):
   XX=            -25.1696   YY=            -18.1907   ZZ=            -23.0082
   XY=              0.5243   XZ=              0.0745   YZ=             -0.7116
 Traceless Quadrupole moment (field-independent basis, Debye-Ang):
   XX=             -3.0467   YY=              3.9321   ZZ=             -0.8854
   XY=              0.5243   XZ=              0.0745   YZ=             -0.7116
 Octapole moment (field-independent basis, Debye-Ang**2):
  XXX=             67.1034  YYY=            -22.6172  ZZZ=             10.7648  XYY=             19.5433
  XXY=            -21.8722  XXZ=              4.8343  XZZ=             20.0372  YZZ=            -13.9244
  YYZ=              0.3062  XYZ=              0.0291
 Hexadecapole moment (field-independent basis, Debye-Ang**3):
 XXXX=           -249.9999 YYYY=           -132.0956 ZZZZ=            -32.9950 XXXY=             45.9901
 XXXZ=            -11.2053 YYYX=             15.7444 YYYZ=              3.6506 ZZZX=             -8.7568
 ZZZY=             15.4803 XXYY=            -83.3267 XXZZ=            -42.9570 YYZZ=            -37.9618
 XXYZ=              7.4752 YYXZ=             -0.3905 ZZXY=             10.7136
 N-N= 1.216705717901D+02 E-N=-7.811620752334D+02  KE= 2.281014466842D+02
 1\1\GINC-R4I6N18\FOpt\RM062X\def2TZVP\C2H4O2\HMAYES\29-Sep-2019\0\\# m
 062x/Def2TZVP nosymm scf=xqc opt freq=NoRaman CPHF=Grid=Fine SCRF=(Sol
 vent=Water,Read) guess=read geom=allcheck\\obabel acetic_acid_0.pdb -O
  acetic_acid.pdb --confab --conf10000 --original\\0,1\C,-0.7497935048,
 0.7018139953,-0.1673714118\O,0.4518871192,0.7773330702,-0.1773035437\C
 ,-1.5463418479,-0.5523342731,0.0118060246\H,-2.1940582729,-0.447872679
 9,0.8816810097\H,-2.1833983907,-0.7026456504,-0.8593055559\H,-0.878390
 6877,-1.3974835142,0.1393098146\O,-1.5348406726,1.7777315465,-0.322810
 8392\H,-0.9670637426,2.5554575056,-0.4350054984\\Version=ES64L-G16RevB
 .01\HF=-229.0961612\RMSD=5.831e-09\RMSF=2.712e-05\Dipole=-0.8803269,0.
 0020593,-0.0022839\Quadrupole=-2.2651794,2.9234375,-0.658258,0.3897762
 ,0.055426,-0.5290234\PG=C01 [X(C2H4O2)]\\@


 THE MOST SERIOUS THREAT TO THE SURVIVAL OF MANKIND IS NOT NOW
 IGNORANCE IN THE TRADITIONAL SENSE,
 BUT A MORALLY NEUTRAL, AN INSENSITIVE OR INHIBITED HUMAN INTELLIGENCE.

                     -- MARGO JEFFERSON IN NEWSWEEK, SEPTEMBER 2, 1974
 Job cpu time:       0 days  0 hours 13 minutes 26.3 seconds.
 Elapsed time:       0 days  0 hours  0 minutes 27.6 seconds.
 File lengths (MBytes):  RWF=     42 Int=      0 D2E=      0 Chk=      5 Scr=      1
 Normal termination of Gaussian 16 at Sun Sep 29 14:38:56 2019.
 Link1:  Proceeding to internal job step number  2.
 --------------------------------------------------------------------
 #N Geom=AllCheck Guess=TCheck SCRF=Check GenChk RM062X/def2TZVP Freq
 --------------------------------------------------------------------
 1/4=180224,10=4,29=7,30=1,38=1,40=1/1,3;
 2/4=180224,12=2,15=1,40=1/2;
 3/4=180224,5=44,7=101,11=2,14=-4,25=1,30=1,70=2,71=2,74=-55,116=1,140=1/1,2,3;
 4/4=180224,5=101/1;
 5/4=180224,5=2,8=3,13=1,38=6,98=1/2,8;
 8/4=180224,6=4,10=90,11=11/1;
 11/4=180224,6=1,8=1,9=11,15=111,16=1,31=1/1,2,10;
 10/4=180224,6=1,31=1,60=4/2;
 6/4=180224,7=2,8=2,9=2,10=2,28=1/1;
 7/4=180224,8=1,10=1,25=1,30=1/1,2,3,16;
 1/4=180224,10=4,30=1/3;
 99/4=180224/99;
 Structure from the checkpoint file:  "/dev/shm/acetic_acid_1_w.chk"
 ----------------------------------------------------------------------
 obabel acetic_acid_0.pdb -O acetic_acid.pdb --confab --conf10000 --ori
 ginal
 ----------------------------------------------------------------------
 Charge =  0 Multiplicity = 1
 Redundant internal coordinates found in file.  (old form).
 C,0,-0.7497935048,0.7018139953,-0.1673714118
 O,0,0.4518871192,0.7773330702,-0.1773035437
 C,0,-1.5463418479,-0.5523342731,0.0118060246
 H,0,-2.1940582729,-0.4478726799,0.8816810097
 H,0,-2.1833983907,-0.7026456504,-0.8593055559
 H,0,-0.8783906877,-1.3974835142,0.1393098146
 O,0,-1.5348406726,1.7777315465,-0.3228108392
 H,0,-0.9670637426,2.5554575056,-0.4350054984
 Recover connectivity data from disk.

 GradGradGradGradGradGradGradGradGradGradGradGradGradGradGradGradGradGrad
 Berny optimization.
 Initialization pass.
                           ----------------------------
                           !    Initial Parameters    !
                           ! (Angstroms and Degrees)  !
 --------------------------                            --------------------------
 ! Name  Definition              Value          Derivative Info.                !
 --------------------------------------------------------------------------------
 ! R1    R(1,2)                  1.2041         calculate D2E/DX2 analytically  !
 ! R2    R(1,3)                  1.4965         calculate D2E/DX2 analytically  !
 ! R3    R(1,7)                  1.3409         calculate D2E/DX2 analytically  !
 ! R4    R(3,4)                  1.0896         calculate D2E/DX2 analytically  !
 ! R5    R(3,5)                  1.0896         calculate D2E/DX2 analytically  !
 ! R6    R(3,6)                  1.0848         calculate D2E/DX2 analytically  !
 ! R7    R(7,8)                  0.9694         calculate D2E/DX2 analytically  !
 ! A1    A(2,1,3)              125.7861         calculate D2E/DX2 analytically  !
 ! A2    A(2,1,7)              122.2086         calculate D2E/DX2 analytically  !
 ! A3    A(3,1,7)              112.0053         calculate D2E/DX2 analytically  !
 ! A4    A(1,3,4)              109.3701         calculate D2E/DX2 analytically  !
 ! A5    A(1,3,5)              109.3349         calculate D2E/DX2 analytically  !
 ! A6    A(1,3,6)              109.8319         calculate D2E/DX2 analytically  !
 ! A7    A(4,3,5)              107.6939         calculate D2E/DX2 analytically  !
 ! A8    A(4,3,6)              110.2986         calculate D2E/DX2 analytically  !
 ! A9    A(5,3,6)              110.2736         calculate D2E/DX2 analytically  !
 ! A10   A(1,7,8)              108.3142         calculate D2E/DX2 analytically  !
 ! D1    D(2,1,3,4)            121.5044         calculate D2E/DX2 analytically  !
 ! D2    D(2,1,3,5)           -120.7994         calculate D2E/DX2 analytically  !
 ! D3    D(2,1,3,6)              0.3259         calculate D2E/DX2 analytically  !
 ! D4    D(7,1,3,4)            -58.5245         calculate D2E/DX2 analytically  !
 ! D5    D(7,1,3,5)             59.1716         calculate D2E/DX2 analytically  !
 ! D6    D(7,1,3,6)           -179.703          calculate D2E/DX2 analytically  !
 ! D7    D(2,1,7,8)              0.0443         calculate D2E/DX2 analytically  !
 ! D8    D(3,1,7,8)           -179.9279         calculate D2E/DX2 analytically  !
 --------------------------------------------------------------------------------
 Trust Radius=3.00D-01 FncErr=1.00D-07 GrdErr=1.00D-07 EigMax=2.50D+02 EigMin=1.00D-04
[...]
     3   6     0.00  -0.01  -0.09     0.07  -0.06   0.01     0.00   0.00  -0.00
     4   1    -0.43   0.06   0.56    -0.17   0.02   0.25    -0.00   0.00   0.00
     5   1     0.42   0.10   0.55    -0.16  -0.05  -0.24    -0.00   0.00  -0.00
     6   1     0.00  -0.01  -0.01    -0.56   0.70  -0.11    -0.00   0.00  -0.00
     7   8    -0.00   0.00   0.00    -0.00   0.00  -0.00    -0.03  -0.05   0.01
     8   1    -0.00   0.00   0.00    -0.00  -0.00   0.00     0.57   0.81  -0.12

 -------------------
 - Thermochemistry -
 -------------------
 Temperature   298.150 Kelvin.  Pressure   1.00000 Atm.
 Atom     1 has atomic number  6 and mass  12.00000
 Atom     2 has atomic number  8 and mass  15.99491
 Atom     3 has atomic number  6 and mass  12.00000
 Atom     4 has atomic number  1 and mass   1.00783
 Atom     5 has atomic number  1 and mass   1.00783
 Atom     6 has atomic number  1 and mass   1.00783
 Atom     7 has atomic number  8 and mass  15.99491
 Atom     8 has atomic number  1 and mass   1.00783
 Molecular mass:    60.02113 amu.
 Principal axes and moments of inertia in atomic units:
                           1         2         3
     Eigenvalues --   157.01549 189.27313 335.14588
           X            0.44254   0.89675  -0.00094
           Y            0.88770  -0.43793   0.14217
           Z           -0.12708   0.06375   0.98984
 This molecule is an asymmetric top.
 Rotational symmetry number  1.
 Rotational temperatures (Kelvin)      0.55163     0.45761     0.25844
 Rotational constants (GHZ):          11.49403     9.53512     5.38494
 Zero-point vibrational energy     162890.0 (Joules/Mol)
                                   38.93164 (Kcal/Mol)
 Warning -- explicit consideration of   4 degrees of freedom as
           vibrations may cause significant error
 Vibrational temperatures:     99.49   623.80   778.63   856.47   932.68
          (Kelvin)           1282.28  1453.11  1541.09  1746.52  1937.51
                             2039.60  2100.29  2109.25  2624.87  4447.39
                             4547.56  4613.85  5447.95
 
 Zero-point correction=                           0.062042 (Hartree/Particle)
 Thermal correction to Energy=                    0.066605
 Thermal correction to Enthalpy=                  0.067549
 Thermal correction to Gibbs Free Energy=         0.034840
 Sum of electronic and zero-point Energies=           -229.034120
 Sum of electronic and thermal Energies=              -229.029556
 Sum of electronic and thermal Enthalpies=            -229.028612
 Sum of electronic and thermal Free Energies=         -229.061321
 
                     E (Thermal)             CV                S
                      KCal/Mol        Cal/Mol-Kelvin    Cal/Mol-Kelvin
 Total                   41.795             14.260             68.842
 Electronic               0.000              0.000              0.000
 Translational            0.889              2.981             38.196
 Rotational               0.889              2.981             23.814
 Vibrational             40.018              8.299              6.832
 Vibration     1          0.598              1.969              4.177
 Vibration     2          0.794              1.397              0.847
 Vibration     3          0.896              1.159              0.563
 Vibration     4          0.953              1.042              0.458
                       Q            Log10(Q)             Ln(Q)
 Total Bot       0.943737D-16        -16.025149        -36.899269
 Total V=0       0.325045D+13         12.511944         28.809816
 Vib (Bot)       0.144532D-27        -27.840037        -64.104055
 Vib (Bot)    1  0.298281D+01          0.474625          1.092865
 Vib (Bot)    2  0.400757D+00         -0.397118         -0.914399
 Vib (Bot)    3  0.292437D+00         -0.533968         -1.229506
 Vib (Bot)    4  0.252060D+00         -0.598497         -1.378089
 Vib (V=0)       0.497801D+01          0.697056          1.605030
 Vib (V=0)    1  0.352442D+01          0.547088          1.259717
 Vib (V=0)    2  0.114079D+01          0.057204          0.131717
 Vib (V=0)    3  0.107924D+01          0.033118          0.076257
 Vib (V=0)    4  0.105994D+01          0.025282          0.058213
 Electronic      0.100000D+01          0.000000          0.000000
 Translational   0.182772D+08          7.261910         16.721166
 Rotational      0.357255D+05          4.552978         10.483620
 -------------------------------------------------------------------
 Center     Atomic                   Forces (Hartrees/Bohr)
 Number     Number              X              Y              Z
 -------------------------------------------------------------------
      1        6           0.000065662    0.000042768   -0.000032871
      2        8          -0.000055706   -0.000025598    0.000008100
      3        6           0.000014155   -0.000028251    0.000012766
      4        1           0.000003945   -0.000005474   -0.000006644
      5        1           0.000000091    0.000000686    0.000013415
      6        1          -0.000007670    0.000010015   -0.000002405
      7        8          -0.000040743   -0.000033954    0.000013507
      8        1           0.000020266    0.000039808   -0.000005867
 -------------------------------------------------------------------
 Cartesian Forces:  Max     0.000065662 RMS     0.000027131
 FormGI is forming the generalized inverse of G from B-inverse, IUseBI=4.

 GradGradGradGradGradGradGradGradGradGradGradGradGradGradGradGradGradGrad
 Berny optimization.
 Internal  Forces:  Max     0.000056618 RMS     0.000018185
 Search for a local minimum.
 Step number   1 out of a maximum of    2
 All quantities printed in internal units (Hartrees-Bohrs-Radians)
 Second derivative matrix not updated -- analytic derivatives used.
 ITU=  0
     Eigenvalues ---    0.00038   0.01808   0.04768   0.05437   0.05443
     Eigenvalues ---    0.12385   0.13169   0.13801   0.15121   0.21152
     Eigenvalues ---    0.26106   0.34791   0.34923   0.35575   0.36082
     Eigenvalues ---    0.42482   0.52098   0.89580
 Angle between quadratic step and forces=  74.72 degrees.
 Linear search not attempted -- first point.
 Iteration  1 RMS(Cart)=  0.00017069 RMS(Int)=  0.00000002
 Iteration  2 RMS(Cart)=  0.00000002 RMS(Int)=  0.00000000
 Variable       Old X    -DE/DX   Delta X   Delta X   Delta X     New X
                                 (Linear)    (Quad)   (Total)
    R1        2.27540  -0.00006   0.00000  -0.00007  -0.00007   2.27533
    R2        2.82796   0.00002   0.00000   0.00007   0.00007   2.82803
    R3        2.53397   0.00001   0.00000   0.00001   0.00001   2.53398
    R4        2.05896  -0.00001   0.00000  -0.00002  -0.00002   2.05895
    R5        2.05908  -0.00001   0.00000  -0.00003  -0.00003   2.05906
    R6        2.04989  -0.00001   0.00000  -0.00004  -0.00004   2.04985
    R7        1.83198   0.00005   0.00000   0.00009   0.00009   1.83207
    A1        2.19538  -0.00003   0.00000  -0.00013  -0.00013   2.19526
    A2        2.13294   0.00003   0.00000   0.00012   0.00012   2.13307
    A3        1.95486   0.00000   0.00000   0.00000   0.00000   1.95486
    A4        1.90887   0.00001   0.00000   0.00000   0.00000   1.90887
    A5        1.90825   0.00000   0.00000   0.00005   0.00005   1.90831
    A6        1.91693   0.00000   0.00000   0.00002   0.00002   1.91694
    A7        1.87961  -0.00001   0.00000  -0.00009  -0.00009   1.87952
    A8        1.92507  -0.00000   0.00000  -0.00001  -0.00001   1.92506
    A9        1.92464  -0.00000   0.00000   0.00003   0.00003   1.92467
   A10        1.89044   0.00001   0.00000   0.00004   0.00004   1.89048
    D1        2.12065  -0.00000   0.00000  -0.00043  -0.00043   2.12022
    D2       -2.10835  -0.00001   0.00000  -0.00051  -0.00051  -2.10885
    D3        0.00569  -0.00000   0.00000  -0.00043  -0.00043   0.00526
    D4       -1.02145   0.00001   0.00000  -0.00024  -0.00024  -1.02168
    D5        1.03274   0.00000   0.00000  -0.00031  -0.00031   1.03243
    D6       -3.13641   0.00000   0.00000  -0.00024  -0.00024  -3.13664
    D7        0.00077   0.00000   0.00000   0.00006   0.00006   0.00084
    D8       -3.14033  -0.00000   0.00000  -0.00012  -0.00012  -3.14046
         Item               Value     Threshold  Converged?
 Maximum Force            0.000057     0.000450     YES
 RMS     Force            0.000018     0.000300     YES
 Maximum Displacement     0.000501     0.001800     YES
 RMS     Displacement     0.000171     0.001200     YES
 Predicted change in Energy=-1.149075D-08
 Optimization completed.
    -- Stationary point found.
                           ----------------------------
                           !   Optimized Parameters   !
                           ! (Angstroms and Degrees)  !
 --------------------------                            --------------------------
 ! Name  Definition              Value          Derivative Info.                !
 --------------------------------------------------------------------------------
 ! R1    R(1,2)                  1.2041         -DE/DX =   -0.0001              !
 ! R2    R(1,3)                  1.4965         -DE/DX =    0.0                 !
 ! R3    R(1,7)                  1.3409         -DE/DX =    0.0                 !
 ! R4    R(3,4)                  1.0896         -DE/DX =    0.0                 !
 ! R5    R(3,5)                  1.0896         -DE/DX =    0.0                 !
 ! R6    R(3,6)                  1.0848         -DE/DX =    0.0                 !
 ! R7    R(7,8)                  0.9694         -DE/DX =    0.0                 !
 ! A1    A(2,1,3)              125.7861         -DE/DX =    0.0                 !
 ! A2    A(2,1,7)              122.2086         -DE/DX =    0.0                 !
 ! A3    A(3,1,7)              112.0053         -DE/DX =    0.0                 !
 ! A4    A(1,3,4)              109.3701         -DE/DX =    0.0                 !
 ! A5    A(1,3,5)              109.3349         -DE/DX =    0.0                 !
 ! A6    A(1,3,6)              109.8319         -DE/DX =    0.0                 !
 ! A7    A(4,3,5)              107.6939         -DE/DX =    0.0                 !
 ! A8    A(4,3,6)              110.2986         -DE/DX =    0.0                 !
 ! A9    A(5,3,6)              110.2736         -DE/DX =    0.0                 !
 ! A10   A(1,7,8)              108.3142         -DE/DX =    0.0                 !
 ! D1    D(2,1,3,4)            121.5044         -DE/DX =    0.0                 !
 ! D2    D(2,1,3,5)           -120.7994         -DE/DX =    0.0                 !
 ! D3    D(2,1,3,6)              0.3259         -DE/DX =    0.0                 !
 ! D4    D(7,1,3,4)            -58.5245         -DE/DX =    0.0                 !
 ! D5    D(7,1,3,5)             59.1716         -DE/DX =    0.0                 !
 ! D6    D(7,1,3,6)           -179.703          -DE/DX =    0.0                 !
 ! D7    D(2,1,7,8)              0.0443         -DE/DX =    0.0                 !
 ! D8    D(3,1,7,8)           -179.9279         -DE/DX =    0.0                 !
 --------------------------------------------------------------------------------
 GradGradGradGradGradGradGradGradGradGradGradGradGradGradGradGradGradGrad


 ----------------------------------------------------------------------

 Electric dipole moment (input orientation):
 (Debye = 10**-18 statcoulomb cm , SI units = C m)
                  (au)            (Debye)         (10**-30 SI)
   Tot        0.880332D+00      0.223758D+01      0.746377D+01
   x         -0.880327D+00     -0.223757D+01     -0.746372D+01
   y          0.205921D-02      0.523398D-02      0.174587D-01
   z         -0.228407D-02     -0.580553D-02     -0.193652D-01

 Dipole polarizability, Alpha (input orientation).
 (esu units = cm**3 , SI units = C**2 m**2 J**-1)
 Alpha(0;0):
               (au)            (10**-24 esu)      (10**-40 SI)
   iso        0.372329D+02      0.551735D+01      0.613888D+01
   aniso      0.135634D+02      0.200989D+01      0.223631D+01
   xx         0.434393D+02      0.643704D+01      0.716217D+01
   yx         0.432661D+00      0.641137D-01      0.713361D-01
   yy         0.395791D+02      0.586502D+01      0.652572D+01
   zx        -0.431160D-01     -0.638914D-02     -0.710887D-02
   zy        -0.159648D+01     -0.236573D+00     -0.263223D+00
   zz         0.286804D+02      0.425000D+01      0.472876D+01

 ----------------------------------------------------------------------

 Dipole orientation:
     6         -0.30950546          1.32364588          1.42081858
     8         -0.33381905          1.47172495         -0.84963232
     6          0.02742788         -1.05066000          2.91964539
     1          1.67487532         -0.85997293          4.13984133
     1         -1.61627365         -1.33367849          4.12710707
     1          0.26136010         -2.64535524          1.65304737
     8         -0.59463244          3.35403217          2.90985167
     1         -0.80597954          4.82672537          1.84090319

 Electric dipole moment (dipole orientation):
 (Debye = 10**-18 statcoulomb cm , SI units = C m)
                  (au)            (Debye)         (10**-30 SI)
   Tot        0.880332D+00      0.223758D+01      0.746377D+01
   x          0.000000D+00      0.000000D+00      0.000000D+00
   y          0.000000D+00      0.000000D+00      0.000000D+00
   z          0.880332D+00      0.223758D+01      0.746377D+01

 Dipole polarizability, Alpha (dipole orientation).
 (esu units = cm**3 , SI units = C**2 m**2 J**-1)
 Alpha(0;0):
               (au)            (10**-24 esu)      (10**-40 SI)
   iso        0.372329D+02      0.551735D+01      0.613888D+01
   aniso      0.135634D+02      0.200989D+01      0.223631D+01
   xx         0.286733D+02      0.424895D+01      0.472759D+01
   yx        -0.157220D+01     -0.232976D+00     -0.259221D+00
   yy         0.395886D+02      0.586642D+01      0.652728D+01
   zx         0.766446D-01      0.113576D-01      0.126370D-01
   zy        -0.437722D+00     -0.648637D-01     -0.721706D-01
   zz         0.434369D+02      0.643669D+01      0.716178D+01

 ----------------------------------------------------------------------
 1\1\GINC-R4I6N18\Freq\RM062X\def2TZVP\C2H4O2\HMAYES\29-Sep-2019\0\\#N 
 Geom=AllCheck Guess=TCheck SCRF=Check GenChk RM062X/def2TZVP Freq\\oba
 bel acetic_acid_0.pdb -O acetic_acid.pdb --confab --conf10000 --origin
 al\\0,1\C,-0.7497935048,0.7018139953,-0.1673714118\O,0.4518871192,0.77
 73330702,-0.1773035437\C,-1.5463418479,-0.5523342731,0.0118060246\H,-2
 .1940582729,-0.4478726799,0.8816810097\H,-2.1833983907,-0.7026456504,-
 0.8593055559\H,-0.8783906877,-1.3974835142,0.1393098146\O,-1.534840672
 6,1.7777315465,-0.3228108392\H,-0.9670637426,2.5554575056,-0.435005498
 4\\Version=ES64L-G16RevB.01\HF=-229.0961612\RMSD=2.058e-09\RMSF=2.713e
 -05\ZeroPoint=0.0620415\Thermal=0.0666048\Dipole=-0.8803269,0.0020592,
 -0.0022841\DipoleDeriv=2.2973882,-0.3159359,0.047961,-0.2857886,1.8458
 269,-0.2151211,0.0435171,-0.2149476,0.3810313,-1.6793369,0.118761,-0.0
 185642,-0.1835088,-0.8130709,0.0504603,0.0253248,0.0505336,-0.4673615,
 -0.1850734,-0.2179874,0.0305171,-0.1657631,-0.1929127,0.0286877,0.0222
 614,0.0278886,0.0090891,0.0781828,0.006442,0.0598258,0.0002189,0.05659
 01,-0.0425768,0.0843051,-0.0066778,0.0247535,0.08003,-0.0110208,-0.058
 0549,-0.024403,0.0675622,0.0297972,-0.0794884,-0.0059942,0.0121413,0.0
 149529,0.082347,-0.0125698,0.0311265,-0.0055874,0.0171415,-0.0050442,0
 .017725,0.1072714,-0.875319,0.3776593,-0.0549137,0.666607,-1.3703456,0
 .1322877,-0.096666,0.1323235,-0.4726951,0.2691755,-0.0402651,0.0057988
 ,-0.0384889,0.4119374,-0.0006764,0.0057902,-0.0008513,0.4057701\Polar=
 43.4392784,0.4326607,39.5791295,-0.043116,-1.5964764,28.6804141\Quadru
 pole=-2.2651798,2.9234366,-0.6582568,0.3897761,0.0554263,-0.529023\PG=
 C01 [X(C2H4O2)]\NImag=0\\0.98058912,0.07434847,0.60840934,-0.01011476,
 -0.05272744,0.24954311,-0.72344898,-0.08091295,0.01109190,0.86050304,-
 0.05720610,-0.12248226,0.00589662,0.03543945,0.10537026,0.00770178,0.0
 0588011,-0.08207334,-0.00442922,-0.01068824,0.03263123,-0.10750006,-0.
 05457594,0.00783174,-0.03975490,-0.03635914,0.00510393,0.57096385,-0.0
 5393012,-0.18449467,0.01286172,-0.01037259,0.00538075,0.00327388,-0.06
 411042,0.55048214,0.00776692,0.01294654,-0.09696293,0.00140266,0.00326
 915,0.02763856,0.00902379,-0.00114051,0.54572406,-0.01420467,0.0029888
 5,0.01538192,-0.00126813,-0.00430494,-0.00177595,-0.13940503,0.0174424
 2,0.13542866,0.15153154,-0.01459174,0.00712727,0.02774469,-0.00398417,
 -0.00406521,-0.00364371,0.01749182,-0.05062191,-0.01991310,-0.01568504
 ,0.05001119,0.00103850,-0.00107621,-0.00283361,-0.00081929,-0.00003283
 ,-0.00047499,0.13420829,-0.01980608,-0.22029358,-0.14574733,0.02284509
 ,0.23732209,-0.01401739,-0.00157433,-0.01577239,-0.00126636,-0.0035823
 1,0.00297104,-0.13608170,-0.02177705,-0.13363680,0.01250832,0.00342154
 ,0.01585015,0.14789854,-0.01400325,-0.00106126,-0.02846561,-0.00354059
 ,-0.00273069,0.00431523,-0.02145528,-0.05361222,-0.03048545,-0.0012119
 3,-0.00104254,-0.00177929,0.02638332,0.05284465,0.00298820,0.00051116,
 0.00506967,0.00190886,0.00066908,-0.00175183,-0.13242209,-0.03048630,-
 0.22034132,-0.01577261,-0.00374394,-0.01959204,0.14290419,0.03285671,0
 .23793480,0.01132125,-0.01533053,0.00234973,0.00146870,0.00066417,-0.0
 0009741,-0.15978921,0.14279860,-0.02146872,-0.00984837,0.01254053,-0.0
 0417537,-0.00971298,0.01296492,0.00030267,0.16738718,0.02168812,-0.019
 41419,0.00249014,0.00025076,0.00365944,-0.00059567,0.13402992,-0.22001
 279,0.02613647,-0.00047152,-0.00054852,-0.00035424,-0.00456218,0.00571
 621,0.00009335,-0.14797748,0.23808732,-0.00309228,0.00222625,-0.003606
 79,-0.00001752,-0.00056265,-0.00026569,-0.02018484,0.02618630,-0.05089
 411,0.01430278,-0.02080993,0.00500982,-0.01371280,0.02074401,-0.001408
 64,0.02230034,-0.02914799,0.04922603,-0.15527219,0.05161748,-0.0074461
 3,-0.09231789,0.06806735,-0.00988309,0.01273596,-0.01356420,0.00198583
 ,0.00081052,0.00069722,-0.00031195,0.00079877,0.00074729,0.00008404,-0
 .00137596,-0.00371422,0.00051512,0.45000649,0.06342258,-0.23925048,0.0
 2476082,0.06913733,0.00587456,0.00347668,0.01919345,-0.04541466,0.0083
 6946,0.00139003,-0.00129562,0.00003427,0.00166962,-0.00065960,0.000347
 06,-0.00479878,-0.00661967,0.00111982,0.08972272,0.60739084,-0.0091473
 2,0.02475357,-0.07076567,-0.01005510,0.00348635,0.02924089,-0.00275327
 ,0.00831699,0.01138474,-0.00122495,-0.00183258,0.00057340,0.00079180,0
 .00222236,-0.00008085,0.00067459,0.00113040,0.00109086,-0.01283445,-0.
 08228916,0.04953222,0.02253292,0.02343895,-0.00332200,-0.00391548,-0.0
 0271848,0.00040892,-0.00116890,0.00351337,-0.00050234,-0.00012417,0.00
 010985,-0.00004299,-0.00012719,0.00011552,0.00000674,0.00054938,0.0007
 5658,-0.00011080,-0.21538570,-0.23973694,0.03454871,0.19763915,-0.0197
 2796,-0.04883375,0.00743905,-0.00601723,0.00899314,-0.00201827,0.00578
 559,-0.00170663,0.00081744,-0.00014787,0.00043534,0.00016930,0.0000213
 9,0.00054544,-0.00024712,-0.00086144,-0.00086780,0.00024419,-0.1935736
 4,-0.32002538,0.04421208,0.21452116,0.36145964,0.00285896,0.00748602,0
 .00162955,0.00091772,-0.00203748,-0.00494484,-0.00080754,0.00079401,0.
 00374457,-0.00059250,-0.00064652,0.00028891,0.00060481,0.00059205,0.00
 017020,0.00011418,0.00024755,0.00084852,0.02789063,0.04418105,-0.02097
 559,-0.03098625,-0.05061668,0.01923868\\-0.00006566,-0.00004277,0.0000
 3287,0.00005571,0.00002560,-0.00000810,-0.00001415,0.00002825,-0.00001
 277,-0.00000395,0.00000547,0.00000664,-0.00000009,-0.00000069,-0.00001
 341,0.00000767,-0.00001001,0.00000241,0.00004074,0.00003395,-0.0000135
 1,-0.00002027,-0.00003981,0.00000587\\\@


 Job cpu time:       0 days  0 hours 15 minutes 49.2 seconds.
 Elapsed time:       0 days  0 hours  0 minutes 27.2 seconds.
 File lengths (MBytes):  RWF=     47 Int=      0 D2E=      0 Chk=      8 Scr=      1
 Normal termination of Gaussian 16 at Sun Sep 29 14:39:23 2019.
