 Entering Gaussian System, Link 0=g16
 Initial command:
 /opt/gaussian/16.B.01/g16/l1.exe "/oasis/scratch/comet/mayes/temp_project/Gau-4651.inp" -scrdir="/oasis/scratch/comet/mayes/temp_project/"
 Entering Link 1 = /opt/gaussian/16.B.01/g16/l1.exe PID=      4652.
  
 Copyright (c) 1988-2017, Gaussian, Inc.  All Rights Reserved.

 ******************************************
 Gaussian 16:  ES64L-G16RevB.01 20-Dec-2017
                13-Oct-2019 
 ******************************************
 %RWF=/oasis/scratch/comet/mayes/temp_project/co_gas.rwf
 %NoSave
 %Chk=/oasis/scratch/comet/mayes/temp_project/co_gas.chk
 %cpu=0-23
 SetSPE:  set environment variable "MP_BIND" = "yes"
 SetSPE:  set environment variable "MP_BLIST" = "0,1,2,3,4,5,6,7,8,9,10,11,12,13,14,15,16,17,18,19,20,21,22,23"
 Will use up to   24 processors via shared memory.
 %mem=96GB
 ---------------------------------------------------------------
 # m062x/Def2TZVP nosymm scf=xqc opt freq=NoRaman CPHF=Grid=Fine
 ---------------------------------------------------------------
 1/18=20,19=15,26=3,38=1/1,3;
 2/9=110,12=2,15=1,17=6,18=5,40=1/2;
 3/5=44,7=101,11=2,25=1,30=1,71=1,74=-55/1,2,3;
 4//1;
 5/5=2,8=3,13=1,38=5/2,8;
 6/7=2,8=2,9=2,10=2,28=1/1;
 7/30=1/1,2,3,16;
 1/18=20,19=15,26=3/3(2);
 2/9=110,15=1/2;
 99//99;
 2/9=110,15=1/2;
 3/5=44,7=101,11=2,25=1,30=1,71=1,74=-55/1,2,3;
 4/5=5,16=3,69=1/1;
 5/5=2,8=3,13=1,38=5/2,8;
 7/30=1/1,2,3,16;
 1/18=20,19=15,26=3/3(-5);
 2/9=110,15=1/2;
 6/7=2,8=2,9=2,10=2,19=2,28=1/1;
 99/9=1/99;
 ---------------------------------------
 from lmethyllactate_ts1_ts_ircr_opt.log
 ---------------------------------------
 Symbolic Z-matrix:
 Charge =  0 Multiplicity = 1
 C                    -0.09252  -1.92708  -0.77688 
 O                    -0.53762  -2.62744  -0.02348 
 

 GradGradGradGradGradGradGradGradGradGradGradGradGradGradGradGradGradGrad
 Berny optimization.
 Initialization pass.
                           ----------------------------
                           !    Initial Parameters    !
                           ! (Angstroms and Degrees)  !
 --------------------------                            --------------------------
 ! Name  Definition              Value          Derivative Info.                !
 --------------------------------------------------------------------------------
 ! R1    R(1,2)                  1.1208         estimate D2E/DX2                !
 --------------------------------------------------------------------------------
 Trust Radius=3.00D-01 FncErr=1.00D-07 GrdErr=1.00D-06 EigMax=2.50D+02 EigMin=1.00D-04
 Number of steps in this run=     20 maximum allowed number of steps=    100.
 GradGradGradGradGradGradGradGradGradGradGradGradGradGradGradGradGradGrad

                          Input orientation:                          
 ---------------------------------------------------------------------
 Center     Atomic      Atomic             Coordinates (Angstroms)
 Number     Number       Type             X           Y           Z
 ---------------------------------------------------------------------
      1          6           0       -0.092518   -1.927082   -0.776880
      2          8           0       -0.537618   -2.627443   -0.023484
 ---------------------------------------------------------------------
 Symmetry turned off by external request.
 Stoichiometry    CO
 Framework group  C*V[C*(CO)]
 Deg. of freedom     1
 Full point group                 C*V     NOp   4
 Rotational constants (GHZ):           0.0000000          58.6767049          58.6767049
 Standard basis: def2TZVP (5D, 7F)
    62 basis functions,   102 primitive gaussians,    72 cartesian basis functions
     7 alpha electrons        7 beta electrons
       nuclear repulsion energy        22.6625430297 Hartrees.
 NAtoms=    2 NActive=    2 NUniq=    2 SFac= 1.00D+00 NAtFMM=   60 NAOKFM=F Big=F
 Integral buffers will be    131072 words long.
 Raffenetti 2 integral format.
 Two-electron integral symmetry is turned off.
 One-electron integrals computed using PRISM.
   1 Symmetry operations used in ECPInt.
 ECPInt:  NShTT=     253 NPrTT=     864 LenC2=     254 LenP2D=     811.
 LDataN:  DoStor=T MaxTD1= 6 Len=  172
 NBasis=    62 RedAO= T EigKep=  1.17D-03  NBF=    62
 NBsUse=    62 1.00D-06 EigRej= -1.00D+00 NBFU=    62
 ExpMin= 9.52D-02 ExpMax= 2.70D+04 ExpMxC= 9.22D+02 IAcc=3 IRadAn=         5 AccDes= 0.00D+00
 Harris functional with IExCor= 1009 and IRadAn=       5 diagonalized for initial guess.
 HarFok:  IExCor= 1009 AccDes= 0.00D+00 IRadAn=         5 IDoV= 1 UseB2=F ITyADJ=14
 ICtDFT=  3500011 ScaDFX=  1.000000  1.000000  1.000000  1.000000
 FoFCou: FMM=F IPFlag=           0 FMFlag=      100000 FMFlg1=           0
         NFxFlg=           0 DoJE=T BraDBF=F KetDBF=T FulRan=T
         wScrn=  0.000000 ICntrl=       500 IOpCl=  0 I1Cent=   200000004 NGrid=           0
         NMat0=    1 NMatS0=      1 NMatT0=    0 NMatD0=    1 NMtDS0=    0 NMtDT0=    0
 Symmetry not used in FoFCou.
 Keep R1 ints in memory in canonical form, NReq=23463979.
 Requested convergence on RMS density matrix=1.00D-08 within  32 cycles.
 Requested convergence on MAX density matrix=1.00D-06.
 Requested convergence on             energy=1.00D-06.
 No special actions if energy rises.
 Integral accuracy reduced to 1.0D-05 until final iterations.
 Initial convergence to 1.0D-05 achieved.  Increase integral accuracy.
 SCF Done:  E(RM062X) =  -113.322293788     A.U. after   11 cycles
            NFock= 11  Conv=0.23D-08     -V/T= 2.0037
 QCSCF skips out because SCF is already converged.

 **********************************************************************

            Population analysis using the SCF Density.

 **********************************************************************

 Alpha  occ. eigenvalues --  -19.73410 -10.65489  -1.29584  -0.67312  -0.55874
 Alpha  occ. eigenvalues --   -0.55874  -0.44906
 Alpha virt. eigenvalues --    0.02329   0.02329   0.14725   0.22005   0.25459
 Alpha virt. eigenvalues --    0.25459   0.40566   0.52713   0.52713   0.63915
 Alpha virt. eigenvalues --    0.67739   0.67739   0.73332   0.90072   0.90072
 Alpha virt. eigenvalues --    1.24319   1.31384   1.42442   1.42443   1.42696
 Alpha virt. eigenvalues --    1.55274   1.55274   1.94239   1.94239   2.23315
 Alpha virt. eigenvalues --    2.64290   2.64290   2.65277   2.65277   2.83370
 Alpha virt. eigenvalues --    2.83371   2.87220   2.95493   2.95493   2.99522
 Alpha virt. eigenvalues --    2.99523   3.10031   3.63751   3.63752   3.82098
 Alpha virt. eigenvalues --    4.24454   5.09515   5.09515   5.49263   5.49263
 Alpha virt. eigenvalues --    6.16883   6.16883   6.24141   6.24141   6.47763
 Alpha virt. eigenvalues --    6.65527   6.65528   7.04346  21.93467  43.62917
          Condensed to atoms (all electrons):
               1          2
     1  C    5.412064   0.594134
     2  O    0.594134   7.399668
 Mulliken charges:
               1
     1  C   -0.006198
     2  O    0.006198
 Sum of Mulliken charges =  -0.00000
 Mulliken charges with hydrogens summed into heavy atoms:
               1
     1  C   -0.006198
     2  O    0.006198
 Electronic spatial extent (au):  <R**2>=            322.3149
 Charge=             -0.0000 electrons
 Dipole moment (field-independent basis, Debye):
    X=             -0.0201    Y=             -0.0317    Z=              0.0341  Tot=              0.0507
 Quadrupole moment (field-independent basis, Debye-Ang):
   XX=            -10.5180   YY=            -10.8283   ZZ=            -11.1164
   XY=             -0.4154   XZ=              0.5042   YZ=              0.7326
 Traceless Quadrupole moment (field-independent basis, Debye-Ang):
   XX=              0.3029   YY=             -0.0074   ZZ=             -0.2955
   XY=             -0.4154   XZ=              0.5042   YZ=              0.7326
 Octapole moment (field-independent basis, Debye-Ang**2):
  XXX=              9.3424  YYY=             73.2328  ZZZ=             14.7406  XYY=              4.9890
  XXY=             23.8000  XXZ=              4.3729  XZZ=              2.5816  YZZ=             23.8660
  YYZ=              1.6635  XYZ=             -0.8885
 Hexadecapole moment (field-independent basis, Debye-Ang**3):
 XXXX=            -18.4102 YYYY=           -347.2362 ZZZZ=            -33.0475 XXXY=            -23.9459
 XXXZ=             -0.8655 YYYX=            -30.0947 YYYZ=            -17.4219 ZZZX=             -0.4080
 ZZZY=            -26.9025 XXYY=            -59.9779 XXZZ=             -8.1827 YYZZ=            -60.1850
 XXYZ=             -8.2449 YYXZ=              1.2758 ZZXY=             -6.9961
 N-N= 2.266254302975D+01 E-N=-3.115014480234D+02  KE= 1.128994570845D+02
   1 Symmetry operations used in ECPInt.
 ECPInt:  NShTT=     253 NPrTT=     864 LenC2=     254 LenP2D=     811.
 LDataN:  DoStor=T MaxTD1= 7 Len=  274
 Calling FoFJK, ICntrl=      2127 FMM=F ISym2X=0 I1Cent= 0 IOpClX= 0 NMat=1 NMatS=1 NMatT=0.
 -------------------------------------------------------------------
 Center     Atomic                   Forces (Hartrees/Bohr)
 Number     Number              X              Y              Z
 -------------------------------------------------------------------
      1        6          -0.000639537   -0.001025405    0.001114916
      2        8           0.000639537    0.001025405   -0.001114916
 -------------------------------------------------------------------
 Cartesian Forces:  Max     0.001114916 RMS     0.000949298

 GradGradGradGradGradGradGradGradGradGradGradGradGradGradGradGradGradGrad
 Berny optimization.
 FormGI is forming the generalized inverse of G from B-inverse, IUseBI=4.
 Internal  Forces:  Max     0.001644148 RMS     0.001644148
 Search for a local minimum.
 Step number   1 out of a maximum of   20
 All quantities printed in internal units (Hartrees-Bohrs-Radians)
 Mixed Optimization -- RFO/linear search
 Second derivative matrix not updated -- first step.
 The second derivative matrix:
                          R1
           R1           1.57292
 ITU=  0
     Eigenvalues ---    1.57292
 RFO step:  Lambda=-1.71859638D-06 EMin= 1.57292236D+00
 Linear search not attempted -- first point.
 Iteration  1 RMS(Cart)=  0.00073912 RMS(Int)=  0.00000001
 Iteration  2 RMS(Cart)=  0.00000001 RMS(Int)=  0.00000000
 Variable       Old X    -DE/DX   Delta X   Delta X   Delta X     New X
                                 (Linear)    (Quad)   (Total)
    R1        2.11803  -0.00164   0.00000  -0.00105  -0.00105   2.11699
         Item               Value     Threshold  Converged?
 Maximum Force            0.001644     0.000450     NO 
 RMS     Force            0.001644     0.000300     NO 
 Maximum Displacement     0.000351     0.001800     YES
 RMS     Displacement     0.000739     0.001200     YES
 Predicted change in Energy=-8.592991D-07
 GradGradGradGradGradGradGradGradGradGradGradGradGradGradGradGradGradGrad

                          Input orientation:                          
 ---------------------------------------------------------------------
 Center     Atomic      Atomic             Coordinates (Angstroms)
 Number     Number       Type             X           Y           Z
 ---------------------------------------------------------------------
      1          6           0       -0.092628   -1.927255   -0.776694
      2          8           0       -0.537508   -2.627270   -0.023670
 ---------------------------------------------------------------------
 Symmetry turned off by external request.
 Stoichiometry    CO
 Framework group  C*V[C*(CO)]
 Deg. of freedom     1
 Full point group                 C*V     NOp   4
 Rotational constants (GHZ):           0.0000000          58.7346635          58.7346635
 Standard basis: def2TZVP (5D, 7F)
    62 basis functions,   102 primitive gaussians,    72 cartesian basis functions
     7 alpha electrons        7 beta electrons
       nuclear repulsion energy        22.6737328599 Hartrees.
 NAtoms=    2 NActive=    2 NUniq=    2 SFac= 1.00D+00 NAtFMM=   60 NAOKFM=F Big=F
 Integral buffers will be    131072 words long.
 Raffenetti 2 integral format.
 Two-electron integral symmetry is turned off.
 One-electron integrals computed using PRISM.
   1 Symmetry operations used in ECPInt.
 ECPInt:  NShTT=     253 NPrTT=     864 LenC2=     254 LenP2D=     811.
 LDataN:  DoStor=T MaxTD1= 6 Len=  172
 NBasis=    62 RedAO= T EigKep=  1.17D-03  NBF=    62
 NBsUse=    62 1.00D-06 EigRej= -1.00D+00 NBFU=    62
 Initial guess from the checkpoint file:  "/oasis/scratch/comet/mayes/temp_project/co_gas.chk"
 B after Tr=     0.000030    0.000047   -0.000050
         Rot=    1.000000    0.000000    0.000000    0.000000 Ang=   0.00 deg.
 Keep R1 ints in memory in canonical form, NReq=23463979.
 Requested convergence on RMS density matrix=1.00D-08 within  32 cycles.
 Requested convergence on MAX density matrix=1.00D-06.
 Requested convergence on             energy=1.00D-06.
 No special actions if energy rises.
 SCF Done:  E(RM062X) =  -113.322294772     A.U. after    6 cycles
            NFock=  6  Conv=0.60D-08     -V/T= 2.0037
 QCSCF skips out because SCF is already converged.
   1 Symmetry operations used in ECPInt.
 ECPInt:  NShTT=     253 NPrTT=     864 LenC2=     254 LenP2D=     811.
 LDataN:  DoStor=T MaxTD1= 7 Len=  274
 Calling FoFJK, ICntrl=      2127 FMM=F ISym2X=0 I1Cent= 0 IOpClX= 0 NMat=1 NMatS=1 NMatT=0.
 -------------------------------------------------------------------
 Center     Atomic                   Forces (Hartrees/Bohr)
 Number     Number              X              Y              Z
 -------------------------------------------------------------------
      1        6          -0.000081283   -0.000147063    0.000169674
      2        8           0.000081283    0.000147063   -0.000169674
 -------------------------------------------------------------------
 Cartesian Forces:  Max     0.000169674 RMS     0.000137869

 GradGradGradGradGradGradGradGradGradGradGradGradGradGradGradGradGradGrad
 Berny optimization.
 Using GEDIIS/GDIIS optimizer.
 Internal  Forces:  Max     0.000238227 RMS     0.000238227
 Search for a local minimum.
 Step number   2 out of a maximum of   20
 All quantities printed in internal units (Hartrees-Bohrs-Radians)
 Mixed Optimization -- En-DIIS/RFO-DIIS
 Update second derivatives using D2CorX and points    2
 DE= -9.84D-07 DEPred=-8.59D-07 R= 1.15D+00
 Trust test= 1.15D+00 RLast= 1.05D-03 DXMaxT set to 3.00D-01
 The second derivative matrix:
                          R1
           R1           1.57292
 ITU=  0  0
 Use linear search instead of GDIIS.
     Eigenvalues ---    1.57292
 RFO step:  Lambda= 0.00000000D+00 EMin= 1.57292236D+00
 Quartic linear search produced a step of  0.16908.
 Iteration  1 RMS(Cart)=  0.00012497 RMS(Int)=  0.00000000
 Iteration  2 RMS(Cart)=  0.00000000 RMS(Int)=  0.00000000
 Variable       Old X    -DE/DX   Delta X   Delta X   Delta X     New X
                                 (Linear)    (Quad)   (Total)
    R1        2.11699  -0.00024  -0.00018   0.00000  -0.00018   2.11681
         Item               Value     Threshold  Converged?
 Maximum Force            0.000238     0.000450     YES
 RMS     Force            0.000238     0.000300     YES
 Maximum Displacement     0.000059     0.001800     YES
 RMS     Displacement     0.000125     0.001200     YES
 Predicted change in Energy=-1.753784D-08
 Optimization completed.
    -- Stationary point found.
                           ----------------------------
                           !   Optimized Parameters   !
                           ! (Angstroms and Degrees)  !
 --------------------------                            --------------------------
 ! Name  Definition              Value          Derivative Info.                !
 --------------------------------------------------------------------------------
 ! R1    R(1,2)                  1.1203         -DE/DX =   -0.0002              !
 --------------------------------------------------------------------------------
 GradGradGradGradGradGradGradGradGradGradGradGradGradGradGradGradGradGrad

                          Input orientation:                          
 ---------------------------------------------------------------------
 Center     Atomic      Atomic             Coordinates (Angstroms)
 Number     Number       Type             X           Y           Z
 ---------------------------------------------------------------------
      1          6           0       -0.092628   -1.927255   -0.776694
      2          8           0       -0.537508   -2.627270   -0.023670
 ---------------------------------------------------------------------
 Symmetry turned off by external request.
 Stoichiometry    CO
 Framework group  C*V[C*(CO)]
 Deg. of freedom     1
 Full point group                 C*V     NOp   4
 Rotational constants (GHZ):           0.0000000          58.7346635          58.7346635

 **********************************************************************

            Population analysis using the SCF Density.

 **********************************************************************

 Alpha  occ. eigenvalues --  -19.73406 -10.65467  -1.29616  -0.67314  -0.55896
 Alpha  occ. eigenvalues --   -0.55896  -0.44901
 Alpha virt. eigenvalues --    0.02349   0.02349   0.14724   0.22011   0.25460
 Alpha virt. eigenvalues --    0.25460   0.40560   0.52714   0.52714   0.63970
 Alpha virt. eigenvalues --    0.67740   0.67740   0.73342   0.90092   0.90092
 Alpha virt. eigenvalues --    1.24395   1.31397   1.42436   1.42436   1.42662
 Alpha virt. eigenvalues --    1.55286   1.55286   1.94259   1.94259   2.23365
 Alpha virt. eigenvalues --    2.64294   2.64295   2.65305   2.65305   2.83407
 Alpha virt. eigenvalues --    2.83407   2.87233   2.95501   2.95501   2.99535
 Alpha virt. eigenvalues --    2.99535   3.10091   3.63810   3.63811   3.82106
 Alpha virt. eigenvalues --    4.24615   5.09519   5.09519   5.49339   5.49339
 Alpha virt. eigenvalues --    6.17027   6.17027   6.24151   6.24152   6.47969
 Alpha virt. eigenvalues --    6.65502   6.65503   7.04444  21.93439  43.63013
          Condensed to atoms (all electrons):
               1          2
     1  C    5.412432   0.594552
     2  O    0.594552   7.398464
 Mulliken charges:
               1
     1  C   -0.006984
     2  O    0.006984
 Sum of Mulliken charges =  -0.00000
 Mulliken charges with hydrogens summed into heavy atoms:
               1
     1  C   -0.006984
     2  O    0.006984
 Electronic spatial extent (au):  <R**2>=            322.2880
 Charge=             -0.0000 electrons
 Dipole moment (field-independent basis, Debye):
    X=             -0.0210    Y=             -0.0330    Z=              0.0355  Tot=              0.0528
 Quadrupole moment (field-independent basis, Debye-Ang):
   XX=            -10.5163   YY=            -10.8212   ZZ=            -11.1167
   XY=             -0.4132   XZ=              0.5043   YZ=              0.7303
 Traceless Quadrupole moment (field-independent basis, Debye-Ang):
   XX=              0.3018   YY=             -0.0032   ZZ=             -0.2986
   XY=             -0.4132   XZ=              0.5043   YZ=              0.7303
 Octapole moment (field-independent basis, Debye-Ang**2):
  XXX=              9.3399  YYY=             73.2038  ZZZ=             14.7419  XYY=              4.9832
  XXY=             23.7956  XXZ=              4.3727  XZZ=              2.5812  YZZ=             23.8659
  YYZ=              1.6666  XYZ=             -0.8893
 Hexadecapole moment (field-independent basis, Debye-Ang**3):
 XXXX=            -18.4032 YYYY=           -347.1201 ZZZZ=            -33.0394 XXXY=            -23.9376
 XXXZ=             -0.8674 YYYX=            -30.0756 YYYZ=            -17.4272 ZZZX=             -0.4106
 ZZZY=            -26.9088 XXYY=            -59.9643 XXZZ=             -8.1801 YYZZ=            -60.1796
 XXYZ=             -8.2455 YYXZ=              1.2777 ZZXY=             -6.9938
 N-N= 2.267373285993D+01 E-N=-3.115256202551D+02  KE= 1.129023972934D+02
 1\1\GINC-COMET-15-72\FOpt\RM062X\def2TZVP\C1O1\MAYES\13-Oct-2019\0\\# 
 m062x/Def2TZVP nosymm scf=xqc opt freq=NoRaman CPHF=Grid=Fine\\from lm
 ethyllactate_ts1_ts_ircr_opt.log\\0,1\C,-0.0926278318,-1.9272548194,-0
 .7766940938\O,-0.5375081682,-2.6272701806,-0.0236699062\\Version=ES64L
 -G16RevB.01\HF=-113.3222948\RMSD=6.031e-09\RMSF=1.379e-04\Dipole=-0.00
 82562,-0.0129937,0.0139764\Quadrupole=0.2243762,-0.0023628,-0.2220134,
 -0.3072212,0.3749484,0.5429264\PG=C*V [C*(C1O1)]\\@


 EDUCATION IS NOT TRAINING BUT RATHER THE PROCESS THAT EQUIPS YOU TO
 ENTERTAIN YOURSELF, A FRIEND, OR AN IDEA.  -- WALLACE STERLING
 Job cpu time:       0 days  0 hours  1 minutes 30.2 seconds.
 Elapsed time:       0 days  0 hours  0 minutes  4.5 seconds.
 File lengths (MBytes):  RWF=      9 Int=      0 D2E=      0 Chk=      1 Scr=      1
 Normal termination of Gaussian 16 at Sun Oct 13 10:51:29 2019.
 Link1:  Proceeding to internal job step number  2.
 --------------------------------------------------------------------
 #N Geom=AllCheck Guess=TCheck SCRF=Check GenChk RM062X/def2TZVP Freq
 --------------------------------------------------------------------
 1/10=4,29=7,30=1,38=1,40=1/1,3;
 2/12=2,15=1,40=1/2;
 3/5=44,7=101,11=2,14=-4,25=1,30=1,70=2,71=2,74=-55,116=1,140=1/1,2,3;
 4/5=101/1;
 5/5=2,8=3,13=1,38=6,98=1/2,8;
 8/6=4,10=90,11=11/1;
 11/6=1,8=1,9=11,15=111,16=1,31=1/1,2,10;
 10/6=1,31=1,60=4/2;
 6/7=2,8=2,9=2,10=2,28=1/1;
 7/8=1,10=1,25=1,30=1/1,2,3,16;
 1/10=4,30=1/3;
 99//99;
 Structure from the checkpoint file:  "/oasis/scratch/comet/mayes/temp_project/co_gas.chk"
 ---------------------------------------
 from lmethyllactate_ts1_ts_ircr_opt.log
 ---------------------------------------
 Charge =  0 Multiplicity = 1
 Redundant internal coordinates found in file.  (old form).
 C,0,-0.0926278318,-1.9272548194,-0.7766940938
 O,0,-0.5375081682,-2.6272701806,-0.0236699062
 Recover connectivity data from disk.

 GradGradGradGradGradGradGradGradGradGradGradGradGradGradGradGradGradGrad
 Berny optimization.
 Initialization pass.
                           ----------------------------
                           !    Initial Parameters    !
                           ! (Angstroms and Degrees)  !
 --------------------------                            --------------------------
 ! Name  Definition              Value          Derivative Info.                !
 --------------------------------------------------------------------------------
 ! R1    R(1,2)                  1.1203         calculate D2E/DX2 analytically  !
 --------------------------------------------------------------------------------
 Trust Radius=3.00D-01 FncErr=1.00D-07 GrdErr=1.00D-07 EigMax=2.50D+02 EigMin=1.00D-04
 Number of steps in this run=      2 maximum allowed number of steps=      2.
 GradGradGradGradGradGradGradGradGradGradGradGradGradGradGradGradGradGrad

                          Input orientation:                          
 ---------------------------------------------------------------------
 Center     Atomic      Atomic             Coordinates (Angstroms)
 Number     Number       Type             X           Y           Z
 ---------------------------------------------------------------------
      1          6           0       -0.092628   -1.927255   -0.776694
      2          8           0       -0.537508   -2.627270   -0.023670
 ---------------------------------------------------------------------
 Symmetry turned off by external request.
 Stoichiometry    CO
 Framework group  C*V[C*(CO)]
 Deg. of freedom     1
 Full point group                 C*V     NOp   4
 Rotational constants (GHZ):           0.0000000          58.7346635          58.7346635
 Standard basis: def2TZVP (5D, 7F)
    62 basis functions,   102 primitive gaussians,    72 cartesian basis functions
     7 alpha electrons        7 beta electrons
       nuclear repulsion energy        22.6737328599 Hartrees.
 NAtoms=    2 NActive=    2 NUniq=    2 SFac= 1.00D+00 NAtFMM=   60 NAOKFM=F Big=F
 Integral buffers will be    131072 words long.
 Raffenetti 2 integral format.
 Two-electron integral symmetry is turned off.
 One-electron integrals computed using PRISM.
   1 Symmetry operations used in ECPInt.
 ECPInt:  NShTT=     253 NPrTT=     864 LenC2=     254 LenP2D=     811.
 LDataN:  DoStor=T MaxTD1= 6 Len=  172
 NBasis=    62 RedAO= T EigKep=  1.17D-03  NBF=    62
 NBsUse=    62 1.00D-06 EigRej= -1.00D+00 NBFU=    62
 Initial guess from the checkpoint file:  "/oasis/scratch/comet/mayes/temp_project/co_gas.chk"
 B after Tr=     0.000000    0.000000    0.000000
         Rot=    1.000000    0.000000    0.000000    0.000000 Ang=   0.00 deg.
 Keep R1 ints in memory in canonical form, NReq=23463979.
 Requested convergence on RMS density matrix=1.00D-08 within  32 cycles.
 Requested convergence on MAX density matrix=1.00D-06.
 Requested convergence on             energy=1.00D-06.
 No special actions if energy rises.
 SCF Done:  E(RM062X) =  -113.322294772     A.U. after    1 cycles
            NFock=  1  Conv=0.14D-08     -V/T= 2.0037
 QCSCF skips out because SCF is already converged.
 DoSCS=F DFT=T ScalE2(SS,OS)=  1.000000  1.000000
 Range of M.O.s used for correlation:     1    62
 NBasis=    62 NAE=     7 NBE=     7 NFC=     0 NFV=     0
 NROrb=     62 NOA=     7 NOB=     7 NVA=    55 NVB=    55

 **** Warning!!: The largest alpha MO coefficient is  0.10606448D+02

   1 Symmetry operations used in ECPInt.
 ECPInt:  NShTT=     253 NPrTT=     864 LenC2=     254 LenP2D=     811.
 LDataN:  DoStor=T MaxTD1= 7 Len=  274
 Symmetrizing basis deriv contribution to polar:
 IMax=3 JMax=2 DiffMx= 0.00D+00
 G2DrvN: will do     3 centers at a time, making    1 passes.
 Calling FoFCou, ICntrl=  3107 FMM=F I1Cent=   0 AccDes= 0.00D+00.
 End of G2Drv F.D. properties file   721 does not exist.
 End of G2Drv F.D. properties file   722 does not exist.
 End of G2Drv F.D. properties file   788 does not exist.
          IDoAtm=11
          Differentiating once with respect to electric field.
                with respect to dipole field.
          Differentiating once with respect to nuclear coordinates.
 Keep R1 ints in memory in canonical form, NReq=23407124.
          There are     9 degrees of freedom in the 1st order CPHF.  IDoFFX=6 NUNeed=     3.
      6 vectors produced by pass  0 Test12= 4.28D-15 1.11D-08 XBig12= 5.23D+00 1.27D+00.
 AX will form     6 AO Fock derivatives at one time.
      6 vectors produced by pass  1 Test12= 4.28D-15 1.11D-08 XBig12= 6.88D-01 4.41D-01.
      6 vectors produced by pass  2 Test12= 4.28D-15 1.11D-08 XBig12= 8.25D-03 3.44D-02.
      6 vectors produced by pass  3 Test12= 4.28D-15 1.11D-08 XBig12= 6.84D-05 3.28D-03.
      6 vectors produced by pass  4 Test12= 4.28D-15 1.11D-08 XBig12= 9.31D-07 2.99D-04.
      6 vectors produced by pass  5 Test12= 4.28D-15 1.11D-08 XBig12= 7.37D-09 3.07D-05.
      6 vectors produced by pass  6 Test12= 4.28D-15 1.11D-08 XBig12= 2.03D-11 1.16D-06.
      3 vectors produced by pass  7 Test12= 4.28D-15 1.11D-08 XBig12= 7.07D-14 8.34D-08.
      1 vectors produced by pass  8 Test12= 4.28D-15 1.11D-08 XBig12= 1.37D-15 1.31D-08.
 InvSVY:  IOpt=1 It=  1 EMax= 1.11D-15
 Solved reduced A of dimension    46 with     6 vectors.
 Isotropic polarizability for W=    0.000000       11.76 Bohr**3.
 End of Minotr F.D. properties file   721 does not exist.
 End of Minotr F.D. properties file   722 does not exist.
 End of Minotr F.D. properties file   788 does not exist.

 **********************************************************************

            Population analysis using the SCF Density.

 **********************************************************************

 Alpha  occ. eigenvalues --  -19.73406 -10.65467  -1.29616  -0.67314  -0.55896
 Alpha  occ. eigenvalues --   -0.55896  -0.44901
 Alpha virt. eigenvalues --    0.02349   0.02349   0.14724   0.22011   0.25460
 Alpha virt. eigenvalues --    0.25460   0.40560   0.52714   0.52714   0.63970
 Alpha virt. eigenvalues --    0.67740   0.67740   0.73342   0.90092   0.90092
 Alpha virt. eigenvalues --    1.24395   1.31397   1.42436   1.42436   1.42662
 Alpha virt. eigenvalues --    1.55286   1.55286   1.94259   1.94259   2.23365
 Alpha virt. eigenvalues --    2.64294   2.64295   2.65305   2.65305   2.83407
 Alpha virt. eigenvalues --    2.83407   2.87233   2.95501   2.95501   2.99535
 Alpha virt. eigenvalues --    2.99535   3.10091   3.63810   3.63811   3.82106
 Alpha virt. eigenvalues --    4.24615   5.09519   5.09519   5.49339   5.49339
 Alpha virt. eigenvalues --    6.17027   6.17027   6.24151   6.24151   6.47969
 Alpha virt. eigenvalues --    6.65502   6.65503   7.04444  21.93439  43.63013
          Condensed to atoms (all electrons):
               1          2
     1  C    5.412432   0.594552
     2  O    0.594552   7.398464
 Mulliken charges:
               1
     1  C   -0.006984
     2  O    0.006984
 Sum of Mulliken charges =  -0.00000
 Mulliken charges with hydrogens summed into heavy atoms:
               1
     1  C   -0.006984
     2  O    0.006984
 APT charges:
               1
     1  C    0.265412
     2  O   -0.265412
 Sum of APT charges =  -0.00000
 APT charges with hydrogens summed into heavy atoms:
               1
     1  C    0.265412
     2  O   -0.265412
 Electronic spatial extent (au):  <R**2>=            322.2880
 Charge=             -0.0000 electrons
 Dipole moment (field-independent basis, Debye):
    X=             -0.0210    Y=             -0.0330    Z=              0.0355  Tot=              0.0528
 Quadrupole moment (field-independent basis, Debye-Ang):
   XX=            -10.5163   YY=            -10.8212   ZZ=            -11.1167
   XY=             -0.4132   XZ=              0.5043   YZ=              0.7303
 Traceless Quadrupole moment (field-independent basis, Debye-Ang):
   XX=              0.3018   YY=             -0.0032   ZZ=             -0.2986
   XY=             -0.4132   XZ=              0.5043   YZ=              0.7303
 Octapole moment (field-independent basis, Debye-Ang**2):
  XXX=              9.3399  YYY=             73.2038  ZZZ=             14.7419  XYY=              4.9832
  XXY=             23.7956  XXZ=              4.3727  XZZ=              2.5812  YZZ=             23.8659
  YYZ=              1.6666  XYZ=             -0.8893
 Hexadecapole moment (field-independent basis, Debye-Ang**3):
 XXXX=            -18.4032 YYYY=           -347.1202 ZZZZ=            -33.0394 XXXY=            -23.9376
 XXXZ=             -0.8674 YYYX=            -30.0756 YYYZ=            -17.4272 ZZZX=             -0.4106
 ZZZY=            -26.9088 XXYY=            -59.9643 XXZZ=             -8.1801 YYZZ=            -60.1796
 XXYZ=             -8.2455 YYXZ=              1.2777 ZZXY=             -6.9938
 N-N= 2.267373285993D+01 E-N=-3.115256210058D+02  KE= 1.129023976471D+02
  Exact polarizability:  11.030   1.027  11.993  -1.105  -1.739  12.247
 Approx polarizability:  12.790   1.757  14.439  -1.891  -2.975  14.873
   1 Symmetry operations used in ECPInt.
 ECPInt:  NShTT=     253 NPrTT=     864 LenC2=     254 LenP2D=     811.
 LDataN:  DoStor=T MaxTD1= 8 Len=  415
 Calling FoFJK, ICntrl=    100127 FMM=F ISym2X=0 I1Cent= 0 IOpClX= 0 NMat=1 NMatS=1 NMatT=0.
 Full mass-weighted force constant matrix:
 Low frequencies ---  -16.4741   -0.0014    0.0011    0.0013   29.7000 2279.0096
 Diagonal vibrational polarizability:
        0.0773306       0.1914716       0.2215808
 Harmonic frequencies (cm**-1), IR intensities (KM/Mole), Raman scattering
 activities (A**4/AMU), depolarization ratios for plane and unpolarized
 incident light, reduced masses (AMU), force constants (mDyne/A),
 and normal coordinates:
                      1
                      A
 Frequencies --   2279.0095
 Red. masses --     13.4388
 Frc consts  --     41.1246
 IR Inten    --     94.6443
  Atom  AN      X      Y      Z
     1   6    -0.32  -0.50   0.54
     2   8     0.24   0.37  -0.40

 -------------------
 - Thermochemistry -
 -------------------
 Temperature   298.150 Kelvin.  Pressure   1.00000 Atm.
 Atom     1 has atomic number  6 and mass  12.00000
 Atom     2 has atomic number  8 and mass  15.99491
 Molecular mass:    27.99491 amu.
 Principal axes and moments of inertia in atomic units:
                           1         2         3
     Eigenvalues --    -0.00000  30.72702  30.72702
           X           -0.39712   0.71008  -0.58145
           Y           -0.62487   0.25483   0.73797
           Z            0.67219   0.65640   0.34251
 This molecule is a prolate symmetric top.
 Rotational symmetry number  1.
 Rotational temperature (Kelvin)      2.81882
 Rotational constant (GHZ):          58.734663
 Zero-point vibrational energy      13631.5 (Joules/Mol)
                                    3.25801 (Kcal/Mol)
 Vibrational temperatures:   3278.99
          (Kelvin)
 
 Zero-point correction=                           0.005192 (Hartree/Particle)
 Thermal correction to Energy=                    0.007553
 Thermal correction to Enthalpy=                  0.008497
 Thermal correction to Gibbs Free Energy=        -0.013917
 Sum of electronic and zero-point Energies=           -113.317103
 Sum of electronic and thermal Energies=              -113.314742
 Sum of electronic and thermal Enthalpies=            -113.313798
 Sum of electronic and thermal Free Energies=         -113.336212
 
                     E (Thermal)             CV                S
                      KCal/Mol        Cal/Mol-Kelvin    Cal/Mol-Kelvin
 Total                    4.739              4.972             47.174
 Electronic               0.000              0.000              0.000
 Translational            0.889              2.981             35.923
 Rotational               0.592              1.987             11.250
 Vibrational              3.258              0.004              0.000
                       Q            Log10(Q)             Ln(Q)
 Total Bot       0.251948D+07          6.401311         14.739563
 Total V=0       0.615811D+09          8.789447         20.238451
 Vib (Bot)       0.409139D-02         -2.388129         -5.498870
 Vib (V=0)       0.100002D+01          0.000007          0.000017
 Electronic      0.100000D+01          0.000000          0.000000
 Translational   0.582201D+07          6.765073         15.577155
 Rotational      0.105771D+03          2.024368          4.661279
 -------------------------------------------------------------------
 Center     Atomic                   Forces (Hartrees/Bohr)
 Number     Number              X              Y              Z
 -------------------------------------------------------------------
      1        6          -0.000081263   -0.000147031    0.000169639
      2        8           0.000081263    0.000147031   -0.000169639
 -------------------------------------------------------------------
 Cartesian Forces:  Max     0.000169639 RMS     0.000137840
 FormGI is forming the generalized inverse of G from B-inverse, IUseBI=4.

 GradGradGradGradGradGradGradGradGradGradGradGradGradGradGradGradGradGrad
 Berny optimization.
 Internal  Forces:  Max     0.000238176 RMS     0.000238176
 Search for a local minimum.
 Step number   1 out of a maximum of    2
 All quantities printed in internal units (Hartrees-Bohrs-Radians)
 Second derivative matrix not updated -- analytic derivatives used.
 The second derivative matrix:
                          R1
           R1           1.34762
 ITU=  0
     Eigenvalues ---    1.34762
 Angle between quadratic step and forces=   0.00 degrees.
 Linear search not attempted -- first point.
 Iteration  1 RMS(Cart)=  0.00012497 RMS(Int)=  0.00000000
 Iteration  2 RMS(Cart)=  0.00000000 RMS(Int)=  0.00000000
 Variable       Old X    -DE/DX   Delta X   Delta X   Delta X     New X
                                 (Linear)    (Quad)   (Total)
    R1        2.11699  -0.00024   0.00000  -0.00018  -0.00018   2.11681
         Item               Value     Threshold  Converged?
 Maximum Force            0.000238     0.000450     YES
 RMS     Force            0.000238     0.000300     YES
 Maximum Displacement     0.000059     0.001800     YES
 RMS     Displacement     0.000125     0.001200     YES
 Predicted change in Energy=-2.104736D-08
 Optimization completed.
    -- Stationary point found.
                           ----------------------------
                           !   Optimized Parameters   !
                           ! (Angstroms and Degrees)  !
 --------------------------                            --------------------------
 ! Name  Definition              Value          Derivative Info.                !
 --------------------------------------------------------------------------------
 ! R1    R(1,2)                  1.1203         -DE/DX =   -0.0002              !
 --------------------------------------------------------------------------------
 GradGradGradGradGradGradGradGradGradGradGradGradGradGradGradGradGradGrad


 ----------------------------------------------------------------------

 Electric dipole moment (input orientation):
 (Debye = 10**-18 statcoulomb cm , SI units = C m)
                  (au)            (Debye)         (10**-30 SI)
   Tot        0.207925D-01      0.528492D-01      0.176286D+00
   x         -0.825604D-02     -0.209848D-01     -0.699976D-01
   y         -0.129935D-01     -0.330262D-01     -0.110163D+00
   z          0.139762D-01      0.355239D-01      0.118495D+00

 Dipole polarizability, Alpha (input orientation).
 (esu units = cm**3 , SI units = C**2 m**2 J**-1)
 Alpha(0;0):
               (au)            (10**-24 esu)      (10**-40 SI)
   iso        0.117570D+02      0.174220D+01      0.193846D+01
   aniso      0.414008D+01      0.613496D+00      0.682607D+00
   xx         0.110300D+02      0.163448D+01      0.181860D+01
   yx         0.102727D+01      0.152226D+00      0.169374D+00
   yy         0.119935D+02      0.177725D+01      0.197746D+01
   zx        -0.110517D+01     -0.163770D+00     -0.182219D+00
   zy        -0.173903D+01     -0.257697D+00     -0.286727D+00
   zz         0.122475D+02      0.181489D+01      0.201933D+01

 ----------------------------------------------------------------------

 Dipole orientation:
     6         -0.20089725         -3.68267642          1.35885175
     8         -0.20100402         -3.68257047          3.47583885

 Electric dipole moment (dipole orientation):
 (Debye = 10**-18 statcoulomb cm , SI units = C m)
                  (au)            (Debye)         (10**-30 SI)
   Tot        0.207925D-01      0.528492D-01      0.176286D+00
   x          0.000000D+00      0.000000D+00      0.000000D+00
   y          0.000000D+00      0.000000D+00      0.000000D+00
   z          0.207925D-01      0.528492D-01      0.176286D+00

 Dipole polarizability, Alpha (dipole orientation).
 (esu units = cm**3 , SI units = C**2 m**2 J**-1)
 Alpha(0;0):
               (au)            (10**-24 esu)      (10**-40 SI)
   iso        0.117570D+02      0.174220D+01      0.193846D+01
   aniso      0.414008D+01      0.613496D+00      0.682607D+00
   xx         0.103771D+02      0.153772D+01      0.171095D+01
   yx        -0.135429D-03     -0.200685D-04     -0.223292D-04
   yy         0.103768D+02      0.153769D+01      0.171091D+01
   zx        -0.228696D-03     -0.338892D-04     -0.377069D-04
   zy         0.182842D-03      0.270944D-04      0.301466D-04
   zz         0.145170D+02      0.215120D+01      0.239353D+01

 ----------------------------------------------------------------------
 1\1\GINC-COMET-15-72\Freq\RM062X\def2TZVP\C1O1\MAYES\13-Oct-2019\0\\#N
  Geom=AllCheck Guess=TCheck SCRF=Check GenChk RM062X/def2TZVP Freq\\fr
 om lmethyllactate_ts1_ts_ircr_opt.log\\0,1\C,-0.0926278318,-1.92725481
 94,-0.7766940938\O,-0.5375081682,-2.6272701806,-0.0236699062\\Version=
 ES64L-G16RevB.01\HF=-113.3222948\RMSD=1.427e-09\RMSF=1.378e-04\ZeroPoi
 nt=0.005192\Thermal=0.0075526\Dipole=-0.008256,-0.0129935,0.0139762\Di
 poleDeriv=0.1204098,0.2049174,-0.2204188,0.2048646,0.3125274,-0.346762
 6,-0.2204032,-0.3468272,0.3632989,-0.1204098,-0.2049174,0.2204188,-0.2
 048646,-0.3125274,0.3467626,0.2204032,0.3468272,-0.3632989\Polar=11.02
 99951,1.0272714,11.9934763,-1.1051742,-1.7390277,12.2474567\Quadrupole
 =0.2243766,-0.0023639,-0.2220126,-0.3072218,0.3749484,0.5429271\PG=C*V
  [C*(C1O1)]\NImag=0\\0.21250716,0.33418433,0.52611196,-0.35983489,-0.5
 6600902,0.60916034,-0.21250716,-0.33418433,0.35983489,0.21250716,-0.33
 418433,-0.52611196,0.56600902,0.33418433,0.52611196,0.35983489,0.56600
 902,-0.60916034,-0.35983489,-0.56600902,0.60916034\\0.00008126,0.00014
 703,-0.00016964,-0.00008126,-0.00014703,0.00016964\\\@


 The number of Unix installations has grown to 10,
  with more expected.
                  -- The Unix Programmer's Manual,
                     2nd Edition, June, 1972.
 Job cpu time:       0 days  0 hours  1 minutes 46.5 seconds.
 Elapsed time:       0 days  0 hours  0 minutes  5.0 seconds.
 File lengths (MBytes):  RWF=      9 Int=      0 D2E=      0 Chk=      1 Scr=      1
 Normal termination of Gaussian 16 at Sun Oct 13 10:51:35 2019.
