 Entering Gaussian System, Link 0=g16
 Initial command:
 /opt/gaussian/16.B.01/g16/l1.exe "/oasis/scratch/comet/mayes/temp_project/Gau-22554.inp" -scrdir="/oasis/scratch/comet/mayes/temp_project/"
 Entering Link 1 = /opt/gaussian/16.B.01/g16/l1.exe PID=     22555.
  
 Copyright (c) 1988-2017, Gaussian, Inc.  All Rights Reserved.
  
 This is part of the Gaussian(R) 16 program.  It is based on
 the Gaussian(R) 09 system (copyright 2009, Gaussian, Inc.),
 the Gaussian(R) 03 system (copyright 2003, Gaussian, Inc.),
 the Gaussian(R) 98 system (copyright 1998, Gaussian, Inc.),
 the Gaussian(R) 94 system (copyright 1995, Gaussian, Inc.),
 the Gaussian 92(TM) system (copyright 1992, Gaussian, Inc.),
 the Gaussian 90(TM) system (copyright 1990, Gaussian, Inc.),
 the Gaussian 88(TM) system (copyright 1988, Gaussian, Inc.),
 the Gaussian 86(TM) system (copyright 1986, Carnegie Mellon
 University), and the Gaussian 82(TM) system (copyright 1983,
 Carnegie Mellon University). Gaussian is a federally registered
 trademark of Gaussian, Inc.
  
 This software contains proprietary and confidential information,
 including trade secrets, belonging to Gaussian, Inc.
  
 This software is provided under written license and may be
 used, copied, transmitted, or stored only in accord with that
 written license.
  
 The following legend is applicable only to US Government
 contracts under FAR:
  
                    RESTRICTED RIGHTS LEGEND
  
 Use, reproduction and disclosure by the US Government is
 subject to restrictions as set forth in subparagraphs (a)
 and (c) of the Commercial Computer Software - Restricted
 Rights clause in FAR 52.227-19.
  
 Gaussian, Inc.
 340 Quinnipiac St., Bldg. 40, Wallingford CT 06492
  
  
 ---------------------------------------------------------------
 Warning -- This program may not be used in any manner that
 competes with the business of Gaussian, Inc. or will provide
 assistance to any competitor of Gaussian, Inc.  The licensee
 of this program is prohibited from giving any competitor of
 Gaussian, Inc. access to this program.  By using this program,
 the user acknowledges that Gaussian, Inc. is engaged in the
 business of creating and licensing software in the field of
 computational chemistry and represents and warrants to the
 licensee that it is not a competitor of Gaussian, Inc. and that
 it will not use this program in any manner prohibited above.
 ---------------------------------------------------------------
  

 Cite this work as:
 Gaussian 16, Revision B.01,
 M. J. Frisch, G. W. Trucks, H. B. Schlegel, G. E. Scuseria, 
 M. A. Robb, J. R. Cheeseman, G. Scalmani, V. Barone, 
 G. A. Petersson, H. Nakatsuji, X. Li, M. Caricato, A. V. Marenich, 
 J. Bloino, B. G. Janesko, R. Gomperts, B. Mennucci, H. P. Hratchian, 
 J. V. Ortiz, A. F. Izmaylov, J. L. Sonnenberg, D. Williams-Young, 
 F. Ding, F. Lipparini, F. Egidi, J. Goings, B. Peng, A. Petrone, 
 T. Henderson, D. Ranasinghe, V. G. Zakrzewski, J. Gao, N. Rega, 
 G. Zheng, W. Liang, M. Hada, M. Ehara, K. Toyota, R. Fukuda, 
 J. Hasegawa, M. Ishida, T. Nakajima, Y. Honda, O. Kitao, H. Nakai, 
 T. Vreven, K. Throssell, J. A. Montgomery, Jr., J. E. Peralta, 
 F. Ogliaro, M. J. Bearpark, J. J. Heyd, E. N. Brothers, K. N. Kudin, 
 V. N. Staroverov, T. A. Keith, R. Kobayashi, J. Normand, 
 K. Raghavachari, A. P. Rendell, J. C. Burant, S. S. Iyengar, 
 J. Tomasi, M. Cossi, J. M. Millam, M. Klene, C. Adamo, R. Cammi, 
 J. W. Ochterski, R. L. Martin, K. Morokuma, O. Farkas, 
 J. B. Foresman, and D. J. Fox, Gaussian, Inc., Wallingford CT, 2016.
 
 ******************************************
 Gaussian 16:  ES64L-G16RevB.01 20-Dec-2017
                 6-Oct-2019 
 ******************************************
 %RWF=/oasis/scratch/comet/mayes/temp_project/hcoch3_gas.rwf
 %NoSave
 %Chk=/oasis/scratch/comet/mayes/temp_project/hcoch3_gas.chk
 %cpu=0-23
 SetSPE:  set environment variable "MP_BIND" = "yes"
 SetSPE:  set environment variable "MP_BLIST" = "0,1,2,3,4,5,6,7,8,9,10,11,12,13,14,15,16,17,18,19,20,21,22,23"
 Will use up to   24 processors via shared memory.
 %mem=100GB
 ----------------------------------------------------------------------
 # m062x/Def2TZVP nosymm scf=xqc opt freq=NoRaman CPHF=Grid=Fine guess=
 mix
 ----------------------------------------------------------------------
 1/18=20,19=15,26=3,38=1/1,3;
 2/9=110,12=2,15=1,17=6,18=5,40=1/2;
 3/5=44,7=101,11=2,25=1,30=1,71=1,74=-55/1,2,3;
 4/13=-1/1;
 5/5=2,8=3,13=1,38=5/2,8;
 6/7=2,8=2,9=2,10=2,28=1/1;
 7/30=1/1,2,3,16;
 1/18=20,19=15,26=3/3(2);
 2/9=110,15=1/2;
 99//99;
 2/9=110,15=1/2;
 3/5=44,7=101,11=2,25=1,30=1,71=1,74=-55/1,2,3;
 4/5=5,16=3,69=1/1;
 5/5=2,8=3,13=1,38=5/2,8;
 7/30=1/1,2,3,16;
 1/18=20,19=15,26=3/3(-5);
 2/9=110,15=1/2;
 6/7=2,8=2,9=2,10=2,19=2,28=1/1;
 99/9=1/99;
 ----------------------------------------------------------------------
 added H to radical calculation of fragment 1 from fragment pair [10, 1
 5] and complete/lme2acetoxprpnt_39_t.log
 ----------------------------------------------------------------------
 Symbolic Z-matrix:
 Charge =  0 Multiplicity = 1
 C                     1.2554   -2.85028   0.94627 
 H                     1.57903  -2.3991    1.8832 
 H                     0.65852  -3.72772   1.19119 
 H                     2.11341  -3.12422   0.33087 
 O                     0.51646  -1.4063   -0.84644 
 C                     0.37218  -1.86223   0.2237 
 H                    -0.53903  -1.36131   0.47606 
 

 GradGradGradGradGradGradGradGradGradGradGradGradGradGradGradGradGradGrad
 Berny optimization.
 Initialization pass.
                           ----------------------------
                           !    Initial Parameters    !
                           ! (Angstroms and Degrees)  !
 --------------------------                            --------------------------
 ! Name  Definition              Value          Derivative Info.                !
 --------------------------------------------------------------------------------
 ! R1    R(1,2)                  1.0891         estimate D2E/DX2                !
 ! R2    R(1,3)                  1.0891         estimate D2E/DX2                !
 ! R3    R(1,4)                  1.0909         estimate D2E/DX2                !
 ! R4    R(1,6)                  1.5095         estimate D2E/DX2                !
 ! R5    R(5,6)                  1.1721         estimate D2E/DX2                !
 ! R6    R(6,7)                  1.07           estimate D2E/DX2                !
 ! A1    A(2,1,3)              107.6474         estimate D2E/DX2                !
 ! A2    A(2,1,4)              110.8324         estimate D2E/DX2                !
 ! A3    A(2,1,6)              108.332          estimate D2E/DX2                !
 ! A4    A(3,1,4)              110.8303         estimate D2E/DX2                !
 ! A5    A(3,1,6)              108.3206         estimate D2E/DX2                !
 ! A6    A(4,1,6)              110.7663         estimate D2E/DX2                !
 ! A7    A(1,6,5)              128.2895         estimate D2E/DX2                !
 ! A8    A(1,6,7)              133.7745         estimate D2E/DX2                !
 ! A9    A(5,6,7)               97.9359         estimate D2E/DX2                !
 ! D1    D(2,1,6,5)            121.8186         estimate D2E/DX2                !
 ! D2    D(2,1,6,7)            -58.1811         estimate D2E/DX2                !
 ! D3    D(3,1,6,5)           -121.6857         estimate D2E/DX2                !
 ! D4    D(3,1,6,7)             58.3146         estimate D2E/DX2                !
 ! D5    D(4,1,6,5)              0.0614         estimate D2E/DX2                !
 ! D6    D(4,1,6,7)           -179.9383         estimate D2E/DX2                !
 --------------------------------------------------------------------------------
 Trust Radius=3.00D-01 FncErr=1.00D-07 GrdErr=1.00D-06 EigMax=2.50D+02 EigMin=1.00D-04
 Number of steps in this run=     31 maximum allowed number of steps=    100.
 GradGradGradGradGradGradGradGradGradGradGradGradGradGradGradGradGradGrad

                          Input orientation:                          
 ---------------------------------------------------------------------
 Center     Atomic      Atomic             Coordinates (Angstroms)
 Number     Number       Type             X           Y           Z
 ---------------------------------------------------------------------
      1          6           0        1.255398   -2.850275    0.946274
      2          1           0        1.579030   -2.399098    1.883198
      3          1           0        0.658517   -3.727724    1.191186
      4          1           0        2.113411   -3.124224    0.330865
      5          8           0        0.516458   -1.406302   -0.846435
      6          6           0        0.372176   -1.862225    0.223696
      7          1           0       -0.539028   -1.361307    0.476064
 ---------------------------------------------------------------------
                    Distance matrix (angstroms):
                    1          2          3          4          5
     1  C    0.000000
     2  H    1.089094   0.000000
     3  H    1.089112   1.758258   0.000000
     4  H    1.090854   1.794745   1.794737   0.000000
     5  O    2.417622   3.092830   3.092100   2.624414   0.000000
     6  C    1.509451   2.121008   2.120876   2.153143   1.172119
     7  H    2.378673   2.746489   2.746896   3.188164   1.692654
                    6          7
     6  C    0.000000
     7  H    1.070000   0.000000
 Symmetry turned off by external request.
 Stoichiometry    C2H4O
 Framework group  C1[X(C2H4O)]
 Deg. of freedom    15
 Full point group                 C1      NOp   1
 Rotational constants (GHZ):          63.8337505          10.0009465           9.1331518
 Standard basis: def2TZVP (5D, 7F)
   117 basis functions,   185 primitive gaussians,   132 cartesian basis functions
    12 alpha electrons       12 beta electrons
       nuclear repulsion energy        70.6037248538 Hartrees.
 NAtoms=    7 NActive=    7 NUniq=    7 SFac= 1.00D+00 NAtFMM=   60 NAOKFM=F Big=F
 Integral buffers will be    131072 words long.
 Raffenetti 2 integral format.
 Two-electron integral symmetry is turned off.
 One-electron integrals computed using PRISM.
   1 Symmetry operations used in ECPInt.
 ECPInt:  NShTT=    1225 NPrTT=    3648 LenC2=    1223 LenP2D=    3254.
 LDataN:  DoStor=T MaxTD1= 6 Len=  172
 NBasis=   117 RedAO= T EigKep=  4.87D-04  NBF=   117
 NBsUse=   117 1.00D-06 EigRej= -1.00D+00 NBFU=   117
 ExpMin= 9.52D-02 ExpMax= 2.70D+04 ExpMxC= 9.22D+02 IAcc=3 IRadAn=         5 AccDes= 0.00D+00
 Harris functional with IExCor= 1009 and IRadAn=       5 diagonalized for initial guess.
 HarFok:  IExCor= 1009 AccDes= 0.00D+00 IRadAn=         5 IDoV= 1 UseB2=F ITyADJ=14
 ICtDFT=  3500011 ScaDFX=  1.000000  1.000000  1.000000  1.000000
 FoFCou: FMM=F IPFlag=           0 FMFlag=      100000 FMFlg1=           0
         NFxFlg=           0 DoJE=T BraDBF=F KetDBF=T FulRan=T
         wScrn=  0.000000 ICntrl=       500 IOpCl=  0 I1Cent=   200000004 NGrid=           0
         NMat0=    1 NMatS0=      1 NMatT0=    0 NMatD0=    1 NMtDS0=    0 NMtDT0=    0
 Symmetry not used in FoFCou.
 Mixing orbitals, IMix= 1 IMixAn=  0 NRI=1 NE=   12 Coef=  7.07106781D-01  7.07106781D-01
 Keep R1 ints in memory in canonical form, NReq=46881441.
 Requested convergence on RMS density matrix=1.00D-08 within  32 cycles.
 Requested convergence on MAX density matrix=1.00D-06.
 Requested convergence on             energy=1.00D-06.
 No special actions if energy rises.
 Integral accuracy reduced to 1.0D-05 until final iterations.
 Failed to achieve initial convergence to 1.0D-08 in 10 cycles.
 Switch to full accuracy anyway.
 SCF Done:  E(RM062X) =  -153.794363742     A.U. after   16 cycles
            NFock= 16  Conv=0.67D-08     -V/T= 2.0030
 QCSCF skips out because SCF is already converged.

 **********************************************************************

            Population analysis using the SCF Density.

 **********************************************************************

 Alpha  occ. eigenvalues --  -19.61796 -10.62017 -10.55429  -1.19707  -0.85164
 Alpha  occ. eigenvalues --   -0.66673  -0.57233  -0.52501  -0.52114  -0.47268
 Alpha  occ. eigenvalues --   -0.44604  -0.31835
 Alpha virt. eigenvalues --    0.03154   0.07571   0.11247   0.13186   0.14342
 Alpha virt. eigenvalues --    0.17466   0.18659   0.24084   0.25973   0.27534
 Alpha virt. eigenvalues --    0.27777   0.36200   0.41145   0.41976   0.44873
 Alpha virt. eigenvalues --    0.46409   0.48858   0.55033   0.58382   0.58685
 Alpha virt. eigenvalues --    0.66404   0.66496   0.69863   0.78332   0.78738
 Alpha virt. eigenvalues --    0.81995   0.96559   1.01252   1.02316   1.06320
 Alpha virt. eigenvalues --    1.07168   1.14871   1.35203   1.42733   1.47516
 Alpha virt. eigenvalues --    1.49359   1.51697   1.53282   1.55577   1.58725
 Alpha virt. eigenvalues --    1.62568   1.64146   1.72810   1.83143   1.92046
 Alpha virt. eigenvalues --    1.94906   2.02124   2.07576   2.11710   2.14213
 Alpha virt. eigenvalues --    2.18386   2.27171   2.32301   2.34723   2.36054
 Alpha virt. eigenvalues --    2.44466   2.51895   2.52520   2.59533   2.67302
 Alpha virt. eigenvalues --    2.71813   2.73770   2.84256   2.85585   2.94422
 Alpha virt. eigenvalues --    2.95457   2.98362   3.00817   3.10011   3.10304
 Alpha virt. eigenvalues --    3.14055   3.15032   3.25083   3.32135   3.33054
 Alpha virt. eigenvalues --    3.37343   3.40671   3.53264   3.61347   3.78458
 Alpha virt. eigenvalues --    3.83328   3.86278   3.89215   3.98813   4.17634
 Alpha virt. eigenvalues --    4.32476   4.37799   4.48025   4.58123   4.64850
 Alpha virt. eigenvalues --    5.21011   5.22512   5.60523   5.67611   6.18402
 Alpha virt. eigenvalues --    6.37346   6.40337   6.45193   6.54298   6.78084
 Alpha virt. eigenvalues --    6.91659   7.08423  22.36020  22.90760  43.88269
          Condensed to atoms (all electrons):
               1          2          3          4          5          6
     1  C    5.461776   0.359070   0.359056   0.341541  -0.102011   0.112240
     2  H    0.359070   0.532276  -0.023445  -0.013792   0.002687  -0.011029
     3  H    0.359056  -0.023445   0.532255  -0.013788   0.002680  -0.011011
     4  H    0.341541  -0.013792  -0.013788   0.517415   0.014550  -0.005243
     5  O   -0.102011   0.002687   0.002680   0.014550   7.827674   0.624821
     6  C    0.112240  -0.011029  -0.011011  -0.005243   0.624821   4.731959
     7  H   -0.168913   0.006274   0.006267   0.010764  -0.132650   0.488792
               7
     1  C   -0.168913
     2  H    0.006274
     3  H    0.006267
     4  H    0.010764
     5  O   -0.132650
     6  C    0.488792
     7  H    0.702924
 Mulliken charges:
               1
     1  C   -0.362759
     2  H    0.147958
     3  H    0.147986
     4  H    0.148552
     5  O   -0.237751
     6  C    0.069471
     7  H    0.086542
 Sum of Mulliken charges =  -0.00000
 Mulliken charges with hydrogens summed into heavy atoms:
               1
     1  C    0.081737
     5  O   -0.237751
     6  C    0.156013
 Electronic spatial extent (au):  <R**2>=            585.4304
 Charge=             -0.0000 electrons
 Dipole moment (field-independent basis, Debye):
    X=              0.0698    Y=             -1.2896    Z=              2.3886  Tot=              2.7154
 Quadrupole moment (field-independent basis, Debye-Ang):
   XX=            -17.5816   YY=            -13.0482   ZZ=            -19.7436
   XY=             -1.2755   XZ=              1.8733   YZ=             -3.8787
 Traceless Quadrupole moment (field-independent basis, Debye-Ang):
   XX=             -0.7905   YY=              3.7430   ZZ=             -2.9525
   XY=             -1.2755   XZ=              1.8733   YZ=             -3.8787
 Octapole moment (field-independent basis, Debye-Ang**2):
  XXX=            -39.7343  YYY=             99.5373  ZZZ=             -9.8965  XYY=             -9.2206
  XXY=             36.4217  XXZ=             -2.8340  XZZ=            -13.6885  YZZ=             40.6366
  YYZ=              3.0515  XYZ=             -2.9961
 Hexadecapole moment (field-independent basis, Debye-Ang**3):
 XXXX=           -109.4742 YYYY=           -514.2071 ZZZZ=            -94.0860 XXXY=             97.4028
 XXXZ=            -20.7714 YYYX=             91.2826 YYYZ=             35.2136 ZZZX=            -17.2769
 ZZZY=             48.0070 XXYY=           -106.1771 XXZZ=            -34.5257 YYZZ=           -112.4191
 XXYZ=             15.9944 YYXZ=             -3.2410 ZZXY=             34.6682
 N-N= 7.060372485380D+01 E-N=-5.011143453175D+02  KE= 1.533371355187D+02
   1 Symmetry operations used in ECPInt.
 ECPInt:  NShTT=    1225 NPrTT=    3648 LenC2=    1223 LenP2D=    3254.
 LDataN:  DoStor=T MaxTD1= 7 Len=  274
 Calling FoFJK, ICntrl=      2127 FMM=F ISym2X=0 I1Cent= 0 IOpClX= 0 NMat=1 NMatS=1 NMatT=0.
 -------------------------------------------------------------------
 Center     Atomic                   Forces (Hartrees/Bohr)
 Number     Number              X              Y              Z
 -------------------------------------------------------------------
      1        6          -0.009634916    0.007446823   -0.001495766
      2        1           0.001542856   -0.000818758    0.001381195
      3        1           0.000785923   -0.001926200    0.000804037
      4        1          -0.003038440    0.002076087    0.000055271
      5        8           0.054015338    0.007832990   -0.087182968
      6        6          -0.018151665   -0.000197448    0.024642787
      7        1          -0.025519096   -0.014413494    0.061795444
 -------------------------------------------------------------------
 Cartesian Forces:  Max     0.087182968 RMS     0.027918524

 GradGradGradGradGradGradGradGradGradGradGradGradGradGradGradGradGradGrad
 Berny optimization.
 FormGI is forming the generalized inverse of G from B-inverse, IUseBI=4.
 Internal  Forces:  Max     0.089293589 RMS     0.029679194
 Search for a local minimum.
 Step number   1 out of a maximum of   31
 All quantities printed in internal units (Hartrees-Bohrs-Radians)
 Mixed Optimization -- RFO/linear search
 Second derivative matrix not updated -- first step.
 ITU=  0
     Eigenvalues ---    0.00641   0.00641   0.07305   0.07736   0.16000
     Eigenvalues ---    0.16000   0.16000   0.16000   0.22000   0.31406
     Eigenvalues ---    0.34714   0.34915   0.34918   0.37230   1.20180
 RFO step:  Lambda=-5.19514860D-02 EMin= 6.40926511D-03
 Linear search not attempted -- first point.
 Maximum step size (   0.300) exceeded in Quadratic search.
    -- Step size scaled by   0.658
 Iteration  1 RMS(Cart)=  0.06893900 RMS(Int)=  0.00852726
 Iteration  2 RMS(Cart)=  0.00880963 RMS(Int)=  0.00008622
 Iteration  3 RMS(Cart)=  0.00008446 RMS(Int)=  0.00002980
 Iteration  4 RMS(Cart)=  0.00000000 RMS(Int)=  0.00002980
 Variable       Old X    -DE/DX   Delta X   Delta X   Delta X     New X
                                 (Linear)    (Quad)   (Total)
    R1        2.05809   0.00131   0.00000   0.00214   0.00214   2.06023
    R2        2.05812   0.00130   0.00000   0.00214   0.00214   2.06026
    R3        2.06142  -0.00294   0.00000  -0.00485  -0.00485   2.05657
    R4        2.85245  -0.01013   0.00000  -0.01821  -0.01821   2.83424
    R5        2.21498   0.08929   0.00000   0.04684   0.04684   2.26182
    R6        2.02201   0.02956   0.00000   0.04582   0.04582   2.06783
    A1        1.87880  -0.00134   0.00000  -0.00176  -0.00184   1.87696
    A2        1.93439   0.00000   0.00000  -0.00108  -0.00105   1.93334
    A3        1.89075   0.00306   0.00000   0.01000   0.00997   1.90072
    A4        1.93435  -0.00000   0.00000  -0.00109  -0.00106   1.93329
    A5        1.89055   0.00307   0.00000   0.01004   0.01001   1.90056
    A6        1.93324  -0.00455   0.00000  -0.01522  -0.01520   1.91804
    A7        2.23907  -0.03383   0.00000  -0.08180  -0.08180   2.15727
    A8        2.33481  -0.04544   0.00000  -0.15257  -0.15257   2.18223
    A9        1.70930   0.07927   0.00000   0.23438   0.23438   1.94368
    D1        2.12614  -0.00085   0.00000  -0.00433  -0.00437   2.12176
    D2       -1.01545  -0.00085   0.00000  -0.00434  -0.00439  -1.01984
    D3       -2.12382   0.00085   0.00000   0.00432   0.00436  -2.11946
    D4        1.01778   0.00085   0.00000   0.00430   0.00434   1.02213
    D5        0.00107   0.00000   0.00000   0.00000   0.00000   0.00107
    D6       -3.14052  -0.00000   0.00000  -0.00002  -0.00002  -3.14053
         Item               Value     Threshold  Converged?
 Maximum Force            0.089294     0.000450     NO 
 RMS     Force            0.029679     0.000300     NO 
 Maximum Displacement     0.223811     0.001800     NO 
 RMS     Displacement     0.075886     0.001200     NO 
 Predicted change in Energy=-2.527155D-02
 GradGradGradGradGradGradGradGradGradGradGradGradGradGradGradGradGradGrad

                          Input orientation:                          
 ---------------------------------------------------------------------
 Center     Atomic      Atomic             Coordinates (Angstroms)
 Number     Number       Type             X           Y           Z
 ---------------------------------------------------------------------
      1          6           0        1.235744   -2.830510    0.934443
      2          1           0        1.562610   -2.381871    1.872782
      3          1           0        0.641787   -3.711010    1.180539
      4          1           0        2.090548   -3.101624    0.317859
      5          8           0        0.610280   -1.444661   -0.897827
      6          6           0        0.369248   -1.849200    0.202553
      7          1           0       -0.554255   -1.412281    0.594500
 ---------------------------------------------------------------------
                    Distance matrix (angstroms):
                    1          2          3          4          5
     1  C    0.000000
     2  H    1.090228   0.000000
     3  H    1.090242   1.758899   0.000000
     4  H    1.088287   1.792916   1.792897   0.000000
     5  O    2.380965   3.075966   3.075213   2.532709   0.000000
     6  C    1.499816   2.120735   2.120630   2.131839   1.196906
     7  H    2.308902   2.656167   2.656711   3.150459   1.893206
                    6          7
     6  C    0.000000
     7  H    1.094248   0.000000
 Symmetry turned off by external request.
 Stoichiometry    C2H4O
 Framework group  C1[X(C2H4O)]
 Deg. of freedom    15
 Full point group                 C1      NOp   1
 Rotational constants (GHZ):          57.3537608          10.3310554           9.2539739
 Standard basis: def2TZVP (5D, 7F)
   117 basis functions,   185 primitive gaussians,   132 cartesian basis functions
    12 alpha electrons       12 beta electrons
       nuclear repulsion energy        70.2123330743 Hartrees.
 NAtoms=    7 NActive=    7 NUniq=    7 SFac= 1.00D+00 NAtFMM=   60 NAOKFM=F Big=F
 Integral buffers will be    131072 words long.
 Raffenetti 2 integral format.
 Two-electron integral symmetry is turned off.
 One-electron integrals computed using PRISM.
   1 Symmetry operations used in ECPInt.
 ECPInt:  NShTT=    1225 NPrTT=    3648 LenC2=    1223 LenP2D=    3250.
 LDataN:  DoStor=T MaxTD1= 6 Len=  172
 NBasis=   117 RedAO= T EigKep=  5.17D-04  NBF=   117
 NBsUse=   117 1.00D-06 EigRej= -1.00D+00 NBFU=   117
 Initial guess from the checkpoint file:  "/oasis/scratch/comet/mayes/temp_project/hcoch3_gas.chk"
 B after Tr=     0.103993    0.003025   -0.144597
         Rot=    0.999861    0.008722    0.012579    0.006537 Ang=   1.91 deg.
 ExpMin= 9.52D-02 ExpMax= 2.70D+04 ExpMxC= 9.22D+02 IAcc=3 IRadAn=         5 AccDes= 0.00D+00
 Harris functional with IExCor= 1009 and IRadAn=       5 diagonalized for initial guess.
 HarFok:  IExCor= 1009 AccDes= 0.00D+00 IRadAn=         5 IDoV= 1 UseB2=F ITyADJ=14
 ICtDFT=  3500011 ScaDFX=  1.000000  1.000000  1.000000  1.000000
 FoFCou: FMM=F IPFlag=           0 FMFlag=      100000 FMFlg1=           0
         NFxFlg=           0 DoJE=T BraDBF=F KetDBF=T FulRan=T
         wScrn=  0.000000 ICntrl=       500 IOpCl=  0 I1Cent=   200000004 NGrid=           0
         NMat0=    1 NMatS0=      1 NMatT0=    0 NMatD0=    1 NMtDS0=    0 NMtDT0=    0
 Symmetry not used in FoFCou.
 Keep R1 ints in memory in canonical form, NReq=46881441.
 Requested convergence on RMS density matrix=1.00D-08 within  32 cycles.
 Requested convergence on MAX density matrix=1.00D-06.
 Requested convergence on             energy=1.00D-06.
 No special actions if energy rises.
 Integral accuracy reduced to 1.0D-05 until final iterations.
 Initial convergence to 1.0D-05 achieved.  Increase integral accuracy.
 SCF Done:  E(RM062X) =  -153.816438813     A.U. after   13 cycles
            NFock= 13  Conv=0.57D-08     -V/T= 2.0041
 QCSCF skips out because SCF is already converged.
   1 Symmetry operations used in ECPInt.
 ECPInt:  NShTT=    1225 NPrTT=    3648 LenC2=    1223 LenP2D=    3250.
 LDataN:  DoStor=T MaxTD1= 7 Len=  274
 Calling FoFJK, ICntrl=      2127 FMM=F ISym2X=0 I1Cent= 0 IOpClX= 0 NMat=1 NMatS=1 NMatT=0.
 -------------------------------------------------------------------
 Center     Atomic                   Forces (Hartrees/Bohr)
 Number     Number              X              Y              Z
 -------------------------------------------------------------------
      1        6          -0.007306074    0.003443267    0.003114360
      2        1           0.001149629   -0.001003493    0.001360068
      3        1           0.000758191   -0.001575450    0.001059924
      4        1          -0.001490848    0.000894267    0.000267601
      5        8           0.013546814   -0.001204210   -0.015769936
      6        6          -0.002497779    0.008188389   -0.012401954
      7        1          -0.004159933   -0.008742772    0.022369937
 -------------------------------------------------------------------
 Cartesian Forces:  Max     0.022369937 RMS     0.007991949

 GradGradGradGradGradGradGradGradGradGradGradGradGradGradGradGradGradGrad
 Berny optimization.
 Using GEDIIS/GDIIS optimizer.
 FormGI is forming the generalized inverse of G from B-inverse, IUseBI=4.
 Internal  Forces:  Max     0.025120386 RMS     0.008513386
 Search for a local minimum.
 Step number   2 out of a maximum of   31
 All quantities printed in internal units (Hartrees-Bohrs-Radians)
 Mixed Optimization -- RFO/linear search
 Update second derivatives using D2CorX and points    1    2
 DE= -2.21D-02 DEPred=-2.53D-02 R= 8.74D-01
 TightC=F SS=  1.41D+00  RLast= 3.00D-01 DXNew= 5.0454D-01 9.0037D-01
 Trust test= 8.74D-01 RLast= 3.00D-01 DXMaxT set to 5.05D-01
 ITU=  1  0
 Use linear search instead of GDIIS.
     Eigenvalues ---    0.00641   0.00641   0.07374   0.07645   0.15808
     Eigenvalues ---    0.16000   0.16000   0.16729   0.26288   0.31547
     Eigenvalues ---    0.34706   0.34910   0.34917   0.37788   1.25254
 RFO step:  Lambda=-2.26174877D-03 EMin= 6.40926510D-03
 Quartic linear search produced a step of  0.55610.
 Iteration  1 RMS(Cart)=  0.05521276 RMS(Int)=  0.00391797
 Iteration  2 RMS(Cart)=  0.00379259 RMS(Int)=  0.00013067
 Iteration  3 RMS(Cart)=  0.00000767 RMS(Int)=  0.00013051
 Iteration  4 RMS(Cart)=  0.00000000 RMS(Int)=  0.00013051
 Variable       Old X    -DE/DX   Delta X   Delta X   Delta X     New X
                                 (Linear)    (Quad)   (Total)
    R1        2.06023   0.00110   0.00119   0.00303   0.00422   2.06446
    R2        2.06026   0.00110   0.00119   0.00302   0.00421   2.06447
    R3        2.05657  -0.00155  -0.00270  -0.00271  -0.00540   2.05116
    R4        2.83424  -0.00230  -0.01013   0.00446  -0.00567   2.82857
    R5        2.26182   0.01682   0.02605  -0.01683   0.00922   2.27105
    R6        2.06783   0.00803   0.02548  -0.00590   0.01958   2.08741
    A1        1.87696  -0.00165  -0.00103  -0.00896  -0.01036   1.86660
    A2        1.93334  -0.00050  -0.00058  -0.00622  -0.00670   1.92663
    A3        1.90072   0.00252   0.00554   0.01606   0.02147   1.92219
    A4        1.93329  -0.00051  -0.00059  -0.00623  -0.00672   1.92657
    A5        1.90056   0.00252   0.00557   0.01606   0.02149   1.92205
    A6        1.91804  -0.00224  -0.00845  -0.00985  -0.01820   1.89984
    A7        2.15727  -0.00265  -0.04549   0.05426   0.00877   2.16604
    A8        2.18223  -0.02247  -0.08485  -0.07704  -0.16189   2.02034
    A9        1.94368   0.02512   0.13034   0.02278   0.15312   2.09680
    D1        2.12176  -0.00042  -0.00243  -0.00340  -0.00602   2.11574
    D2       -1.01984  -0.00042  -0.00244  -0.00380  -0.00643  -1.02628
    D3       -2.11946   0.00042   0.00243   0.00384   0.00646  -2.11300
    D4        1.02213   0.00042   0.00242   0.00344   0.00605   1.02817
    D5        0.00107   0.00000   0.00000   0.00021   0.00021   0.00129
    D6       -3.14053  -0.00000  -0.00001  -0.00019  -0.00020  -3.14073
         Item               Value     Threshold  Converged?
 Maximum Force            0.025120     0.000450     NO 
 RMS     Force            0.008513     0.000300     NO 
 Maximum Displacement     0.159662     0.001800     NO 
 RMS     Displacement     0.056090     0.001200     NO 
 Predicted change in Energy=-3.276534D-03
 GradGradGradGradGradGradGradGradGradGradGradGradGradGradGradGradGradGrad

                          Input orientation:                          
 ---------------------------------------------------------------------
 Center     Atomic      Atomic             Coordinates (Angstroms)
 Number     Number       Type             X           Y           Z
 ---------------------------------------------------------------------
      1          6           0        1.216494   -2.814122    0.928624
      2          1           0        1.544897   -2.371070    1.871669
      3          1           0        0.625689   -3.697831    1.180619
      4          1           0        2.073180   -3.092205    0.322889
      5          8           0        0.643038   -1.444695   -0.941631
      6          6           0        0.380163   -1.836429    0.163688
      7          1           0       -0.527498   -1.474803    0.678990
 ---------------------------------------------------------------------
                    Distance matrix (angstroms):
                    1          2          3          4          5
     1  C    0.000000
     2  H    1.092464   0.000000
     3  H    1.092472   1.755787   0.000000
     4  H    1.085429   1.788250   1.788216   0.000000
     5  O    2.387893   3.096155   3.095298   2.521627   0.000000
     6  C    1.496817   2.135332   2.135240   2.113912   1.201786
     7  H    2.213053   2.553546   2.554080   3.083233   1.999369
                    6          7
     6  C    0.000000
     7  H    1.104607   0.000000
 Symmetry turned off by external request.
 Stoichiometry    C2H4O
 Framework group  C1[X(C2H4O)]
 Deg. of freedom    15
 Full point group                 C1      NOp   1
 Rotational constants (GHZ):          57.2200372          10.2832505           9.2102891
 Standard basis: def2TZVP (5D, 7F)
   117 basis functions,   185 primitive gaussians,   132 cartesian basis functions
    12 alpha electrons       12 beta electrons
       nuclear repulsion energy        70.0333891988 Hartrees.
 NAtoms=    7 NActive=    7 NUniq=    7 SFac= 1.00D+00 NAtFMM=   60 NAOKFM=F Big=F
 Integral buffers will be    131072 words long.
 Raffenetti 2 integral format.
 Two-electron integral symmetry is turned off.
 One-electron integrals computed using PRISM.
   1 Symmetry operations used in ECPInt.
 ECPInt:  NShTT=    1225 NPrTT=    3648 LenC2=    1223 LenP2D=    3250.
 LDataN:  DoStor=T MaxTD1= 6 Len=  172
 NBasis=   117 RedAO= T EigKep=  5.19D-04  NBF=   117
 NBsUse=   117 1.00D-06 EigRej= -1.00D+00 NBFU=   117
 Initial guess from the checkpoint file:  "/oasis/scratch/comet/mayes/temp_project/hcoch3_gas.chk"
 B after Tr=     0.045146    0.018185   -0.095084
         Rot=    0.999964    0.004446    0.006377    0.003335 Ang=   0.97 deg.
 ExpMin= 9.52D-02 ExpMax= 2.70D+04 ExpMxC= 9.22D+02 IAcc=3 IRadAn=         5 AccDes= 0.00D+00
 Harris functional with IExCor= 1009 and IRadAn=       5 diagonalized for initial guess.
 HarFok:  IExCor= 1009 AccDes= 0.00D+00 IRadAn=         5 IDoV= 1 UseB2=F ITyADJ=14
 ICtDFT=  3500011 ScaDFX=  1.000000  1.000000  1.000000  1.000000
 FoFCou: FMM=F IPFlag=           0 FMFlag=      100000 FMFlg1=           0
         NFxFlg=           0 DoJE=T BraDBF=F KetDBF=T FulRan=T
         wScrn=  0.000000 ICntrl=       500 IOpCl=  0 I1Cent=   200000004 NGrid=           0
         NMat0=    1 NMatS0=      1 NMatT0=    0 NMatD0=    1 NMtDS0=    0 NMtDT0=    0
 Symmetry not used in FoFCou.
 Keep R1 ints in memory in canonical form, NReq=46881441.
 Requested convergence on RMS density matrix=1.00D-08 within  32 cycles.
 Requested convergence on MAX density matrix=1.00D-06.
 Requested convergence on             energy=1.00D-06.
 No special actions if energy rises.
 Integral accuracy reduced to 1.0D-05 until final iterations.
 Initial convergence to 1.0D-05 achieved.  Increase integral accuracy.
 SCF Done:  E(RM062X) =  -153.820252843     A.U. after   11 cycles
            NFock= 11  Conv=0.60D-08     -V/T= 2.0045
 QCSCF skips out because SCF is already converged.
   1 Symmetry operations used in ECPInt.
 ECPInt:  NShTT=    1225 NPrTT=    3648 LenC2=    1223 LenP2D=    3250.
 LDataN:  DoStor=T MaxTD1= 7 Len=  274
 Calling FoFJK, ICntrl=      2127 FMM=F ISym2X=0 I1Cent= 0 IOpClX= 0 NMat=1 NMatS=1 NMatT=0.
 -------------------------------------------------------------------
 Center     Atomic                   Forces (Hartrees/Bohr)
 Number     Number              X              Y              Z
 -------------------------------------------------------------------
      1        6           0.001415834   -0.000625853   -0.000643007
      2        1          -0.000412852    0.000535535   -0.000523905
      3        1          -0.000395992    0.000562351   -0.000513574
      4        1           0.001855792   -0.001644915    0.000690750
      5        8          -0.001056619   -0.001490410    0.004321797
      6        6           0.000329419    0.001725694   -0.003863460
      7        1          -0.001735581    0.000937597    0.000531400
 -------------------------------------------------------------------
 Cartesian Forces:  Max     0.004321797 RMS     0.001619926

 GradGradGradGradGradGradGradGradGradGradGradGradGradGradGradGradGradGrad
 Berny optimization.
 Using GEDIIS/GDIIS optimizer.
 FormGI is forming the generalized inverse of G from B-inverse, IUseBI=4.
 Internal  Forces:  Max     0.004691649 RMS     0.001574710
 Search for a local minimum.
 Step number   3 out of a maximum of   31
 All quantities printed in internal units (Hartrees-Bohrs-Radians)
 Mixed Optimization -- RFO/linear search
 Update second derivatives using D2CorX and points    1    2    3
 DE= -3.81D-03 DEPred=-3.28D-03 R= 1.16D+00
 TightC=F SS=  1.41D+00  RLast= 2.28D-01 DXNew= 8.4853D-01 6.8347D-01
 Trust test= 1.16D+00 RLast= 2.28D-01 DXMaxT set to 6.83D-01
 ITU=  1  1  0
 Use linear search instead of GDIIS.
     Eigenvalues ---    0.00641   0.00641   0.07408   0.07452   0.13907
     Eigenvalues ---    0.16000   0.16052   0.17111   0.25187   0.31695
     Eigenvalues ---    0.34791   0.34916   0.34938   0.37154   1.28628
 RFO step:  Lambda=-1.61059283D-04 EMin= 6.40926511D-03
 Quartic linear search produced a step of -0.04076.
 Iteration  1 RMS(Cart)=  0.01048301 RMS(Int)=  0.00008863
 Iteration  2 RMS(Cart)=  0.00007954 RMS(Int)=  0.00003184
 Iteration  3 RMS(Cart)=  0.00000000 RMS(Int)=  0.00003184
 Variable       Old X    -DE/DX   Delta X   Delta X   Delta X     New X
                                 (Linear)    (Quad)   (Total)
    R1        2.06446  -0.00036  -0.00017  -0.00078  -0.00095   2.06350
    R2        2.06447  -0.00036  -0.00017  -0.00078  -0.00095   2.06352
    R3        2.05116   0.00150   0.00022   0.00386   0.00408   2.05525
    R4        2.82857   0.00164   0.00023   0.00459   0.00482   2.83339
    R5        2.27105  -0.00469  -0.00038  -0.00297  -0.00335   2.26770
    R6        2.08741   0.00198  -0.00080   0.00636   0.00557   2.09297
    A1        1.86660   0.00075   0.00042  -0.00043  -0.00010   1.86650
    A2        1.92663  -0.00067   0.00027  -0.00216  -0.00187   1.92477
    A3        1.92219  -0.00156  -0.00088  -0.00939  -0.01030   1.91189
    A4        1.92657  -0.00067   0.00027  -0.00217  -0.00188   1.92469
    A5        1.92205  -0.00157  -0.00088  -0.00944  -0.01035   1.91170
    A6        1.89984   0.00360   0.00074   0.02283   0.02360   1.92344
    A7        2.16604  -0.00028  -0.00036  -0.00158  -0.00194   2.16410
    A8        2.02034   0.00066   0.00660  -0.00503   0.00157   2.02191
    A9        2.09680  -0.00038  -0.00624   0.00661   0.00037   2.09717
    D1        2.11574   0.00048   0.00025   0.00467   0.00487   2.12060
    D2       -1.02628   0.00050   0.00026   0.00693   0.00714  -1.01913
    D3       -2.11300  -0.00050  -0.00026  -0.00729  -0.00750  -2.12050
    D4        1.02817  -0.00049  -0.00025  -0.00503  -0.00523   1.02295
    D5        0.00129  -0.00001  -0.00001  -0.00134  -0.00134  -0.00006
    D6       -3.14073   0.00001   0.00001   0.00092   0.00093  -3.13980
         Item               Value     Threshold  Converged?
 Maximum Force            0.004692     0.000450     NO 
 RMS     Force            0.001575     0.000300     NO 
 Maximum Displacement     0.025188     0.001800     NO 
 RMS     Displacement     0.010484     0.001200     NO 
 Predicted change in Energy=-8.728845D-05
 GradGradGradGradGradGradGradGradGradGradGradGradGradGradGradGradGradGrad

                          Input orientation:                          
 ---------------------------------------------------------------------
 Center     Atomic      Atomic             Coordinates (Angstroms)
 Number     Number       Type             X           Y           Z
 ---------------------------------------------------------------------
      1          6           0        1.221003   -2.814875    0.923822
      2          1           0        1.541243   -2.366374    1.866514
      3          1           0        0.622734   -3.692822    1.176161
      4          1           0        2.085719   -3.105534    0.331676
      5          8           0        0.637925   -1.441444   -0.939988
      6          6           0        0.378046   -1.835548    0.163270
      7          1           0       -0.530707   -1.474559    0.683394
 ---------------------------------------------------------------------
                    Distance matrix (angstroms):
                    1          2          3          4          5
     1  C    0.000000
     2  H    1.091960   0.000000
     3  H    1.091968   1.754911   0.000000
     4  H    1.087590   1.788446   1.788404   0.000000
     5  O    2.387484   3.089974   3.089826   2.546063   0.000000
     6  C    1.499366   2.129752   2.129622   2.134801   1.200014
     7  H    2.218725   2.547172   2.548320   3.103139   2.000542
                    6          7
     6  C    0.000000
     7  H    1.107553   0.000000
 Symmetry turned off by external request.
 Stoichiometry    C2H4O
 Framework group  C1[X(C2H4O)]
 Deg. of freedom    15
 Full point group                 C1      NOp   1
 Rotational constants (GHZ):          56.9774123          10.2829512           9.2032216
 Standard basis: def2TZVP (5D, 7F)
   117 basis functions,   185 primitive gaussians,   132 cartesian basis functions
    12 alpha electrons       12 beta electrons
       nuclear repulsion energy        70.0112387456 Hartrees.
 NAtoms=    7 NActive=    7 NUniq=    7 SFac= 1.00D+00 NAtFMM=   60 NAOKFM=F Big=F
 Integral buffers will be    131072 words long.
 Raffenetti 2 integral format.
 Two-electron integral symmetry is turned off.
 One-electron integrals computed using PRISM.
   1 Symmetry operations used in ECPInt.
 ECPInt:  NShTT=    1225 NPrTT=    3648 LenC2=    1223 LenP2D=    3249.
 LDataN:  DoStor=T MaxTD1= 6 Len=  172
 NBasis=   117 RedAO= T EigKep=  5.29D-04  NBF=   117
 NBsUse=   117 1.00D-06 EigRej= -1.00D+00 NBFU=   117
 Initial guess from the checkpoint file:  "/oasis/scratch/comet/mayes/temp_project/hcoch3_gas.chk"
 B after Tr=    -0.007206    0.000430    0.008040
         Rot=    0.999999   -0.000815   -0.000951   -0.000618 Ang=  -0.16 deg.
 ExpMin= 9.52D-02 ExpMax= 2.70D+04 ExpMxC= 9.22D+02 IAcc=3 IRadAn=         5 AccDes= 0.00D+00
 Harris functional with IExCor= 1009 and IRadAn=       5 diagonalized for initial guess.
 HarFok:  IExCor= 1009 AccDes= 0.00D+00 IRadAn=         5 IDoV= 1 UseB2=F ITyADJ=14
 ICtDFT=  3500011 ScaDFX=  1.000000  1.000000  1.000000  1.000000
 FoFCou: FMM=F IPFlag=           0 FMFlag=      100000 FMFlg1=           0
         NFxFlg=           0 DoJE=T BraDBF=F KetDBF=T FulRan=T
         wScrn=  0.000000 ICntrl=       500 IOpCl=  0 I1Cent=   200000004 NGrid=           0
         NMat0=    1 NMatS0=      1 NMatT0=    0 NMatD0=    1 NMtDS0=    0 NMtDT0=    0
 Symmetry not used in FoFCou.
 Keep R1 ints in memory in canonical form, NReq=46881441.
 Requested convergence on RMS density matrix=1.00D-08 within  32 cycles.
 Requested convergence on MAX density matrix=1.00D-06.
 Requested convergence on             energy=1.00D-06.
 No special actions if energy rises.
 Integral accuracy reduced to 1.0D-05 until final iterations.
 Initial convergence to 1.0D-05 achieved.  Increase integral accuracy.
 SCF Done:  E(RM062X) =  -153.820348680     A.U. after   10 cycles
            NFock= 10  Conv=0.85D-08     -V/T= 2.0045
 QCSCF skips out because SCF is already converged.
   1 Symmetry operations used in ECPInt.
 ECPInt:  NShTT=    1225 NPrTT=    3648 LenC2=    1223 LenP2D=    3249.
 LDataN:  DoStor=T MaxTD1= 7 Len=  274
 Calling FoFJK, ICntrl=      2127 FMM=F ISym2X=0 I1Cent= 0 IOpClX= 0 NMat=1 NMatS=1 NMatT=0.
 -------------------------------------------------------------------
 Center     Atomic                   Forces (Hartrees/Bohr)
 Number     Number              X              Y              Z
 -------------------------------------------------------------------
      1        6           0.000157136   -0.000183597   -0.000065458
      2        1          -0.000034475    0.000180238    0.000102683
      3        1          -0.000177276   -0.000079912   -0.000005257
      4        1          -0.000190585   -0.000028671    0.000306191
      5        8          -0.001033791   -0.000245041    0.001655390
      6        6           0.001500238    0.000392384   -0.002139585
      7        1          -0.000221247   -0.000035401    0.000146036
 -------------------------------------------------------------------
 Cartesian Forces:  Max     0.002139585 RMS     0.000730256

 GradGradGradGradGradGradGradGradGradGradGradGradGradGradGradGradGradGrad
 Berny optimization.
 Using GEDIIS/GDIIS optimizer.
 FormGI is forming the generalized inverse of G from B-inverse, IUseBI=4.
 Internal  Forces:  Max     0.001826449 RMS     0.000527948
 Search for a local minimum.
 Step number   4 out of a maximum of   31
 All quantities printed in internal units (Hartrees-Bohrs-Radians)
 Mixed Optimization -- En-DIIS/RFO-DIIS
 Update second derivatives using D2CorX and points    1    2    3    4
 DE= -9.58D-05 DEPred=-8.73D-05 R= 1.10D+00
 TightC=F SS=  1.41D+00  RLast= 3.21D-02 DXNew= 1.1495D+00 9.6206D-02
 Trust test= 1.10D+00 RLast= 3.21D-02 DXMaxT set to 6.83D-01
 ITU=  1  1  1  0
 Use linear search instead of GDIIS.
     Eigenvalues ---    0.00641   0.00643   0.07221   0.07285   0.12431
     Eigenvalues ---    0.15756   0.16001   0.17023   0.27328   0.31589
     Eigenvalues ---    0.34858   0.34917   0.35910   0.37776   1.21316
 RFO step:  Lambda=-1.68801732D-05 EMin= 6.40889797D-03
 Quartic linear search produced a step of  0.11014.
 Iteration  1 RMS(Cart)=  0.00469524 RMS(Int)=  0.00003806
 Iteration  2 RMS(Cart)=  0.00003221 RMS(Int)=  0.00001723
 Iteration  3 RMS(Cart)=  0.00000000 RMS(Int)=  0.00001723
 Variable       Old X    -DE/DX   Delta X   Delta X   Delta X     New X
                                 (Linear)    (Quad)   (Total)
    R1        2.06350   0.00015  -0.00010   0.00050   0.00040   2.06390
    R2        2.06352   0.00016  -0.00010   0.00053   0.00042   2.06394
    R3        2.05525  -0.00031   0.00045  -0.00107  -0.00062   2.05463
    R4        2.83339   0.00011   0.00053   0.00018   0.00071   2.83411
    R5        2.26770  -0.00183  -0.00037  -0.00136  -0.00173   2.26597
    R6        2.09297   0.00024   0.00061   0.00095   0.00156   2.09453
    A1        1.86650   0.00011  -0.00001   0.00013   0.00010   1.86659
    A2        1.92477  -0.00001  -0.00021   0.00022   0.00001   1.92478
    A3        1.91189  -0.00025  -0.00113  -0.00177  -0.00291   1.90898
    A4        1.92469  -0.00003  -0.00021   0.00019  -0.00002   1.92467
    A5        1.91170  -0.00019  -0.00114  -0.00130  -0.00245   1.90925
    A6        1.92344   0.00036   0.00260   0.00244   0.00504   1.92848
    A7        2.16410   0.00116  -0.00021   0.00509   0.00484   2.16894
    A8        2.02191  -0.00067   0.00017  -0.00468  -0.00455   2.01736
    A9        2.09717  -0.00049   0.00004  -0.00038  -0.00039   2.09678
    D1        2.12060   0.00011   0.00054   0.00911   0.00963   2.13024
    D2       -1.01913   0.00001   0.00079  -0.00829  -0.00752  -1.02665
    D3       -2.12050  -0.00002  -0.00083   0.00748   0.00666  -2.11384
    D4        1.02295  -0.00012  -0.00058  -0.00992  -0.01049   1.01246
    D5       -0.00006   0.00005  -0.00015   0.00843   0.00828   0.00822
    D6       -3.13980  -0.00005   0.00010  -0.00898  -0.00887   3.13452
         Item               Value     Threshold  Converged?
 Maximum Force            0.001826     0.000450     NO 
 RMS     Force            0.000528     0.000300     NO 
 Maximum Displacement     0.008679     0.001800     NO 
 RMS     Displacement     0.004696     0.001200     NO 
 Predicted change in Energy=-9.390154D-06
 GradGradGradGradGradGradGradGradGradGradGradGradGradGradGradGradGradGrad

                          Input orientation:                          
 ---------------------------------------------------------------------
 Center     Atomic      Atomic             Coordinates (Angstroms)
 Number     Number       Type             X           Y           Z
 ---------------------------------------------------------------------
      1          6           0        1.222570   -2.814530    0.922991
      2          1           0        1.540872   -2.365729    1.866439
      3          1           0        0.619643   -3.689875    1.174250
      4          1           0        2.088220   -3.109460    0.334936
      5          8           0        0.633472   -1.440294   -0.941634
      6          6           0        0.381735   -1.832115    0.163328
      7          1           0       -0.530549   -1.479152    0.684538
 ---------------------------------------------------------------------
                    Distance matrix (angstroms):
                    1          2          3          4          5
     1  C    0.000000
     2  H    1.092169   0.000000
     3  H    1.092191   1.755321   0.000000
     4  H    1.087263   1.788359   1.788309   0.000000
     5  O    2.390060   3.092746   3.088328   2.555785   0.000000
     6  C    1.499744   2.128128   2.128341   2.138492   1.199098
     7  H    2.216647   2.544346   2.539696   3.104525   2.000222
                    6          7
     6  C    0.000000
     7  H    1.108380   0.000000
 Symmetry turned off by external request.
 Stoichiometry    C2H4O
 Framework group  C1[X(C2H4O)]
 Deg. of freedom    15
 Full point group                 C1      NOp   1
 Rotational constants (GHZ):          57.1918720          10.2620027           9.1922820
 Standard basis: def2TZVP (5D, 7F)
   117 basis functions,   185 primitive gaussians,   132 cartesian basis functions
    12 alpha electrons       12 beta electrons
       nuclear repulsion energy        70.0054086246 Hartrees.
 NAtoms=    7 NActive=    7 NUniq=    7 SFac= 1.00D+00 NAtFMM=   60 NAOKFM=F Big=F
 Integral buffers will be    131072 words long.
 Raffenetti 2 integral format.
 Two-electron integral symmetry is turned off.
 One-electron integrals computed using PRISM.
   1 Symmetry operations used in ECPInt.
 ECPInt:  NShTT=    1225 NPrTT=    3648 LenC2=    1223 LenP2D=    3249.
 LDataN:  DoStor=T MaxTD1= 6 Len=  172
 NBasis=   117 RedAO= T EigKep=  5.29D-04  NBF=   117
 NBsUse=   117 1.00D-06 EigRej= -1.00D+00 NBFU=   117
 Initial guess from the checkpoint file:  "/oasis/scratch/comet/mayes/temp_project/hcoch3_gas.chk"
 B after Tr=     0.001412    0.002870    0.000241
         Rot=    0.999999    0.000197   -0.001036    0.000291 Ang=   0.13 deg.
 Keep R1 ints in memory in canonical form, NReq=46881441.
 Requested convergence on RMS density matrix=1.00D-08 within  32 cycles.
 Requested convergence on MAX density matrix=1.00D-06.
 Requested convergence on             energy=1.00D-06.
 No special actions if energy rises.
 SCF Done:  E(RM062X) =  -153.820349730     A.U. after   10 cycles
            NFock= 10  Conv=0.35D-08     -V/T= 2.0045
 QCSCF skips out because SCF is already converged.
   1 Symmetry operations used in ECPInt.
 ECPInt:  NShTT=    1225 NPrTT=    3648 LenC2=    1223 LenP2D=    3249.
 LDataN:  DoStor=T MaxTD1= 7 Len=  274
 Calling FoFJK, ICntrl=      2127 FMM=F ISym2X=0 I1Cent= 0 IOpClX= 0 NMat=1 NMatS=1 NMatT=0.
 -------------------------------------------------------------------
 Center     Atomic                   Forces (Hartrees/Bohr)
 Number     Number              X              Y              Z
 -------------------------------------------------------------------
      1        6           0.000261162    0.000504003    0.000292824
      2        1           0.000054972   -0.000073529    0.000089934
      3        1          -0.000111639    0.000066651   -0.000052301
      4        1          -0.000096821    0.000075012    0.000022926
      5        8          -0.000006097    0.000411724    0.000784138
      6        6          -0.000489266   -0.001423115   -0.001348957
      7        1           0.000387689    0.000439254    0.000211436
 -------------------------------------------------------------------
 Cartesian Forces:  Max     0.001423115 RMS     0.000521735

 GradGradGradGradGradGradGradGradGradGradGradGradGradGradGradGradGradGrad
 Berny optimization.
 Using GEDIIS/GDIIS optimizer.
 FormGI is forming the generalized inverse of G from B-inverse, IUseBI=4.
 Internal  Forces:  Max     0.000589573 RMS     0.000278434
 Search for a local minimum.
 Step number   5 out of a maximum of   31
 All quantities printed in internal units (Hartrees-Bohrs-Radians)
 Mixed Optimization -- En-DIIS/RFO-DIIS
 Swapping is turned off.
 Update second derivatives using D2CorX and points    1    2    3    4    5
 DE= -1.05D-06 DEPred=-9.39D-06 R= 1.12D-01
 Trust test= 1.12D-01 RLast= 2.33D-02 DXMaxT set to 6.83D-01
 ITU=  0  1  1  1  0
     Eigenvalues ---    0.00641   0.01703   0.06184   0.07364   0.09710
     Eigenvalues ---    0.15422   0.16372   0.16894   0.26066   0.31769
     Eigenvalues ---    0.34856   0.34927   0.35631   0.38418   1.08897
 En-DIIS/RFO-DIIS/Sim-DIIS IScMMF=       -3 using points:     5    4
 RFO step:  Lambda=-4.82572723D-05.
 DidBck=T Rises=F RFO-DIIS coefs:   -0.23703    1.23703
 Iteration  1 RMS(Cart)=  0.01145868 RMS(Int)=  0.00017756
 Iteration  2 RMS(Cart)=  0.00016183 RMS(Int)=  0.00005356
 Iteration  3 RMS(Cart)=  0.00000001 RMS(Int)=  0.00005356
 Variable       Old X    -DE/DX   Delta X   Delta X   Delta X     New X
                                 (Linear)    (Quad)   (Total)
    R1        2.06390   0.00006  -0.00049   0.00111   0.00062   2.06452
    R2        2.06394  -0.00000  -0.00052   0.00108   0.00056   2.06450
    R3        2.05463  -0.00011   0.00076  -0.00103  -0.00026   2.05437
    R4        2.83411  -0.00014  -0.00088   0.00325   0.00237   2.83647
    R5        2.26597  -0.00059   0.00214  -0.00649  -0.00435   2.26161
    R6        2.09453  -0.00008  -0.00193   0.00651   0.00458   2.09911
    A1        1.86659   0.00000  -0.00012   0.00023   0.00006   1.86665
    A2        1.92478  -0.00002  -0.00002  -0.00042  -0.00043   1.92436
    A3        1.90898   0.00022   0.00360  -0.01097  -0.00739   1.90159
    A4        1.92467   0.00011   0.00002  -0.00042  -0.00039   1.92429
    A5        1.90925  -0.00023   0.00303  -0.01132  -0.00830   1.90095
    A6        1.92848  -0.00007  -0.00623   0.02188   0.01566   1.94414
    A7        2.16894   0.00039  -0.00598   0.01556   0.00944   2.17838
    A8        2.01736  -0.00019   0.00563  -0.01540  -0.00990   2.00746
    A9        2.09678  -0.00018   0.00048   0.00003   0.00037   2.09716
    D1        2.13024  -0.00036  -0.01192  -0.00193  -0.01387   2.11637
    D2       -1.02665   0.00042   0.00930   0.01287   0.02214  -1.00451
    D3       -2.11384  -0.00036  -0.00824  -0.01441  -0.02262  -2.13646
    D4        1.01246   0.00041   0.01297   0.00039   0.01339   1.02585
    D5        0.00822  -0.00043  -0.01024  -0.00829  -0.01853  -0.01031
    D6        3.13452   0.00035   0.01098   0.00651   0.01748  -3.13118
         Item               Value     Threshold  Converged?
 Maximum Force            0.000590     0.000450     NO 
 RMS     Force            0.000278     0.000300     YES
 Maximum Displacement     0.018999     0.001800     NO 
 RMS     Displacement     0.011466     0.001200     NO 
 Predicted change in Energy=-2.423991D-05
 GradGradGradGradGradGradGradGradGradGradGradGradGradGradGradGradGradGrad

                          Input orientation:                          
 ---------------------------------------------------------------------
 Center     Atomic      Atomic             Coordinates (Angstroms)
 Number     Number       Type             X           Y           Z
 ---------------------------------------------------------------------
      1          6           0        1.225065   -2.816223    0.918893
      2          1           0        1.534107   -2.357871    1.861204
      3          1           0        0.617461   -3.687907    1.172877
      4          1           0        2.096599   -3.119514    0.344189
      5          8           0        0.628308   -1.430325   -0.941092
      6          6           0        0.379063   -1.838998    0.155804
      7          1           0       -0.524640   -1.480317    0.692972
 ---------------------------------------------------------------------
                    Distance matrix (angstroms):
                    1          2          3          4          5
     1  C    0.000000
     2  H    1.092495   0.000000
     3  H    1.092485   1.755856   0.000000
     4  H    1.087125   1.788248   1.788195   0.000000
     5  O    2.395073   3.087665   3.092839   2.580926   0.000000
     6  C    1.500997   2.124087   2.123613   2.150613   1.196795
     7  H    2.212951   2.524541   2.531433   3.111191   2.000488
                    6          7
     6  C    0.000000
     7  H    1.110802   0.000000
 Symmetry turned off by external request.
 Stoichiometry    C2H4O
 Framework group  C1[X(C2H4O)]
 Deg. of freedom    15
 Full point group                 C1      NOp   1
 Rotational constants (GHZ):          57.5804846          10.2207221           9.1694087
 Standard basis: def2TZVP (5D, 7F)
   117 basis functions,   185 primitive gaussians,   132 cartesian basis functions
    12 alpha electrons       12 beta electrons
       nuclear repulsion energy        69.9917123637 Hartrees.
 NAtoms=    7 NActive=    7 NUniq=    7 SFac= 1.00D+00 NAtFMM=   60 NAOKFM=F Big=F
 Integral buffers will be    131072 words long.
 Raffenetti 2 integral format.
 Two-electron integral symmetry is turned off.
 One-electron integrals computed using PRISM.
   1 Symmetry operations used in ECPInt.
 ECPInt:  NShTT=    1225 NPrTT=    3648 LenC2=    1223 LenP2D=    3249.
 LDataN:  DoStor=T MaxTD1= 6 Len=  172
 NBasis=   117 RedAO= T EigKep=  5.31D-04  NBF=   117
 NBsUse=   117 1.00D-06 EigRej= -1.00D+00 NBFU=   117
 Initial guess from the checkpoint file:  "/oasis/scratch/comet/mayes/temp_project/hcoch3_gas.chk"
 B after Tr=    -0.015685   -0.001777    0.009687
         Rot=    0.999997   -0.001874    0.000273   -0.001637 Ang=  -0.29 deg.
 Keep R1 ints in memory in canonical form, NReq=46881441.
 Requested convergence on RMS density matrix=1.00D-08 within  32 cycles.
 Requested convergence on MAX density matrix=1.00D-06.
 Requested convergence on             energy=1.00D-06.
 No special actions if energy rises.
 SCF Done:  E(RM062X) =  -153.820308302     A.U. after   10 cycles
            NFock= 10  Conv=0.85D-08     -V/T= 2.0045
 QCSCF skips out because SCF is already converged.
   1 Symmetry operations used in ECPInt.
 ECPInt:  NShTT=    1225 NPrTT=    3648 LenC2=    1223 LenP2D=    3249.
 LDataN:  DoStor=T MaxTD1= 7 Len=  274
 Calling FoFJK, ICntrl=      2127 FMM=F ISym2X=0 I1Cent= 0 IOpClX= 0 NMat=1 NMatS=1 NMatT=0.
 -------------------------------------------------------------------
 Center     Atomic                   Forces (Hartrees/Bohr)
 Number     Number              X              Y              Z
 -------------------------------------------------------------------
      1        6          -0.001266493   -0.000278102   -0.000010472
      2        1           0.000010986   -0.000231971   -0.000053860
      3        1           0.000429197   -0.000151202    0.000286175
      4        1          -0.000383430    0.000583626   -0.000651201
      5        8           0.000494288    0.000001461   -0.002743578
      6        6           0.000287627    0.000988450    0.004192479
      7        1           0.000427826   -0.000912262   -0.001019544
 -------------------------------------------------------------------
 Cartesian Forces:  Max     0.004192479 RMS     0.001222836

 GradGradGradGradGradGradGradGradGradGradGradGradGradGradGradGradGradGrad
 Berny optimization.
 Using GEDIIS/GDIIS optimizer.
 FormGI is forming the generalized inverse of G from B-inverse, IUseBI=4.
 Internal  Forces:  Max     0.002617524 RMS     0.000876385
 Search for a local minimum.
 Step number   6 out of a maximum of   31
 All quantities printed in internal units (Hartrees-Bohrs-Radians)
 Mixed Optimization -- En-DIIS/RFO-DIIS
 Swapping is turned off.
 Update second derivatives using D2CorX and points    1    2    3    4    5
                                                      6
 DE=  4.14D-05 DEPred=-2.42D-05 R=-1.71D+00
 Trust test=-1.71D+00 RLast= 5.12D-02 DXMaxT set to 3.42D-01
 ITU= -1  0  1  1  1  0
     Eigenvalues ---    0.00641   0.04156   0.06684   0.07300   0.10835
     Eigenvalues ---    0.15592   0.16598   0.16918   0.24743   0.31765
     Eigenvalues ---    0.34836   0.34927   0.35194   0.36812   1.12717
 En-DIIS/RFO-DIIS/Sim-DIIS IScMMF=       -3 using points:     6    5    4
 RFO step:  Lambda=-1.04244249D-04.
 EnCoef did     4 forward-backward iterations
 DidBck=T Rises=T En-DIIS coefs:    0.35477    0.32817    0.31707
 Iteration  1 RMS(Cart)=  0.01008769 RMS(Int)=  0.00009823
 Iteration  2 RMS(Cart)=  0.00009424 RMS(Int)=  0.00000791
 Iteration  3 RMS(Cart)=  0.00000000 RMS(Int)=  0.00000791
 Variable       Old X    -DE/DX   Delta X   Delta X   Delta X     New X
                                 (Linear)    (Quad)   (Total)
    R1        2.06452  -0.00014  -0.00052   0.00003  -0.00049   2.06402
    R2        2.06450  -0.00005  -0.00049   0.00003  -0.00046   2.06404
    R3        2.05437  -0.00013   0.00036  -0.00049  -0.00013   2.05424
    R4        2.83647  -0.00085  -0.00175  -0.00105  -0.00280   2.83367
    R5        2.26161   0.00262   0.00336   0.00051   0.00387   2.26549
    R6        2.09911  -0.00114  -0.00345  -0.00127  -0.00472   2.09439
    A1        1.86665  -0.00034  -0.00007   0.00005  -0.00002   1.86663
    A2        1.92436   0.00038   0.00027   0.00045   0.00072   1.92507
    A3        1.90159   0.00043   0.00569   0.00177   0.00746   1.90904
    A4        1.92429   0.00020   0.00026   0.00046   0.00071   1.92500
    A5        1.90095   0.00105   0.00613   0.00183   0.00796   1.90891
    A6        1.94414  -0.00165  -0.01170  -0.00433  -0.01603   1.92810
    A7        2.17838  -0.00081  -0.00763  -0.00005  -0.00766   2.17072
    A8        2.00746   0.00060   0.00783   0.00110   0.00895   2.01642
    A9        2.09716   0.00023  -0.00012  -0.00101  -0.00111   2.09605
    D1        2.11637   0.00028   0.00590  -0.00011   0.00578   2.12215
    D2       -1.00451  -0.00078  -0.01190  -0.00217  -0.01408  -1.01859
    D3       -2.13646   0.00069   0.01249   0.00194   0.01442  -2.12204
    D4        1.02585  -0.00037  -0.00531  -0.00012  -0.00543   1.02041
    D5       -0.01031   0.00059   0.00933   0.00094   0.01027  -0.00003
    D6       -3.13118  -0.00047  -0.00847  -0.00112  -0.00959  -3.14077
         Item               Value     Threshold  Converged?
 Maximum Force            0.002618     0.000450     NO 
 RMS     Force            0.000876     0.000300     NO 
 Maximum Displacement     0.019166     0.001800     NO 
 RMS     Displacement     0.010088     0.001200     NO 
 Predicted change in Energy=-5.204366D-05
 GradGradGradGradGradGradGradGradGradGradGradGradGradGradGradGradGradGrad

                          Input orientation:                          
 ---------------------------------------------------------------------
 Center     Atomic      Atomic             Coordinates (Angstroms)
 Number     Number       Type             X           Y           Z
 ---------------------------------------------------------------------
      1          6           0        1.222250   -2.815133    0.922755
      2          1           0        1.539512   -2.364240    1.865632
      3          1           0        0.620408   -3.690941    1.175217
      4          1           0        2.088230   -3.109371    0.335224
      5          8           0        0.633925   -1.438003   -0.940855
      6          6           0        0.380099   -1.835595    0.161288
      7          1           0       -0.528462   -1.477872    0.685585
 ---------------------------------------------------------------------
                    Distance matrix (angstroms):
                    1          2          3          4          5
     1  C    0.000000
     2  H    1.092235   0.000000
     3  H    1.092242   1.755438   0.000000
     4  H    1.087056   1.788424   1.788383   0.000000
     5  O    2.390743   3.091014   3.090902   2.556727   0.000000
     6  C    1.499515   2.128025   2.127936   2.137866   1.198844
     7  H    2.215741   2.540605   2.541125   3.103485   1.999510
                    6          7
     6  C    0.000000
     7  H    1.108303   0.000000
 Symmetry turned off by external request.
 Stoichiometry    C2H4O
 Framework group  C1[X(C2H4O)]
 Deg. of freedom    15
 Full point group                 C1      NOp   1
 Rotational constants (GHZ):          57.2898560          10.2569614           9.1907864
 Standard basis: def2TZVP (5D, 7F)
   117 basis functions,   185 primitive gaussians,   132 cartesian basis functions
    12 alpha electrons       12 beta electrons
       nuclear repulsion energy        70.0105976083 Hartrees.
 NAtoms=    7 NActive=    7 NUniq=    7 SFac= 1.00D+00 NAtFMM=   60 NAOKFM=F Big=F
 Integral buffers will be    131072 words long.
 Raffenetti 2 integral format.
 Two-electron integral symmetry is turned off.
 One-electron integrals computed using PRISM.
   1 Symmetry operations used in ECPInt.
 ECPInt:  NShTT=    1225 NPrTT=    3648 LenC2=    1223 LenP2D=    3250.
 LDataN:  DoStor=T MaxTD1= 6 Len=  172
 NBasis=   117 RedAO= T EigKep=  5.28D-04  NBF=   117
 NBsUse=   117 1.00D-06 EigRej= -1.00D+00 NBFU=   117
 Initial guess from the checkpoint file:  "/oasis/scratch/comet/mayes/temp_project/hcoch3_gas.chk"
 B after Tr=     0.011324    0.000128   -0.007273
         Rot=    0.999998    0.001313    0.000255    0.001118 Ang=   0.20 deg.
 Keep R1 ints in memory in canonical form, NReq=46881441.
 Requested convergence on RMS density matrix=1.00D-08 within  32 cycles.
 Requested convergence on MAX density matrix=1.00D-06.
 Requested convergence on             energy=1.00D-06.
 No special actions if energy rises.
 SCF Done:  E(RM062X) =  -153.820359306     A.U. after   10 cycles
            NFock= 10  Conv=0.60D-08     -V/T= 2.0045
 QCSCF skips out because SCF is already converged.
   1 Symmetry operations used in ECPInt.
 ECPInt:  NShTT=    1225 NPrTT=    3648 LenC2=    1223 LenP2D=    3250.
 LDataN:  DoStor=T MaxTD1= 7 Len=  274
 Calling FoFJK, ICntrl=      2127 FMM=F ISym2X=0 I1Cent= 0 IOpClX= 0 NMat=1 NMatS=1 NMatT=0.
 -------------------------------------------------------------------
 Center     Atomic                   Forces (Hartrees/Bohr)
 Number     Number              X              Y              Z
 -------------------------------------------------------------------
      1        6          -0.000048838   -0.000019717   -0.000011548
      2        1          -0.000019949    0.000010039   -0.000020766
      3        1           0.000004574    0.000017128   -0.000003488
      4        1           0.000046720   -0.000027161   -0.000004233
      5        8          -0.000049795   -0.000098015    0.000162980
      6        6           0.000104810    0.000156190   -0.000136714
      7        1          -0.000037520   -0.000038464    0.000013769
 -------------------------------------------------------------------
 Cartesian Forces:  Max     0.000162980 RMS     0.000070000

 GradGradGradGradGradGradGradGradGradGradGradGradGradGradGradGradGradGrad
 Berny optimization.
 Using GEDIIS/GDIIS optimizer.
 FormGI is forming the generalized inverse of G from B-inverse, IUseBI=4.
 Internal  Forces:  Max     0.000193164 RMS     0.000049289
 Search for a local minimum.
 Step number   7 out of a maximum of   31
 All quantities printed in internal units (Hartrees-Bohrs-Radians)
 Mixed Optimization -- En-DIIS/RFO-DIIS
 Swapping is turned off.
 Update second derivatives using D2CorX and points    1    2    3    4    5
                                                      6    7
 DE= -5.10D-05 DEPred=-5.20D-05 R= 9.80D-01
 TightC=F SS=  1.41D+00  RLast= 3.51D-02 DXNew= 5.7473D-01 1.0519D-01
 Trust test= 9.80D-01 RLast= 3.51D-02 DXMaxT set to 3.42D-01
 ITU=  1 -1  0  1  1  1  0
     Eigenvalues ---    0.00641   0.04795   0.07034   0.07392   0.11846
     Eigenvalues ---    0.15557   0.16716   0.16786   0.24160   0.31484
     Eigenvalues ---    0.34857   0.34929   0.35591   0.37289   1.11307
 En-DIIS/RFO-DIIS/Sim-DIIS IScMMF=       -3 using points:     7    6    5    4
 RFO step:  Lambda=-1.86599899D-07.
 DidBck=F Rises=F RFO-DIIS coefs:    0.92565    0.02238    0.08527   -0.03330
 Iteration  1 RMS(Cart)=  0.00036477 RMS(Int)=  0.00000167
 Iteration  2 RMS(Cart)=  0.00000014 RMS(Int)=  0.00000167
 Variable       Old X    -DE/DX   Delta X   Delta X   Delta X     New X
                                 (Linear)    (Quad)   (Total)
    R1        2.06402  -0.00002   0.00002  -0.00006  -0.00004   2.06398
    R2        2.06404  -0.00002   0.00002  -0.00006  -0.00004   2.06399
    R3        2.05424   0.00005   0.00000   0.00012   0.00012   2.05436
    R4        2.83367  -0.00002   0.00011  -0.00016  -0.00005   2.83362
    R5        2.26549  -0.00019  -0.00012  -0.00010  -0.00022   2.26527
    R6        2.09439   0.00003   0.00017  -0.00005   0.00012   2.09451
    A1        1.86663   0.00001   0.00000  -0.00003  -0.00003   1.86660
    A2        1.92507  -0.00000  -0.00003   0.00004   0.00001   1.92508
    A3        1.90904  -0.00004  -0.00027  -0.00002  -0.00029   1.90875
    A4        1.92500  -0.00001  -0.00003   0.00006   0.00002   1.92502
    A5        1.90891  -0.00001  -0.00024   0.00000  -0.00024   1.90868
    A6        1.92810   0.00005   0.00055  -0.00004   0.00050   1.92861
    A7        2.17072   0.00000   0.00024  -0.00008   0.00017   2.17089
    A8        2.01642  -0.00003  -0.00030  -0.00008  -0.00038   2.01604
    A9        2.09605   0.00003   0.00005   0.00015   0.00021   2.09625
    D1        2.12215   0.00003   0.00061  -0.00011   0.00050   2.12265
    D2       -1.01859  -0.00002  -0.00035  -0.00011  -0.00046  -1.01905
    D3       -2.12204   0.00001   0.00033  -0.00016   0.00016  -2.12188
    D4        1.02041  -0.00004  -0.00064  -0.00016  -0.00080   1.01961
    D5       -0.00003   0.00003   0.00047  -0.00012   0.00036   0.00032
    D6       -3.14077  -0.00002  -0.00049  -0.00011  -0.00060  -3.14137
         Item               Value     Threshold  Converged?
 Maximum Force            0.000193     0.000450     YES
 RMS     Force            0.000049     0.000300     YES
 Maximum Displacement     0.000766     0.001800     YES
 RMS     Displacement     0.000365     0.001200     YES
 Predicted change in Energy=-9.327074D-08
 Optimization completed.
    -- Stationary point found.
                           ----------------------------
                           !   Optimized Parameters   !
                           ! (Angstroms and Degrees)  !
 --------------------------                            --------------------------
 ! Name  Definition              Value          Derivative Info.                !
 --------------------------------------------------------------------------------
 ! R1    R(1,2)                  1.0922         -DE/DX =    0.0                 !
 ! R2    R(1,3)                  1.0922         -DE/DX =    0.0                 !
 ! R3    R(1,4)                  1.0871         -DE/DX =    0.0                 !
 ! R4    R(1,6)                  1.4995         -DE/DX =    0.0                 !
 ! R5    R(5,6)                  1.1988         -DE/DX =   -0.0002              !
 ! R6    R(6,7)                  1.1083         -DE/DX =    0.0                 !
 ! A1    A(2,1,3)              106.9499         -DE/DX =    0.0                 !
 ! A2    A(2,1,4)              110.2986         -DE/DX =    0.0                 !
 ! A3    A(2,1,6)              109.3802         -DE/DX =    0.0                 !
 ! A4    A(3,1,4)              110.2943         -DE/DX =    0.0                 !
 ! A5    A(3,1,6)              109.3727         -DE/DX =    0.0                 !
 ! A6    A(4,1,6)              110.4723         -DE/DX =    0.0                 !
 ! A7    A(1,6,5)              124.3733         -DE/DX =    0.0                 !
 ! A8    A(1,6,7)              115.5321         -DE/DX =    0.0                 !
 ! A9    A(5,6,7)              120.0945         -DE/DX =    0.0                 !
 ! D1    D(2,1,6,5)            121.5902         -DE/DX =    0.0                 !
 ! D2    D(2,1,6,7)            -58.3607         -DE/DX =    0.0                 !
 ! D3    D(3,1,6,5)           -121.5838         -DE/DX =    0.0                 !
 ! D4    D(3,1,6,7)             58.4653         -DE/DX =    0.0                 !
 ! D5    D(4,1,6,5)             -0.002          -DE/DX =    0.0                 !
 ! D6    D(4,1,6,7)           -179.9528         -DE/DX =    0.0                 !
 --------------------------------------------------------------------------------
 GradGradGradGradGradGradGradGradGradGradGradGradGradGradGradGradGradGrad

                          Input orientation:                          
 ---------------------------------------------------------------------
 Center     Atomic      Atomic             Coordinates (Angstroms)
 Number     Number       Type             X           Y           Z
 ---------------------------------------------------------------------
      1          6           0        1.222250   -2.815133    0.922755
      2          1           0        1.539512   -2.364240    1.865632
      3          1           0        0.620408   -3.690941    1.175217
      4          1           0        2.088230   -3.109371    0.335224
      5          8           0        0.633925   -1.438003   -0.940855
      6          6           0        0.380099   -1.835595    0.161288
      7          1           0       -0.528462   -1.477872    0.685585
 ---------------------------------------------------------------------
                    Distance matrix (angstroms):
                    1          2          3          4          5
     1  C    0.000000
     2  H    1.092235   0.000000
     3  H    1.092242   1.755438   0.000000
     4  H    1.087056   1.788424   1.788383   0.000000
     5  O    2.390743   3.091014   3.090902   2.556727   0.000000
     6  C    1.499515   2.128025   2.127936   2.137866   1.198844
     7  H    2.215741   2.540605   2.541125   3.103485   1.999510
                    6          7
     6  C    0.000000
     7  H    1.108303   0.000000
 Symmetry turned off by external request.
 Stoichiometry    C2H4O
 Framework group  C1[X(C2H4O)]
 Deg. of freedom    15
 Full point group                 C1      NOp   1
 Rotational constants (GHZ):          57.2898560          10.2569614           9.1907864

 **********************************************************************

            Population analysis using the SCF Density.

 **********************************************************************

 Alpha  occ. eigenvalues --  -19.62986 -10.63281 -10.54760  -1.18080  -0.85427
 Alpha  occ. eigenvalues --   -0.66992  -0.56493  -0.52086  -0.51935  -0.46986
 Alpha  occ. eigenvalues --   -0.43891  -0.33507
 Alpha virt. eigenvalues --    0.01855   0.07560   0.11126   0.13148   0.13956
 Alpha virt. eigenvalues --    0.16896   0.19590   0.24394   0.26566   0.27798
 Alpha virt. eigenvalues --    0.29219   0.33678   0.41095   0.43691   0.45545
 Alpha virt. eigenvalues --    0.46794   0.48831   0.50986   0.58047   0.58388
 Alpha virt. eigenvalues --    0.61554   0.67118   0.67302   0.77580   0.80027
 Alpha virt. eigenvalues --    0.83577   0.95487   1.01688   1.03263   1.06460
 Alpha virt. eigenvalues --    1.07532   1.15015   1.28341   1.43454   1.46800
 Alpha virt. eigenvalues --    1.49966   1.51249   1.52463   1.55845   1.61227
 Alpha virt. eigenvalues --    1.64083   1.65421   1.71301   1.85349   1.86708
 Alpha virt. eigenvalues --    1.94346   1.96808   2.08979   2.12308   2.12945
 Alpha virt. eigenvalues --    2.13596   2.27619   2.29117   2.35626   2.36342
 Alpha virt. eigenvalues --    2.44550   2.52464   2.53204   2.57749   2.67289
 Alpha virt. eigenvalues --    2.69984   2.70022   2.79942   2.86992   2.94061
 Alpha virt. eigenvalues --    2.97357   2.97953   3.01679   3.07784   3.09365
 Alpha virt. eigenvalues --    3.13238   3.16827   3.26381   3.26398   3.36126
 Alpha virt. eigenvalues --    3.39411   3.47670   3.50388   3.56869   3.78277
 Alpha virt. eigenvalues --    3.79608   3.86574   3.87810   3.95921   4.12716
 Alpha virt. eigenvalues --    4.32915   4.36045   4.38127   4.55956   4.64241
 Alpha virt. eigenvalues --    5.20505   5.21170   5.57349   5.66454   6.09491
 Alpha virt. eigenvalues --    6.31962   6.35303   6.36430   6.44268   6.77611
 Alpha virt. eigenvalues --    6.89738   7.04283  22.38530  22.80506  43.83997
          Condensed to atoms (all electrons):
               1          2          3          4          5          6
     1  C    5.319900   0.371969   0.371929   0.361019  -0.114069   0.243906
     2  H    0.371969   0.534451  -0.026802  -0.015327   0.003064  -0.021903
     3  H    0.371929  -0.026802   0.534481  -0.015323   0.003068  -0.021901
     4  H    0.361019  -0.015327  -0.015323   0.516651   0.012830  -0.016579
     5  O   -0.114069   0.003064   0.003068   0.012830   7.804570   0.630031
     6  C    0.243906  -0.021903  -0.021901  -0.016579   0.630031   4.618890
     7  H   -0.164540   0.006187   0.006188   0.011418  -0.069097   0.429476
               7
     1  C   -0.164540
     2  H    0.006187
     3  H    0.006188
     4  H    0.011418
     5  O   -0.069097
     6  C    0.429476
     7  H    0.699974
 Mulliken charges:
               1
     1  C   -0.390114
     2  H    0.148363
     3  H    0.148361
     4  H    0.145312
     5  O   -0.270396
     6  C    0.138080
     7  H    0.080395
 Sum of Mulliken charges =  -0.00000
 Mulliken charges with hydrogens summed into heavy atoms:
               1
     1  C    0.051922
     5  O   -0.270396
     6  C    0.218475
 Electronic spatial extent (au):  <R**2>=            586.9142
 Charge=             -0.0000 electrons
 Dipole moment (field-independent basis, Debye):
    X=             -0.2030    Y=             -1.1967    Z=              2.5711  Tot=              2.8432
 Quadrupole moment (field-independent basis, Debye-Ang):
   XX=            -18.0669   YY=            -13.7097   ZZ=            -19.8473
   XY=             -0.5198   XZ=              1.7323   YZ=             -4.0408
 Traceless Quadrupole moment (field-independent basis, Debye-Ang):
   XX=             -0.8590   YY=              3.4982   ZZ=             -2.6393
   XY=             -0.5198   XZ=              1.7323   YZ=             -4.0408
 Octapole moment (field-independent basis, Debye-Ang**2):
  XXX=            -41.7909  YYY=            102.0461  ZZZ=             -7.2064  XYY=            -11.6094
  XXY=             37.3477  XXZ=             -1.8850  XZZ=            -14.7437  YZZ=             40.8833
  YYZ=              3.7158  XYZ=             -2.6587
 Hexadecapole moment (field-independent basis, Debye-Ang**3):
 XXXX=           -111.7265 YYYY=           -518.1636 ZZZZ=            -98.9840 XXXY=             99.3285
 XXXZ=            -16.5500 YYYX=             96.3322 YYYZ=             31.3043 ZZZX=            -13.3960
 ZZZY=             42.4970 XXYY=           -107.7282 XXZZ=            -35.7586 YYZZ=           -113.1815
 XXYZ=             13.9480 YYXZ=             -2.5778 ZZXY=             35.7889
 N-N= 7.001059760827D+01 E-N=-4.997919705524D+02  KE= 1.531364869271D+02
 1\1\GINC-COMET-17-31\FOpt\RM062X\def2TZVP\C2H4O1\MAYES\06-Oct-2019\0\\
 # m062x/Def2TZVP nosymm scf=xqc opt freq=NoRaman CPHF=Grid=Fine guess=
 mix\\added H to radical calculation of fragment 1 from fragment pair [
 10, 15] and complete/lme2acetoxprpnt_39_t.log\\0,1\C,1.2222498793,-2.8
 151326654,0.9227552103\H,1.5395121653,-2.3642399162,1.8656319916\H,0.6
 204078488,-3.6909412321,1.1752173365\H,2.0882302943,-3.1093714801,0.33
 52243879\O,0.6339251981,-1.4380028666,-0.9408545873\C,0.3800990626,-1.
 8355949274,0.1612884766\H,-0.5284619784,-1.4778723422,0.6855853944\\Ve
 rsion=ES64L-G16RevB.01\HF=-153.8203593\RMSD=6.033e-09\RMSF=7.000e-05\D
 ipole=-0.0798856,-0.4708096,1.0115408\Quadrupole=-0.6386084,2.6008605,
 -1.9622522,-0.3864938,1.2879218,-3.0042248\PG=C01 [X(C2H4O1)]\\@


 FROM AN ANONYMOUS WRITER, ON PERSPECTIVE:

 MAN, DESPITE HIS ARTISTIC PRETENSIONS, HIS SOPHISTICATION AND MANY 
 ACCOMPLISHMENTS, OWES THE FACT OF HIS EXISTENCE TO A SIX-INCH LAYER OF 
 TOPSOIL AND THE FACT THAT IT RAINS.
 Job cpu time:       0 days  0 hours  8 minutes 56.7 seconds.
 Elapsed time:       0 days  0 hours  0 minutes 26.9 seconds.
 File lengths (MBytes):  RWF=     13 Int=      0 D2E=      0 Chk=      2 Scr=      1
 Normal termination of Gaussian 16 at Sun Oct  6 12:01:03 2019.
 Link1:  Proceeding to internal job step number  2.
 --------------------------------------------------------------------
 #N Geom=AllCheck Guess=TCheck SCRF=Check GenChk RM062X/def2TZVP Freq
 --------------------------------------------------------------------
 1/10=4,29=7,30=1,38=1,40=1/1,3;
 2/12=2,15=1,40=1/2;
 3/5=44,7=101,11=2,14=-4,25=1,30=1,70=2,71=2,74=-55,116=1,140=1/1,2,3;
 4/5=101/1;
 5/5=2,8=3,13=1,38=6,98=1/2,8;
 8/6=4,10=90,11=11/1;
 11/6=1,8=1,9=11,15=111,16=1,31=1/1,2,10;
 10/6=1,31=1,60=4/2;
 6/7=2,8=2,9=2,10=2,28=1/1;
 7/8=1,10=1,25=1,30=1/1,2,3,16;
 1/10=4,30=1/3;
 99//99;
 Structure from the checkpoint file:  "/oasis/scratch/comet/mayes/temp_project/hcoch3_gas.chk"
 ----------------------------------------------------------------------
 added H to radical calculation of fragment 1 from fragment pair [10, 1
 5] and complete/lme2acetoxprpnt_39_t.log
[...]
     2   1    -0.23   0.53  -0.14     0.09   0.16  -0.07    -0.44  -0.32   0.30
     3   1    -0.47   0.19  -0.31    -0.05  -0.05  -0.18    -0.08   0.22   0.57
     4   1    -0.09   0.25  -0.36    -0.04   0.06  -0.05    -0.10   0.27  -0.36
     5   8    -0.01  -0.00   0.01     0.05  -0.00  -0.06     0.01   0.01  -0.03
     6   6    -0.01   0.01   0.00    -0.07   0.06  -0.01    -0.01  -0.00   0.01
     7   1    -0.08   0.16  -0.20     0.15  -0.51   0.79     0.03  -0.09   0.13
                     10                     11                     12
                      A                      A                      A
 Frequencies --   1472.9231              1870.1135              2945.1597
 Red. masses --      1.0466                 9.9069                 1.0839
 Frc consts  --      1.3379                20.4137                 5.5391
 IR Inten    --     10.6512               199.1451                96.6649
  Atom  AN      X      Y      Z        X      Y      Z        X      Y      Z
     1   6    -0.03  -0.04  -0.02    -0.00   0.02  -0.04     0.00  -0.00  -0.00
     2   1     0.45  -0.18  -0.10     0.01   0.14  -0.09     0.01   0.02   0.03
     3   1    -0.38   0.26   0.13    -0.07   0.03  -0.15    -0.03  -0.03   0.00
     4   1     0.38   0.54   0.29     0.06  -0.14   0.18    -0.01   0.00   0.01
     5   8     0.00   0.00   0.00     0.10   0.16  -0.44    -0.00  -0.00   0.00
     6   6    -0.01  -0.02  -0.01    -0.11  -0.26   0.65    -0.07   0.03   0.04
     7   1     0.04   0.06   0.03    -0.28   0.26  -0.12     0.82  -0.33  -0.46
                     13                     14                     15
                      A                      A                      A
 Frequencies --   3064.6994              3129.2474              3183.8612
 Red. masses --      1.0364                 1.0988                 1.1036
 Frc consts  --      5.7353                 6.3395                 6.5916
 IR Inten    --      1.1914                 3.6153                 5.0953
  Atom  AN      X      Y      Z        X      Y      Z        X      Y      Z
     1   6    -0.02   0.03  -0.04    -0.05  -0.07  -0.04    -0.07   0.01   0.07
     2   1     0.19   0.27   0.54     0.20   0.28   0.61    -0.10  -0.13  -0.25
     3   1    -0.35  -0.51   0.14     0.38   0.56  -0.18     0.16   0.24  -0.06
     4   1     0.34  -0.11  -0.24    -0.01  -0.01  -0.01     0.72  -0.25  -0.49
     5   8    -0.00  -0.00   0.00    -0.00  -0.00  -0.00     0.00   0.00  -0.00
     6   6     0.00  -0.00  -0.00    -0.00  -0.00  -0.00    -0.00   0.00   0.00
     7   1    -0.04   0.02   0.02     0.00   0.00   0.00     0.03  -0.01  -0.01

 -------------------
 - Thermochemistry -
 -------------------
 Temperature   298.150 Kelvin.  Pressure   1.00000 Atm.
 Atom     1 has atomic number  6 and mass  12.00000
 Atom     2 has atomic number  1 and mass   1.00783
 Atom     3 has atomic number  1 and mass   1.00783
 Atom     4 has atomic number  1 and mass   1.00783
 Atom     5 has atomic number  8 and mass  15.99491
 Atom     6 has atomic number  6 and mass  12.00000
 Atom     7 has atomic number  1 and mass   1.00783
 Molecular mass:    44.02621 amu.
 Principal axes and moments of inertia in atomic units:
                           1         2         3
     Eigenvalues --    31.50193 175.95281 196.36418
           X            0.26914   0.80824   0.52375
           Y           -0.58464  -0.29505   0.75574
           Z            0.76535  -0.50960   0.39312
 This molecule is an asymmetric top.
 Rotational symmetry number  1.
 Rotational temperatures (Kelvin)      2.74948     0.49226     0.44109
 Rotational constants (GHZ):          57.28986    10.25696     9.19079
 Zero-point vibrational energy     147003.7 (Joules/Mol)
                                   35.13474 (Kcal/Mol)
 Warning -- explicit consideration of   2 degrees of freedom as
           vibrations may cause significant error
 Vibrational temperatures:    231.61   738.72  1115.28  1295.66  1637.17
          (Kelvin)           1647.84  1984.89  2062.81  2107.09  2119.21
                             2690.68  4237.43  4409.42  4502.29  4580.87
 
 Zero-point correction=                           0.055991 (Hartree/Particle)
 Thermal correction to Energy=                    0.059871
 Thermal correction to Enthalpy=                  0.060815
 Thermal correction to Gibbs Free Energy=         0.031078
 Sum of electronic and zero-point Energies=           -153.764369
 Sum of electronic and thermal Energies=              -153.760488
 Sum of electronic and thermal Enthalpies=            -153.759544
 Sum of electronic and thermal Free Energies=         -153.789282
 
                     E (Thermal)             CV                S
                      KCal/Mol        Cal/Mol-Kelvin    Cal/Mol-Kelvin
 Total                   37.570             11.151             62.588
 Electronic               0.000              0.000              0.000
 Translational            0.889              2.981             37.273
 Rotational               0.889              2.981             21.614
 Vibrational             35.792              5.190              3.701
 Vibration     1          0.622              1.890              2.538
 Vibration     2          0.869              1.220              0.625
                       Q            Log10(Q)             Ln(Q)
 Total Bot       0.507323D-14        -14.294715        -32.914799
 Total V=0       0.287890D+12         11.459227         26.385846
 Vib (Bot)       0.374128D-25        -25.426980        -58.547785
 Vib (Bot)    1  0.125548D+01          0.098810          0.227517
 Vib (Bot)    2  0.316264D+00         -0.499950         -1.151178
 Vib (V=0)       0.212306D+01          0.326963          0.752860
 Vib (V=0)    1  0.185138D+01          0.267496          0.615931
 Vib (V=0)    2  0.109163D+01          0.038074          0.087670
 Electronic      0.100000D+01          0.000000          0.000000
 Translational   0.114821D+08          7.060021         16.256299
 Rotational      0.118098D+05          4.072243          9.376687
 -------------------------------------------------------------------
 Center     Atomic                   Forces (Hartrees/Bohr)
 Number     Number              X              Y              Z
 -------------------------------------------------------------------
      1        6          -0.000048851   -0.000019735   -0.000011554
      2        1          -0.000019945    0.000010040   -0.000020758
      3        1           0.000004585    0.000017139   -0.000003491
      4        1           0.000046714   -0.000027157   -0.000004230
      5        8          -0.000049795   -0.000098016    0.000163031
      6        6           0.000104815    0.000156198   -0.000136765
      7        1          -0.000037523   -0.000038469    0.000013767
 -------------------------------------------------------------------
 Cartesian Forces:  Max     0.000163031 RMS     0.000070012
 FormGI is forming the generalized inverse of G from B-inverse, IUseBI=4.

 GradGradGradGradGradGradGradGradGradGradGradGradGradGradGradGradGradGrad
 Berny optimization.
 Internal  Forces:  Max     0.000193211 RMS     0.000049297
 Search for a local minimum.
 Step number   1 out of a maximum of    2
 All quantities printed in internal units (Hartrees-Bohrs-Radians)
 Second derivative matrix not updated -- analytic derivatives used.
 ITU=  0
     Eigenvalues ---    0.00134   0.04395   0.05353   0.05525   0.11006
     Eigenvalues ---    0.12111   0.13026   0.15626   0.22638   0.30027
     Eigenvalues ---    0.31023   0.34158   0.34714   0.35607   0.92498
 Angle between quadratic step and forces=  67.49 degrees.
 Linear search not attempted -- first point.
 Iteration  1 RMS(Cart)=  0.00046182 RMS(Int)=  0.00000022
 Iteration  2 RMS(Cart)=  0.00000019 RMS(Int)=  0.00000005
 Variable       Old X    -DE/DX   Delta X   Delta X   Delta X     New X
                                 (Linear)    (Quad)   (Total)
    R1        2.06402  -0.00002   0.00000  -0.00003  -0.00003   2.06399
    R2        2.06404  -0.00002   0.00000  -0.00005  -0.00005   2.06399
    R3        2.05424   0.00005   0.00000   0.00012   0.00012   2.05436
    R4        2.83367  -0.00002   0.00000  -0.00002  -0.00002   2.83365
    R5        2.26549  -0.00019   0.00000  -0.00024  -0.00024   2.26525
    R6        2.09439   0.00003   0.00000   0.00013   0.00013   2.09451
    A1        1.86663   0.00001   0.00000  -0.00005  -0.00005   1.86658
    A2        1.92507  -0.00000   0.00000  -0.00004  -0.00004   1.92503
    A3        1.90904  -0.00004   0.00000  -0.00032  -0.00032   1.90872
    A4        1.92500  -0.00001   0.00000   0.00006   0.00006   1.92506
    A5        1.90891  -0.00001   0.00000  -0.00016  -0.00016   1.90875
    A6        1.92810   0.00005   0.00000   0.00048   0.00048   1.92859
    A7        2.17072   0.00000   0.00000   0.00016   0.00016   2.17088
    A8        2.01642  -0.00003   0.00000  -0.00037  -0.00037   2.01604
    A9        2.09605   0.00003   0.00000   0.00021   0.00021   2.09626
    D1        2.12215   0.00003   0.00000  -0.00009  -0.00009   2.12206
    D2       -1.01859  -0.00002   0.00000  -0.00101  -0.00101  -1.01959
    D3       -2.12204   0.00001   0.00000  -0.00042  -0.00042  -2.12246
    D4        1.02041  -0.00004   0.00000  -0.00134  -0.00134   1.01907
    D5       -0.00003   0.00003   0.00000  -0.00014  -0.00014  -0.00017
    D6       -3.14077  -0.00002   0.00000  -0.00106  -0.00106   3.14136
         Item               Value     Threshold  Converged?
 Maximum Force            0.000193     0.000450     YES
 RMS     Force            0.000049     0.000300     YES
 Maximum Displacement     0.001191     0.001800     YES
 RMS     Displacement     0.000462     0.001200     YES
 Predicted change in Energy=-9.469645D-08
 Optimization completed.
    -- Stationary point found.
                           ----------------------------
                           !   Optimized Parameters   !
                           ! (Angstroms and Degrees)  !
 --------------------------                            --------------------------
 ! Name  Definition              Value          Derivative Info.                !
 --------------------------------------------------------------------------------
 ! R1    R(1,2)                  1.0922         -DE/DX =    0.0                 !
 ! R2    R(1,3)                  1.0922         -DE/DX =    0.0                 !
 ! R3    R(1,4)                  1.0871         -DE/DX =    0.0                 !
 ! R4    R(1,6)                  1.4995         -DE/DX =    0.0                 !
 ! R5    R(5,6)                  1.1988         -DE/DX =   -0.0002              !
 ! R6    R(6,7)                  1.1083         -DE/DX =    0.0                 !
 ! A1    A(2,1,3)              106.9499         -DE/DX =    0.0                 !
 ! A2    A(2,1,4)              110.2986         -DE/DX =    0.0                 !
 ! A3    A(2,1,6)              109.3802         -DE/DX =    0.0                 !
 ! A4    A(3,1,4)              110.2943         -DE/DX =    0.0                 !
 ! A5    A(3,1,6)              109.3727         -DE/DX =    0.0                 !
 ! A6    A(4,1,6)              110.4723         -DE/DX =    0.0                 !
 ! A7    A(1,6,5)              124.3733         -DE/DX =    0.0                 !
 ! A8    A(1,6,7)              115.5321         -DE/DX =    0.0                 !
 ! A9    A(5,6,7)              120.0945         -DE/DX =    0.0                 !
 ! D1    D(2,1,6,5)            121.5902         -DE/DX =    0.0                 !
 ! D2    D(2,1,6,7)            -58.3607         -DE/DX =    0.0                 !
 ! D3    D(3,1,6,5)           -121.5838         -DE/DX =    0.0                 !
 ! D4    D(3,1,6,7)             58.4653         -DE/DX =    0.0                 !
 ! D5    D(4,1,6,5)             -0.002          -DE/DX =    0.0                 !
 ! D6    D(4,1,6,7)            180.0472         -DE/DX =    0.0                 !
 --------------------------------------------------------------------------------
 GradGradGradGradGradGradGradGradGradGradGradGradGradGradGradGradGradGrad


 ----------------------------------------------------------------------

 Electric dipole moment (input orientation):
 (Debye = 10**-18 statcoulomb cm , SI units = C m)
                  (au)            (Debye)         (10**-30 SI)
   Tot        0.111860D+01      0.284319D+01      0.948386D+01
   x         -0.798857D-01     -0.203049D+00     -0.677299D+00
   y         -0.470810D+00     -0.119668D+01     -0.399169D+01
   z          0.101154D+01      0.257108D+01      0.857620D+01

 Dipole polarizability, Alpha (input orientation).
 (esu units = cm**3 , SI units = C**2 m**2 J**-1)
 Alpha(0;0):
               (au)            (10**-24 esu)      (10**-40 SI)
   iso        0.274024D+02      0.406062D+01      0.451805D+01
   aniso      0.104897D+02      0.155441D+01      0.172952D+01
   xx         0.258013D+02      0.382336D+01      0.425406D+01
   yx        -0.246095D+01     -0.364676D+00     -0.405756D+00
   yy         0.252181D+02      0.373694D+01      0.415790D+01
   zx        -0.127751D+01     -0.189308D+00     -0.210634D+00
   zy        -0.426115D+01     -0.631438D+00     -0.702569D+00
   zz         0.311879D+02      0.462156D+01      0.514218D+01

 ----------------------------------------------------------------------

 Dipole orientation:
     6          2.51203484         -4.12746426          3.65099760
     1          3.22376602         -2.61419024          4.86080586
     1          1.43795988         -5.40978536          4.86023947
     1          4.07360322         -5.12490620          2.76414414
     8          1.11065548         -3.23187603         -0.54960095
     6          0.79287950         -3.02913491          1.68430670
     1         -0.85936656         -1.97191064          2.41835496

 Electric dipole moment (dipole orientation):
 (Debye = 10**-18 statcoulomb cm , SI units = C m)
                  (au)            (Debye)         (10**-30 SI)
   Tot        0.111860D+01      0.284319D+01      0.948386D+01
   x          0.000000D+00      0.000000D+00      0.000000D+00
   y          0.000000D+00      0.000000D+00      0.000000D+00
   z          0.111860D+01      0.284319D+01      0.948386D+01

 Dipole polarizability, Alpha (dipole orientation).
 (esu units = cm**3 , SI units = C**2 m**2 J**-1)
 Alpha(0;0):
               (au)            (10**-24 esu)      (10**-40 SI)
   iso        0.274024D+02      0.406062D+01      0.451805D+01
   aniso      0.104897D+02      0.155441D+01      0.172952D+01
   xx         0.257337D+02      0.381335D+01      0.424292D+01
   yx        -0.283890D+01     -0.420682D+00     -0.468072D+00
   yy         0.231099D+02      0.342454D+01      0.381031D+01
   zx         0.417513D+00      0.618691D-01      0.688386D-01
   zy        -0.267496D+00     -0.396388D-01     -0.441041D-01
   zz         0.333636D+02      0.494397D+01      0.550091D+01

 ----------------------------------------------------------------------
 1\1\GINC-COMET-17-31\Freq\RM062X\def2TZVP\C2H4O1\MAYES\06-Oct-2019\0\\
 #N Geom=AllCheck Guess=TCheck SCRF=Check GenChk RM062X/def2TZVP Freq\\
 added H to radical calculation of fragment 1 from fragment pair [10, 1
 5] and complete/lme2acetoxprpnt_39_t.log\\0,1\C,1.2222498793,-2.815132
 6654,0.9227552103\H,1.5395121653,-2.3642399162,1.8656319916\H,0.620407
 8488,-3.6909412321,1.1752173365\H,2.0882302943,-3.1093714801,0.3352243
 879\O,0.6339251981,-1.4380028666,-0.9408545873\C,0.3800990626,-1.83559
 49274,0.1612884766\H,-0.5284619784,-1.4778723422,0.6855853944\\Version
 =ES64L-G16RevB.01\HF=-153.8203593\RMSD=1.451e-09\RMSF=7.001e-05\ZeroPo
 int=0.0559908\Thermal=0.059871\Dipole=-0.0798857,-0.4708098,1.0115407\
 DipoleDeriv=-0.0914814,0.17652,-0.1304614,0.1541838,-0.1458241,0.20017
 19,-0.0878027,0.1705228,-0.1457489,0.0676139,0.0309803,-0.0435717,-0.0
 102365,0.0315495,-0.0722241,-0.0289939,-0.0505336,-0.00421,-0.0010215,
 -0.0647887,0.0003958,-0.0360535,-0.000642,0.0462704,0.0098363,0.008021
 7,0.0967584,-0.0082071,0.0498908,0.0234565,0.0253341,0.056081,0.015011
 9,0.0706498,-0.0175935,0.0211531,-0.4723936,0.0384849,0.1156209,0.0626
 695,-0.5142331,0.2705077,0.0690909,0.3025654,-1.0041934,0.6683037,-0.3
 35903,-0.072347,-0.3051741,0.5721449,-0.4442835,-0.1315059,-0.4032038,
 1.0804503,-0.1628141,0.1048157,0.1069068,0.1092767,0.0009239,-0.015454
 2,0.0987255,-0.009779,-0.0442095\Polar=25.8013055,-2.460953,25.2180892
 ,-1.2775142,-4.2611519,31.1878574\Quadrupole=-0.6386089,2.6008616,-1.9
 622527,-0.3864936,1.2879215,-3.0042239\PG=C01 [X(C2H4O1)]\NImag=0\\0.5
 5696083,0.00681946,0.50731500,-0.05599111,0.02447903,0.55261532,-0.070
 88476,-0.02992950,-0.06929657,0.07010336,-0.02753120,-0.08609200,-0.09
 738529,0.03462048,0.09493328,-0.06865436,-0.10159078,-0.24530680,0.076
 17289,0.10600055,0.26633638,-0.12863744,-0.11525629,0.03661509,-0.0060
 2407,-0.00803717,0.00298086,0.13493777,-0.11903844,-0.22101551,0.04936
 337,-0.00666153,-0.01065725,0.00313109,0.13074142,0.23733731,0.0386150
 3,0.05174461,-0.05259625,-0.01516959,-0.02410477,0.00705861,-0.0374601
 3,-0.05609263,0.05906683,-0.22528679,0.05998621,0.12063380,0.01028481,
 -0.00317068,-0.00618230,-0.01152022,0.00551794,0.00714321,0.24181302,0
 .05830278,-0.06767038,-0.04001343,0.01035433,-0.00419155,-0.00534244,-
 0.02043855,0.00933809,0.01439573,-0.06725775,0.06915188,0.12386900,-0.
 04226294,-0.13199023,0.02176126,-0.00535593,-0.01204497,0.00309485,-0.
 00214135,-0.00376628,-0.13216041,0.04405648,0.13694679,0.02455281,0.01
 009084,-0.01726844,-0.00020290,0.00048923,-0.00253527,-0.00277716,0.00
 380355,-0.00460993,0.00369769,-0.00422602,0.00122591,0.10517403,0.0010
 6943,0.00234888,0.04428772,0.00316707,-0.00580800,0.00382977,-0.000371
 38,-0.00077262,0.00096748,-0.00302903,0.00174267,-0.00214868,0.0327062
 8,0.14081752,0.00004225,0.03230939,-0.03598133,-0.00056209,0.00102591,
 0.00030325,-0.00370094,0.00177394,-0.00216116,-0.00107252,-0.00056281,
 0.00102702,-0.17393407,-0.27232812,0.77689770,-0.14949846,0.05736592,-
 0.02708588,-0.00387131,0.00481455,-0.00206031,0.01503063,-0.01642871,0
 .01268917,-0.01847436,0.02049621,-0.01611456,-0.13292395,-0.03202561,0
 .15191116,0.50214602,0.05795807,-0.14004113,0.02477785,-0.01293175,0.0
 1291703,-0.00771658,0.01559087,-0.01594026,0.01451788,0.00501651,-0.00
 700628,0.00487165,-0.03393574,-0.15977516,0.22715613,-0.10171396,0.403
 94739,-0.02814695,0.02548305,-0.09862127,-0.01476370,0.02196194,-0.017
 40218,-0.00205665,0.00386026,-0.00744514,0.01363846,-0.01573505,0.0110
 9751,0.15560169,0.22462546,-0.70404221,-0.18801726,-0.22888267,0.90493
 839,-0.00720619,0.01092335,0.01239312,0.00059486,-0.00118521,0.0002784
 9,-0.00100950,0.00206577,-0.00120776,-0.00051415,0.00276900,-0.0016760
 5,0.00247949,-0.00151676,0.02731621,-0.21240857,0.07001601,0.06374442,
 0.21806406,0.02241991,0.00515514,-0.00550926,0.00138090,-0.00110150,0.
 00168840,-0.00222891,0.00171025,-0.00142830,0.00293678,-0.00136443,0.0
 0298077,-0.00892814,0.02144671,0.01062555,0.06749160,-0.09410158,-0.03
 131300,-0.08307215,0.06825541,-0.00973386,0.00983764,0.01188056,0.0018
 5781,-0.00214242,0.00105570,0.00052692,0.00010531,-0.00015661,-0.00200
 025,0.00320153,-0.00126985,0.04152012,0.00076636,-0.03604328,0.0686776
 9,-0.03472426,-0.08852510,-0.10084842,0.02295584,0.11305858\\0.0000488
 5,0.00001973,0.00001155,0.00001995,-0.00001004,0.00002076,-0.00000458,
 -0.00001714,0.00000349,-0.00004671,0.00002716,0.00000423,0.00004979,0.
 00009802,-0.00016303,-0.00010481,-0.00015620,0.00013677,0.00003752,0.0
 0003847,-0.00001377\\\@


 MOST BUREAUCRACIES FUNCTION LIKE A SEPTIC TANK.
 THE LARGE CHUNKS RISE TO THE TOP.
 Job cpu time:       0 days  0 hours  8 minutes 49.5 seconds.
 Elapsed time:       0 days  0 hours  0 minutes 22.7 seconds.
 File lengths (MBytes):  RWF=     22 Int=      0 D2E=      0 Chk=      2 Scr=      1
 Normal termination of Gaussian 16 at Sun Oct  6 12:01:30 2019.
