 Entering Gaussian System, Link 0=g16
 Initial command:
 /nopt/nrel/apps/gaussian/g16B/g16/l1.exe "/dev/shm/Gau-70462.inp" -scrdir="/dev/shm/"
 Default is to use a total of  36 processors:
                               36 via shared-memory
                                1 via Linda
 Entering Link 1 = /nopt/nrel/apps/gaussian/g16B/g16/l1.exe PID=     70463.
  
 Copyright (c) 1988-2017, Gaussian, Inc.  All Rights Reserved.
  
 This is part of the Gaussian(R) 16 program.  It is based on
 the Gaussian(R) 09 system (copyright 2009, Gaussian, Inc.),
 the Gaussian(R) 03 system (copyright 2003, Gaussian, Inc.),
 the Gaussian(R) 98 system (copyright 1998, Gaussian, Inc.),
 the Gaussian(R) 94 system (copyright 1995, Gaussian, Inc.),
 the Gaussian 92(TM) system (copyright 1992, Gaussian, Inc.),
 the Gaussian 90(TM) system (copyright 1990, Gaussian, Inc.),
 the Gaussian 88(TM) system (copyright 1988, Gaussian, Inc.),
 the Gaussian 86(TM) system (copyright 1986, Carnegie Mellon
 University), and the Gaussian 82(TM) system (copyright 1983,
 Carnegie Mellon University). Gaussian is a federally registered
 trademark of Gaussian, Inc.
  
 This software contains proprietary and confidential information,
 including trade secrets, belonging to Gaussian, Inc.
  
 This software is provided under written license and may be
 used, copied, transmitted, or stored only in accord with that
 written license.
  
 The following legend is applicable only to US Government
 contracts under FAR:
  
                    RESTRICTED RIGHTS LEGEND
  
 Use, reproduction and disclosure by the US Government is
 subject to restrictions as set forth in subparagraphs (a)
 and (c) of the Commercial Computer Software - Restricted
 Rights clause in FAR 52.227-19.
  
 Gaussian, Inc.
 340 Quinnipiac St., Bldg. 40, Wallingford CT 06492
  
  
 ---------------------------------------------------------------
 Warning -- This program may not be used in any manner that
 competes with the business of Gaussian, Inc. or will provide
 assistance to any competitor of Gaussian, Inc.  The licensee
 of this program is prohibited from giving any competitor of
 Gaussian, Inc. access to this program.  By using this program,
 the user acknowledges that Gaussian, Inc. is engaged in the
 business of creating and licensing software in the field of
 computational chemistry and represents and warrants to the
 licensee that it is not a competitor of Gaussian, Inc. and that
 it will not use this program in any manner prohibited above.
 ---------------------------------------------------------------

 ******************************************
 Gaussian 16:  ES64L-G16RevB.01 20-Dec-2017
                 9-Aug-2019 
 ******************************************
 %RWF=/dev/shm/,5GB,/tmp/scratch/1142009/,-1
 %NoSave
 %Chk=/dev/shm/ipaegh1dts.chk
 Default route: CacheSize=180224 MaxDisk=256GB
 ----------------------------------------------------------------------
 # m062x/Def2SVP nosymm scf=xqc opt=(TS,CalcFC) freq=NoRaman guess=mix 
 CPHF=Grid=Fine SCRF=(Solvent=1,2-EthaneDiol,Read)
 ----------------------------------------------------------------------
 1/4=180224,5=1,10=4,18=20,26=3,38=1,40=2/1,3;
 2/4=180224,9=110,12=2,15=1,17=6,18=5,40=1/2;
 3/4=180224,5=43,7=101,11=2,25=1,30=1,70=2203,71=2,72=30,74=-55,140=1/1,2,3;
 4/4=180224,13=-1/1;
 5/4=180224,5=2,8=3,13=1,38=5,53=30/2,8;
 8/4=180224,6=4,10=90,11=11/1;
 11/4=180224,6=1,8=1,9=11,15=111,16=1,31=1/1,2,10;
 10/4=180224,6=1,13=1,31=1,60=4/2;
 6/4=180224,7=2,8=2,9=2,10=2,28=1/1;
 7/4=180224,10=1,18=20,25=1,30=1/1,2,3,16;
 1/4=180224,5=1,10=4,18=20,26=3/3(2);
 2/4=180224,9=110,15=1/2;
 99/4=180224/99;
 2/4=180224,9=110,15=1/2;
 3/4=180224,5=43,7=101,11=2,25=1,30=1,70=2205,71=1,72=30,74=-55/1,2,3;
 4/4=180224,5=5,16=3,69=1/1;
 5/4=180224,5=2,8=3,13=1,38=5,53=30/2,8;
 7/4=180224,30=1/1,2,3,16;
 1/4=180224,5=1,18=20,26=3/3(-5);
 2/4=180224,9=110,15=1/2;
 6/4=180224,7=2,8=2,9=2,10=2,19=2,28=1/1;
 99/4=180224,9=1/99;
 ---------------------------------------------------
 Last conformation from file complete/ipaegh1dts.log
 ---------------------------------------------------
 Symbolic Z-matrix:
 Charge =  1 Multiplicity = 1
 H                     3.70529   20.09301   10.11236 
 H                     4.24277   16.26438   14.07903 
 C                     4.09953   20.1819   11.12438 
 H                     4.37164   18.056    11.35972 
 H                     3.92364   22.33598   11.18015 
 C                     5.1005    20.40397   13.7273 
 C                     4.97963   19.155    13.12323 
 C                     4.47685   19.0381   11.82238 
 C                     4.21936   21.43682   11.7202 
 C                     4.71788   21.54532   13.02092 
 C                     5.44009   17.93825   13.86978 
 C                     4.85941   22.86648   13.70787 
 H                     5.48481   20.50455   14.74253 
 H                     4.58657   24.70892   13.45207 
 O                     4.77247   16.72723   13.40113 
 O                     5.41559   18.10225   15.18929 
 O                     4.46852   23.88701   12.94812 
 O                     5.28165   22.99584   14.82767 
 H                     7.30081   18.30694   11.64135 
 C                     7.6803    18.15289   12.65955 
 O                     9.86965   18.14291   11.89422 
 H                     7.80526   19.12073   13.16122 
 H                     5.94942   16.46741   13.12906 
 O                     6.71994   17.39093   13.42388 
 C                     8.97897   17.37418   12.65438 
 H                     10.71667   17.6847   11.85382 
 H                     8.80145   16.377    12.21551 
 H                     9.31741   17.23456   13.69499 
 H                     5.9717    17.44486   15.64124 
 
 Add virtual bond connecting atoms H23        and O15        Dist= 2.33D+00.
 Add virtual bond connecting atoms H23        and O24        Dist= 2.34D+00.

 GradGradGradGradGradGradGradGradGradGradGradGradGradGradGradGradGradGrad
 Berny optimization.
 Initialization pass.
                           ----------------------------
                           !    Initial Parameters    !
                           ! (Angstroms and Degrees)  !
 --------------------------                            --------------------------
 ! Name  Definition              Value          Derivative Info.                !
 --------------------------------------------------------------------------------
 ! R1    R(1,3)                  1.0897         calculate D2E/DX2 analytically  !
 ! R2    R(2,15)                 0.9769         calculate D2E/DX2 analytically  !
 ! R3    R(3,8)                  1.3921         calculate D2E/DX2 analytically  !
 ! R4    R(3,9)                  1.3943         calculate D2E/DX2 analytically  !
 ! R5    R(4,8)                  1.0907         calculate D2E/DX2 analytically  !
 ! R6    R(5,9)                  1.0898         calculate D2E/DX2 analytically  !
 ! R7    R(6,7)                  1.3926         calculate D2E/DX2 analytically  !
 ! R8    R(6,10)                 1.3957         calculate D2E/DX2 analytically  !
 ! R9    R(6,13)                 1.0902         calculate D2E/DX2 analytically  !
 ! R10   R(7,8)                  1.3995         calculate D2E/DX2 analytically  !
 ! R11   R(7,11)                 1.4999         calculate D2E/DX2 analytically  !
 ! R12   R(9,10)                 1.3972         calculate D2E/DX2 analytically  !
 ! R13   R(10,12)                1.4958         calculate D2E/DX2 analytically  !
 ! R14   R(11,15)                1.4601         calculate D2E/DX2 analytically  !
 ! R15   R(11,16)                1.3299         calculate D2E/DX2 analytically  !
 ! R16   R(11,24)                1.4616         calculate D2E/DX2 analytically  !
 ! R17   R(12,17)                1.331          calculate D2E/DX2 analytically  !
 ! R18   R(12,18)                1.2037         calculate D2E/DX2 analytically  !
 ! R19   R(14,17)                0.9713         calculate D2E/DX2 analytically  !
 ! R20   R(15,23)                1.2356         calculate D2E/DX2 analytically  !
 ! R21   R(16,29)                0.9725         calculate D2E/DX2 analytically  !
 ! R22   R(19,20)                1.0975         calculate D2E/DX2 analytically  !
 ! R23   R(20,22)                1.0973         calculate D2E/DX2 analytically  !
 ! R24   R(20,24)                1.4447         calculate D2E/DX2 analytically  !
 ! R25   R(20,25)                1.5143         calculate D2E/DX2 analytically  !
 ! R26   R(21,25)                1.4008         calculate D2E/DX2 analytically  !
 ! R27   R(21,26)                0.9639         calculate D2E/DX2 analytically  !
 ! R28   R(23,24)                1.2384         calculate D2E/DX2 analytically  !
 ! R29   R(25,27)                1.1038         calculate D2E/DX2 analytically  !
 ! R30   R(25,28)                1.1031         calculate D2E/DX2 analytically  !
 ! A1    A(1,3,8)              119.7811         calculate D2E/DX2 analytically  !
 ! A2    A(1,3,9)              120.0898         calculate D2E/DX2 analytically  !
 ! A3    A(8,3,9)              120.1283         calculate D2E/DX2 analytically  !
 ! A4    A(7,6,10)             119.345          calculate D2E/DX2 analytically  !
 ! A5    A(7,6,13)             121.15           calculate D2E/DX2 analytically  !
 ! A6    A(10,6,13)            119.5046         calculate D2E/DX2 analytically  !
 ! A7    A(6,7,8)              120.615          calculate D2E/DX2 analytically  !
 ! A8    A(6,7,11)             119.011          calculate D2E/DX2 analytically  !
 ! A9    A(8,7,11)             120.3416         calculate D2E/DX2 analytically  !
 ! A10   A(3,8,4)              120.0664         calculate D2E/DX2 analytically  !
 ! A11   A(3,8,7)              119.6571         calculate D2E/DX2 analytically  !
 ! A12   A(4,8,7)              120.274          calculate D2E/DX2 analytically  !
 ! A13   A(3,9,5)              120.4977         calculate D2E/DX2 analytically  !
 ! A14   A(3,9,10)             119.8916         calculate D2E/DX2 analytically  !
 ! A15   A(5,9,10)             119.6104         calculate D2E/DX2 analytically  !
 ! A16   A(6,10,9)             120.3624         calculate D2E/DX2 analytically  !
 ! A17   A(6,10,12)            117.6397         calculate D2E/DX2 analytically  !
 ! A18   A(9,10,12)            121.9976         calculate D2E/DX2 analytically  !
 ! A19   A(7,11,15)            111.8817         calculate D2E/DX2 analytically  !
 ! A20   A(7,11,16)            112.8389         calculate D2E/DX2 analytically  !
 ! A21   A(7,11,24)            114.8804         calculate D2E/DX2 analytically  !
 ! A22   A(15,11,16)           114.351          calculate D2E/DX2 analytically  !
 ! A23   A(15,11,24)            89.5345         calculate D2E/DX2 analytically  !
 ! A24   A(16,11,24)           111.407          calculate D2E/DX2 analytically  !
 ! A25   A(10,12,17)           112.7865         calculate D2E/DX2 analytically  !
 ! A26   A(10,12,18)           123.734          calculate D2E/DX2 analytically  !
 ! A27   A(17,12,18)           123.4796         calculate D2E/DX2 analytically  !
 ! A28   A(2,15,11)            114.7183         calculate D2E/DX2 analytically  !
 ! A29   A(2,15,23)            124.7251         calculate D2E/DX2 analytically  !
 ! A30   A(11,15,23)            79.0212         calculate D2E/DX2 analytically  !
 ! A31   A(11,16,29)           111.5447         calculate D2E/DX2 analytically  !
 ! A32   A(12,17,14)           108.4793         calculate D2E/DX2 analytically  !
 ! A33   A(19,20,22)           109.8613         calculate D2E/DX2 analytically  !
 ! A34   A(19,20,24)           109.5737         calculate D2E/DX2 analytically  !
 ! A35   A(19,20,25)           111.4429         calculate D2E/DX2 analytically  !
 ! A36   A(22,20,24)           107.3989         calculate D2E/DX2 analytically  !
 ! A37   A(22,20,25)           110.9457         calculate D2E/DX2 analytically  !
 ! A38   A(24,20,25)           107.4991         calculate D2E/DX2 analytically  !
 ! A39   A(25,21,26)           108.7008         calculate D2E/DX2 analytically  !
 ! A40   A(15,23,24)           112.5465         calculate D2E/DX2 analytically  !
 ! A41   A(11,24,20)           123.092          calculate D2E/DX2 analytically  !
 ! A42   A(11,24,23)            78.8753         calculate D2E/DX2 analytically  !
 ! A43   A(20,24,23)           132.922          calculate D2E/DX2 analytically  !
 ! A44   A(20,25,21)           105.3646         calculate D2E/DX2 analytically  !
 ! A45   A(20,25,27)           109.147          calculate D2E/DX2 analytically  !
 ! A46   A(20,25,28)           108.9647         calculate D2E/DX2 analytically  !
 ! A47   A(21,25,27)           112.4742         calculate D2E/DX2 analytically  !
 ! A48   A(21,25,28)           112.7246         calculate D2E/DX2 analytically  !
 ! A49   A(27,25,28)           108.0623         calculate D2E/DX2 analytically  !
 ! D1    D(1,3,8,4)             -0.4122         calculate D2E/DX2 analytically  !
 ! D2    D(1,3,8,7)           -179.8365         calculate D2E/DX2 analytically  !
 ! D3    D(9,3,8,4)            179.2763         calculate D2E/DX2 analytically  !
 ! D4    D(9,3,8,7)             -0.1481         calculate D2E/DX2 analytically  !
 ! D5    D(1,3,9,5)             -0.1711         calculate D2E/DX2 analytically  !
 ! D6    D(1,3,9,10)           179.6185         calculate D2E/DX2 analytically  !
 ! D7    D(8,3,9,5)           -179.8586         calculate D2E/DX2 analytically  !
 ! D8    D(8,3,9,10)            -0.069          calculate D2E/DX2 analytically  !
 ! D9    D(10,6,7,8)            -0.1718         calculate D2E/DX2 analytically  !
 ! D10   D(10,6,7,11)          177.7663         calculate D2E/DX2 analytically  !
 ! D11   D(13,6,7,8)           179.5908         calculate D2E/DX2 analytically  !
 ! D12   D(13,6,7,11)           -2.471          calculate D2E/DX2 analytically  !
 ! D13   D(7,6,10,9)            -0.0479         calculate D2E/DX2 analytically  !
 ! D14   D(7,6,10,12)          179.7939         calculate D2E/DX2 analytically  !
 ! D15   D(13,6,10,9)         -179.8144         calculate D2E/DX2 analytically  !
 ! D16   D(13,6,10,12)           0.0273         calculate D2E/DX2 analytically  !
 ! D17   D(6,7,8,3)              0.2703         calculate D2E/DX2 analytically  !
 ! D18   D(6,7,8,4)           -179.1529         calculate D2E/DX2 analytically  !
 ! D19   D(11,7,8,3)          -177.6404         calculate D2E/DX2 analytically  !
 ! D20   D(11,7,8,4)             2.9364         calculate D2E/DX2 analytically  !
 ! D21   D(6,7,11,15)          156.1122         calculate D2E/DX2 analytically  !
 ! D22   D(6,7,11,16)           25.4736         calculate D2E/DX2 analytically  !
 ! D23   D(6,7,11,24)         -103.7153         calculate D2E/DX2 analytically  !
 ! D24   D(8,7,11,15)          -25.9439         calculate D2E/DX2 analytically  !
 ! D25   D(8,7,11,16)         -156.5825         calculate D2E/DX2 analytically  !
 ! D26   D(8,7,11,24)           74.2286         calculate D2E/DX2 analytically  !
 ! D27   D(3,9,10,6)             0.1682         calculate D2E/DX2 analytically  !
 ! D28   D(3,9,10,12)         -179.6665         calculate D2E/DX2 analytically  !
 ! D29   D(5,9,10,6)           179.9597         calculate D2E/DX2 analytically  !
 ! D30   D(5,9,10,12)            0.125          calculate D2E/DX2 analytically  !
 ! D31   D(6,10,12,17)         179.9564         calculate D2E/DX2 analytically  !
 ! D32   D(6,10,12,18)          -0.0236         calculate D2E/DX2 analytically  !
 ! D33   D(9,10,12,17)          -0.2046         calculate D2E/DX2 analytically  !
 ! D34   D(9,10,12,18)         179.8154         calculate D2E/DX2 analytically  !
 ! D35   D(7,11,15,2)         -118.903          calculate D2E/DX2 analytically  !
 ! D36   D(7,11,15,23)         117.7652         calculate D2E/DX2 analytically  !
 ! D37   D(16,11,15,2)          10.9554         calculate D2E/DX2 analytically  !
 ! D38   D(16,11,15,23)       -112.3763         calculate D2E/DX2 analytically  !
 ! D39   D(24,11,15,2)         124.3442         calculate D2E/DX2 analytically  !
 ! D40   D(24,11,15,23)          1.0124         calculate D2E/DX2 analytically  !
 ! D41   D(7,11,16,29)        -161.457          calculate D2E/DX2 analytically  !
 ! D42   D(15,11,16,29)         69.1602         calculate D2E/DX2 analytically  !
 ! D43   D(24,11,16,29)        -30.5029         calculate D2E/DX2 analytically  !
 ! D44   D(7,11,24,20)          19.4171         calculate D2E/DX2 analytically  !
 ! D45   D(7,11,24,23)        -115.0314         calculate D2E/DX2 analytically  !
 ! D46   D(15,11,24,20)        133.4378         calculate D2E/DX2 analytically  !
 ! D47   D(15,11,24,23)         -1.0107         calculate D2E/DX2 analytically  !
 ! D48   D(16,11,24,20)       -110.4769         calculate D2E/DX2 analytically  !
 ! D49   D(16,11,24,23)        115.0746         calculate D2E/DX2 analytically  !
 ! D50   D(10,12,17,14)       -179.9819         calculate D2E/DX2 analytically  !
 ! D51   D(18,12,17,14)         -0.0018         calculate D2E/DX2 analytically  !
 ! D52   D(2,15,23,24)        -113.8633         calculate D2E/DX2 analytically  !
 ! D53   D(11,15,23,24)         -1.2939         calculate D2E/DX2 analytically  !
 ! D54   D(19,20,24,11)        -71.1359         calculate D2E/DX2 analytically  !
 ! D55   D(19,20,24,23)         35.8155         calculate D2E/DX2 analytically  !
 ! D56   D(22,20,24,11)         48.1582         calculate D2E/DX2 analytically  !
 ! D57   D(22,20,24,23)        155.1095         calculate D2E/DX2 analytically  !
 ! D58   D(25,20,24,11)        167.6039         calculate D2E/DX2 analytically  !
 ! D59   D(25,20,24,23)        -85.4448         calculate D2E/DX2 analytically  !
 ! D60   D(19,20,25,21)         59.3536         calculate D2E/DX2 analytically  !
 ! D61   D(19,20,25,27)        -61.6476         calculate D2E/DX2 analytically  !
 ! D62   D(19,20,25,28)       -179.4456         calculate D2E/DX2 analytically  !
 ! D63   D(22,20,25,21)        -63.4102         calculate D2E/DX2 analytically  !
 ! D64   D(22,20,25,27)        175.5886         calculate D2E/DX2 analytically  !
 ! D65   D(22,20,25,28)         57.7906         calculate D2E/DX2 analytically  !
 ! D66   D(24,20,25,21)        179.4348         calculate D2E/DX2 analytically  !
 ! D67   D(24,20,25,27)         58.4336         calculate D2E/DX2 analytically  !
 ! D68   D(24,20,25,28)        -59.3644         calculate D2E/DX2 analytically  !
 ! D69   D(26,21,25,20)       -179.5754         calculate D2E/DX2 analytically  !
 ! D70   D(26,21,25,27)        -60.7737         calculate D2E/DX2 analytically  !
 ! D71   D(26,21,25,28)         61.708          calculate D2E/DX2 analytically  !
 ! D72   D(15,23,24,11)          1.2932         calculate D2E/DX2 analytically  !
 ! D73   D(15,23,24,20)       -123.9469         calculate D2E/DX2 analytically  !
 --------------------------------------------------------------------------------
 Trust Radius=3.00D-01 FncErr=1.00D-07 GrdErr=1.00D-06 EigMax=2.50D+02 EigMin=1.00D-04
 Number of steps in this run=    162 maximum allowed number of steps=    174.
 Search for a saddle point of order  1.
 GradGradGradGradGradGradGradGradGradGradGradGradGradGradGradGradGradGrad

                          Input orientation:                          
 ---------------------------------------------------------------------
 Center     Atomic      Atomic             Coordinates (Angstroms)
 Number     Number       Type             X           Y           Z
 ---------------------------------------------------------------------
      1          1           0        3.705294   20.093007   10.112359
      2          1           0        4.242773   16.264377   14.079027
      3          6           0        4.099528   20.181904   11.124378
      4          1           0        4.371641   18.055999   11.359720
      5          1           0        3.923640   22.335983   11.180153
      6          6           0        5.100504   20.403968   13.727300
      7          6           0        4.979625   19.154999   13.123234
      8          6           0        4.476850   19.038104   11.822380
      9          6           0        4.219362   21.436825   11.720205
     10          6           0        4.717883   21.545318   13.020921
     11          6           0        5.440089   17.938254   13.869778
     12          6           0        4.859405   22.866480   13.707869
     13          1           0        5.484812   20.504555   14.742527
     14          1           0        4.586565   24.708919   13.452070
     15          8           0        4.772474   16.727230   13.401126
     16          8           0        5.415594   18.102254   15.189286
     17          8           0        4.468518   23.887009   12.948119
     18          8           0        5.281647   22.995839   14.827672
     19          1           0        7.300808   18.306940   11.641348
     20          6           0        7.680301   18.152891   12.659546
     21          8           0        9.869653   18.142914   11.894219
     22          1           0        7.805263   19.120729   13.161223
     23          1           0        5.949415   16.467407   13.129057
     24          8           0        6.719943   17.390935   13.423880
     25          6           0        8.978969   17.374179   12.654380
     26          1           0       10.716672   17.684699   11.853821
     27          1           0        8.801448   16.377001   12.215513
     28          1           0        9.317405   17.234562   13.694990
     29          1           0        5.971696   17.444860   15.641239
 ---------------------------------------------------------------------
                    Distance matrix (angstroms):
                    1          2          3          4          5
     1  H    0.000000
     2  H    5.539111   0.000000
     3  C    1.089727   4.908919   0.000000
     4  H    2.479784   3.259010   2.156132   0.000000
     5  H    2.493752   6.735705   2.161968   4.307112   0.000000
     6  C    3.887301   4.242125   2.797583   3.413156   3.406706
     7  C    3.401345   3.132441   2.413406   2.165047   3.874187
     8  C    2.152276   3.583407   1.392069   1.090712   3.405070
     9  C    2.157610   5.684963   1.394345   3.403399   1.089767
    10  C    3.405037   5.406816   2.416223   3.880054   2.155087
    11  C    4.665905   2.068626   3.790553   2.730538   5.373427
    12  C    4.685277   6.641217   3.802471   5.375169   2.747077
    13  H    4.977400   4.467886   3.887688   4.321800   4.299057
    14  H    5.765150   8.474760   5.113631   6.977497   3.351403
    15  O    4.825279   0.976916   4.191803   2.468528   6.091909
    16  O    5.715191   2.446625   4.751889   3.969578   6.018599
    17  O    4.797760   7.709373   4.146081   6.044260   2.414183
    18  O    5.757213   6.852176   4.798961   6.103837   3.947656
    19  H    4.295994   4.412020   3.745790   2.953355   5.277419
    20  C    5.104203   4.171092   4.392672   3.556145   5.813722
    21  O    6.706505   6.321714   6.168021   5.524616   7.310731
    22  H    5.201023   4.657515   4.359736   4.021048   5.415671
    23  H    5.223172   1.963744   4.608504   2.853690   6.507087
    24  O    5.230246   2.799057   4.465847   3.196496   6.107956
    25  C    6.454885   5.068810   5.833796   4.834097   7.235274
    26  H    7.615252   6.991439   7.110184   6.375062   8.260360
    27  H    6.648514   4.926143   6.146211   4.814001   7.770100
    28  H    7.245809   5.180795   6.520821   5.530717   7.838469
    29  H    6.535884   2.612130   5.603433   4.611407   6.929568
                    6          7          8          9         10
     6  C    0.000000
     7  C    1.392635   0.000000
     8  C    2.425541   1.399524   0.000000
     9  C    2.423146   2.784460   2.414664   0.000000
    10  C    1.395726   2.406782   2.789394   1.397196   0.000000
    11  C    2.493063   1.499941   2.515818   4.283788   3.775321
    12  C    2.474363   3.759168   4.284610   2.530687   1.495792
    13  H    1.090182   2.167631   3.419609   3.406600   2.152974
    14  H    4.344248   5.577513   5.901362   3.720322   3.195545
    15  O    3.705725   2.452386   2.814244   5.031075   4.833374
    16  O    2.744918   2.359430   3.618440   4.958312   4.128353
    17  O    3.624652   4.762753   4.977875   2.751954   2.356056
    18  O    2.821600   4.212882   5.034198   3.635289   2.384573
    19  H    3.686470   2.881507   2.922689   4.392916   4.365984
    20  C    3.586474   2.917684   3.427324   4.862580   4.518304
    21  O    5.587247   5.142681   5.467070   6.542623   6.275870
    22  H    3.046780   2.826101   3.588546   4.505499   3.928133
    23  H    4.071248   2.857215   3.237952   5.447299   5.226236
    24  O    3.434096   2.496200   3.210831   5.052192   4.629203
    25  C    5.037189   4.402942   4.871339   6.327056   5.974078
    26  H    6.515036   6.056971   6.384988   7.504088   7.228552
    27  H    5.674412   4.811191   5.092953   6.844170   6.635939
    28  H    5.275266   4.778213   5.494580   6.895566   6.339763
    29  H    3.630215   3.201426   4.399622   5.863529   5.025124
                   11         12         13         14         15
    11  C    0.000000
    12  C    4.964959   0.000000
    13  H    2.711013   2.653364   0.000000
    14  H    6.837023   1.880015   4.488742   0.000000
    15  O    1.460111   6.147523   4.071236   7.984016   0.000000
    16  O    1.329886   5.020139   2.444470   6.881368   2.345594
    17  O    6.097630   1.330974   3.961534   0.971307   7.180532
    18  O    5.149935   1.203736   2.501004   2.304357   6.449012
    19  H    2.926449   5.569593   4.212442   7.185483   3.461903
    20  C    2.555246   5.592348   3.832663   7.292517   3.322335
    21  O    4.854457   7.120673   5.737337   8.570317   5.500560
    22  H    2.737580   4.796619   3.130494   6.455422   3.870943
    23  H    1.723796   6.516999   4.372380   8.359678   1.235605
    24  O    1.461646   5.789978   3.599862   7.622663   2.057585
    25  C    3.784051   6.945935   5.135051   8.586497   4.320969
    26  H    5.654264   8.037159   6.608220   9.458979   6.216461
    27  H    4.058674   7.738228   5.867076   9.418873   4.214377
    28  H    3.944529   7.182787   5.145771   8.849060   4.582591
    29  H    1.914189   5.862514   3.225907   7.712172   2.640309
                   16         17         18         19         20
    16  O    0.000000
    17  O    6.275601   0.000000
    18  O    4.908756   2.233401   0.000000
    19  H    4.022908   6.392706   6.017927   0.000000
    20  C    3.395739   6.578673   5.823097   1.097485   0.000000
    21  O    5.540556   7.954721   7.294232   2.586467   2.319286
    22  H    3.295580   5.822088   4.915503   1.796315   1.097272
    23  H    2.683698   7.568110   6.778763   2.724596   2.461151
    24  O    2.307371   6.891607   5.954349   2.086598   1.444670
    25  C    4.433225   7.927636   7.070817   2.170830   1.514252
    26  H    6.277030   8.871616   8.160361   3.478571   3.176153
    27  H    4.825332   8.701219   7.938601   2.511225   2.146607
    28  H    4.267311   8.265868   7.124789   3.071499   2.143731
    29  H    0.972460   7.142389   5.652559   4.302191   3.508722
                   21         22         23         24         25
    21  O    0.000000
    22  H    2.612112   0.000000
    23  H    4.438515   3.238105   0.000000
    24  O    3.581342   2.058906   1.238361   0.000000
    25  C    1.400756   2.164466   3.197773   2.386548   0.000000
    26  H    0.963864   3.499683   5.082791   4.304094   1.938280
    27  H    2.088717   3.068354   2.996136   2.611681   1.103849
    28  H    2.091138   2.475703   3.500309   2.616250   1.103132
    29  H    5.451743   3.510126   2.695732   2.340825   4.239105
                   26         27         28         29
    26  H    0.000000
    27  H    2.347121   0.000000
    28  H    2.355945   1.786190   0.000000
    29  H    6.075924   4.569838   3.876323   0.000000
 Symmetry turned off by external request.
 Stoichiometry    C10H13O6(1+)
 Framework group  C1[X(C10H13O6)]
 Deg. of freedom    81
 Full point group                 C1      NOp   1
 Rotational constants (GHZ):           0.7066217           0.2930396           0.2676517
 Standard basis: def2SVP (5D, 7F)
   289 basis functions,   491 primitive gaussians,   305 cartesian basis functions
    60 alpha electrons       60 beta electrons
       nuclear repulsion energy      1144.6742526648 Hartrees.
 NAtoms=   29 NActive=   29 NUniq=   29 SFac= 1.00D+00 NAtFMM=   60 NAOKFM=F Big=F
 Integral buffers will be    131072 words long.
 Raffenetti 2 integral format.
 Two-electron integral symmetry is turned off.
 Force inversion solution in PCM.
 Using the following non-standard input for PCM:
 PDENS=7.0
 --- end of non-standard input.
 Force inversion solution in PCM.
 ------------------------------------------------------------------------------
 Polarizable Continuum Model (PCM)
 =================================
 Model                : PCM.
 Atomic radii         : UFF (Universal Force Field).
 Polarization charges : Total charges.
 Charge compensation  : None.
 Solution method      : Matrix inversion.
 Cavity type          : Scaled VdW (van der Waals Surface) (Alpha=1.100).
 Cavity algorithm     : GePol (No added spheres)
                        Default sphere list used, NSphG=   29.
                        Lebedev-Laikov grids with approx.  7.0 points / Ang**2.
                        Smoothing algorithm: York/Karplus (Gamma=1.0000).
                        Polarization charges: spherical gaussians, with
                                              point-specific exponents (IZeta= 3).
                        Self-potential: point-specific (ISelfS= 7).
                        Self-field    : sphere-specific E.n sum rule (ISelfD= 2).
 1st derivatives      : Analytical E(r).r(x)/FMM algorithm (CHGder, D1EAlg=3).
                        Cavity 1st derivative terms included.
 2nd derivatives      : Analytical E(r).r(xy)/FMM algorithm (CHGder, D2EAlg=3).
                        Cavity 2nd derivative terms included.
 Solvent              : 1,2-EthaneDiol, Eps=  40.245000 Eps(inf)=   2.050051
 ------------------------------------------------------------------------------
 One-electron integrals computed using PRISM.
   1 Symmetry operations used in ECPInt.
 ECPInt:  NShTT=    9180 NPrTT=   33400 LenC2=    8472 LenP2D=   22125.
 LDataN:  DoStor=T MaxTD1= 4 Len=   56
 NBasis=   289 RedAO= T EigKep=  2.62D-04  NBF=   289
 NBsUse=   289 1.00D-06 EigRej= -1.00D+00 NBFU=   289
 ExpMin= 1.22D-01 ExpMax= 2.27D+03 ExpMxC= 3.41D+02 IAcc=3 IRadAn=         5 AccDes= 0.00D+00
 Harris functional with IExCor= 1009 and IRadAn=       5 diagonalized for initial guess.
 HarFok:  IExCor= 1009 AccDes= 0.00D+00 IRadAn=         5 IDoV= 1 UseB2=F ITyADJ=14
 ICtDFT=  3500011 ScaDFX=  1.000000  1.000000  1.000000  1.000000
 FoFCou: FMM=F IPFlag=           0 FMFlag=      100000 FMFlg1=           0
         NFxFlg=           0 DoJE=T BraDBF=F KetDBF=T FulRan=T
         wScrn=  0.000000 ICntrl=       500 IOpCl=  0 I1Cent=   200000004 NGrid=           0
         NMat0=    1 NMatS0=      1 NMatT0=    0 NMatD0=    1 NMtDS0=    0 NMtDT0=    0
 Symmetry not used in FoFCou.
 Mixing orbitals, IMix= 1 IMixAn=  0 NRI=1 NE=   60 Coef=  7.07106781D-01  7.07106781D-01
 Requested convergence on RMS density matrix=1.00D-08 within  32 cycles.
 Requested convergence on MAX density matrix=1.00D-06.
 Requested convergence on             energy=1.00D-06.
 No special actions if energy rises.
 Inv3:  Mode=1 IEnd=    33687603.
 Iteration    1 A*A^-1 deviation from unit magnitude is 3.11D-15 for   2311.
 Iteration    1 A*A^-1 deviation from orthogonality  is 1.78D-15 for   2969   1119.
 Iteration    1 A^-1*A deviation from unit magnitude is 2.89D-15 for    444.
 Iteration    1 A^-1*A deviation from orthogonality  is 4.86D-15 for   2759   2676.
 Error on total polarization charges =  0.00653
 SCF Done:  E(RM062X) =  -839.066777948     A.U. after   15 cycles
            NFock= 15  Conv=0.46D-08     -V/T= 2.0086
 QCSCF skips out because SCF is already converged.
 DoSCS=F DFT=T ScalE2(SS,OS)=  1.000000  1.000000
 Range of M.O.s used for correlation:     1   289
 NBasis=   289 NAE=    60 NBE=    60 NFC=     0 NFV=     0
 NROrb=    289 NOA=    60 NOB=    60 NVA=   229 NVB=   229

 **** Warning!!: The largest alpha MO coefficient is  0.10696703D+02

   1 Symmetry operations used in ECPInt.
 ECPInt:  NShTT=    9180 NPrTT=   33400 LenC2=    8472 LenP2D=   22125.
 LDataN:  DoStor=T MaxTD1= 5 Len=  102
 Symmetrizing basis deriv contribution to polar:
 IMax=3 JMax=2 DiffMx= 0.00D+00
 G2DrvN: will do    30 centers at a time, making    1 passes.
 Calling FoFCou, ICntrl=  3107 FMM=F I1Cent=   0 AccDes= 0.00D+00.
 NEqPCM:  Using equilibrium solvation (IEInf=0, Eps=  40.2450, EpsInf=   2.0501)
 G2PCM: DoFxE=T DoFxN=T DoGrad=T DoDP/DQ/DG/TGxP=FFFF NFrqRd=   0 IEInf=0 SqF1=F DoCFld=F IF1Alg=4.
 End of G2Drv F.D. properties file   721 does not exist.
 End of G2Drv F.D. properties file   722 does not exist.
 End of G2Drv F.D. properties file   788 does not exist.
          IDoAtm=11111111111111111111111111111
 NEqPCM:  Using equilibrium solvation (IEInf=0, Eps=  40.2450, EpsInf=   2.0501)
          Differentiating once with respect to nuclear coordinates.
 Keep R1 ints in memory in canonical form, NReq=919009297.
          There are    90 degrees of freedom in the 1st order CPHF.  IDoFFX=6 NUNeed=     0.
     84 vectors produced by pass  0 Test12= 1.53D-14 1.11D-09 XBig12= 1.27D-01 1.43D-01.
 AX will form    84 AO Fock derivatives at one time.
     84 vectors produced by pass  1 Test12= 1.53D-14 1.11D-09 XBig12= 8.93D-03 2.62D-02.
     84 vectors produced by pass  2 Test12= 1.53D-14 1.11D-09 XBig12= 1.61D-04 3.16D-03.
     84 vectors produced by pass  3 Test12= 1.53D-14 1.11D-09 XBig12= 9.56D-07 1.45D-04.
     84 vectors produced by pass  4 Test12= 1.53D-14 1.11D-09 XBig12= 4.04D-09 1.13D-05.
     84 vectors produced by pass  5 Test12= 1.53D-14 1.11D-09 XBig12= 2.12D-11 9.59D-07.
     61 vectors produced by pass  6 Test12= 1.53D-14 1.11D-09 XBig12= 8.36D-14 4.84D-08.
      1 vectors produced by pass  7 Test12= 1.53D-14 1.11D-09 XBig12= 2.19D-16 2.14D-09.
 InvSVY:  IOpt=1 It=  1 EMax= 3.33D-16
 Solved reduced A of dimension   566 with    90 vectors.
 End of Minotr F.D. properties file   721 does not exist.
 End of Minotr F.D. properties file   722 does not exist.
 End of Minotr F.D. properties file   788 does not exist.

 **********************************************************************

            Population analysis using the SCF Density.

 **********************************************************************

 Alpha  occ. eigenvalues --  -19.75221 -19.75116 -19.71452 -19.69061 -19.64259
 Alpha  occ. eigenvalues --  -19.63873 -10.79474 -10.70749 -10.64555 -10.61878
 Alpha  occ. eigenvalues --  -10.60804 -10.59836 -10.59829 -10.59502 -10.59291
 Alpha  occ. eigenvalues --  -10.58648  -1.33009  -1.23865  -1.21657  -1.19889
 Alpha  occ. eigenvalues --   -1.14576  -1.13988  -0.99687  -0.91554  -0.89492
 Alpha  occ. eigenvalues --   -0.87851  -0.80822  -0.77874  -0.76957  -0.72701
 Alpha  occ. eigenvalues --   -0.70515  -0.69076  -0.68297  -0.65956  -0.64806
 Alpha  occ. eigenvalues --   -0.60681  -0.60122  -0.59253  -0.58740  -0.57488
 Alpha  occ. eigenvalues --   -0.55615  -0.55183  -0.54703  -0.53883  -0.52927
 Alpha  occ. eigenvalues --   -0.50893  -0.50300  -0.49125  -0.48519  -0.47060
 Alpha  occ. eigenvalues --   -0.46281  -0.45283  -0.43985  -0.43309  -0.42177
 Alpha  occ. eigenvalues --   -0.41089  -0.37464  -0.36360  -0.34787  -0.34133
 Alpha virt. eigenvalues --   -0.04103  -0.01911   0.04688   0.06935   0.08327
 Alpha virt. eigenvalues --    0.09360   0.09739   0.09888   0.11246   0.11783
 Alpha virt. eigenvalues --    0.14368   0.15278   0.15488   0.16078   0.16334
 Alpha virt. eigenvalues --    0.16530   0.18963   0.19761   0.20891   0.21857
 Alpha virt. eigenvalues --    0.23235   0.25372   0.26390   0.27211   0.29589
 Alpha virt. eigenvalues --    0.29869   0.30269   0.31843   0.33163   0.35329
 Alpha virt. eigenvalues --    0.36269   0.39137   0.42254   0.43468   0.44215
 Alpha virt. eigenvalues --    0.44587   0.46200   0.46842   0.47809   0.48833
 Alpha virt. eigenvalues --    0.49449   0.49680   0.51124   0.52443   0.53955
 Alpha virt. eigenvalues --    0.55427   0.56418   0.57131   0.58961   0.59447
 Alpha virt. eigenvalues --    0.61124   0.61506   0.62471   0.62885   0.64217
 Alpha virt. eigenvalues --    0.64956   0.67011   0.67473   0.68367   0.68950
 Alpha virt. eigenvalues --    0.70287   0.70447   0.70892   0.71393   0.72077
 Alpha virt. eigenvalues --    0.73326   0.73784   0.74152   0.74724   0.76727
 Alpha virt. eigenvalues --    0.77450   0.77587   0.78427   0.80117   0.82903
 Alpha virt. eigenvalues --    0.85080   0.87258   0.89810   0.90933   0.95203
 Alpha virt. eigenvalues --    0.96939   0.99403   1.00808   1.01599   1.02263
 Alpha virt. eigenvalues --    1.03639   1.04959   1.07127   1.07631   1.08007
 Alpha virt. eigenvalues --    1.11324   1.12613   1.14331   1.15084   1.17181
 Alpha virt. eigenvalues --    1.19009   1.20363   1.24567   1.25935   1.26401
 Alpha virt. eigenvalues --    1.27202   1.28758   1.30425   1.31052   1.31590
 Alpha virt. eigenvalues --    1.32258   1.35025   1.36824   1.38085   1.39371
 Alpha virt. eigenvalues --    1.41064   1.42402   1.43715   1.44387   1.46313
 Alpha virt. eigenvalues --    1.50182   1.50407   1.52123   1.53271   1.55387
 Alpha virt. eigenvalues --    1.59159   1.60925   1.61881   1.64872   1.66684
 Alpha virt. eigenvalues --    1.69359   1.69958   1.70747   1.71463   1.72718
 Alpha virt. eigenvalues --    1.74471   1.74917   1.76108   1.76621   1.77045
 Alpha virt. eigenvalues --    1.77899   1.78521   1.80003   1.80850   1.82739
 Alpha virt. eigenvalues --    1.83636   1.84568   1.85967   1.86728   1.88703
 Alpha virt. eigenvalues --    1.90095   1.91272   1.92707   1.94328   1.96433
 Alpha virt. eigenvalues --    1.96728   1.98146   1.99061   1.99292   1.99993
 Alpha virt. eigenvalues --    2.02122   2.05469   2.09935   2.10126   2.11609
 Alpha virt. eigenvalues --    2.13618   2.13785   2.14214   2.16667   2.17830
 Alpha virt. eigenvalues --    2.20559   2.24181   2.26039   2.26965   2.28612
 Alpha virt. eigenvalues --    2.29004   2.29902   2.32572   2.32757   2.33841
 Alpha virt. eigenvalues --    2.36210   2.39297   2.39478   2.42035   2.46564
 Alpha virt. eigenvalues --    2.50053   2.50986   2.52800   2.54139   2.62808
 Alpha virt. eigenvalues --    2.63071   2.63403   2.67826   2.69325   2.72486
 Alpha virt. eigenvalues --    2.73062   2.75138   2.77758   2.79878   2.80817
 Alpha virt. eigenvalues --    2.85462   2.85956   2.86788   2.89814   2.90598
 Alpha virt. eigenvalues --    2.93914   2.94722   2.96348   2.97937   3.00485
 Alpha virt. eigenvalues --    3.02168   3.04436   3.04920   3.08388   3.12665
 Alpha virt. eigenvalues --    3.13854   3.18861   3.23316   3.24670   3.25156
 Alpha virt. eigenvalues --    3.28230   3.32133   3.34338   3.37692   3.42497
 Alpha virt. eigenvalues --    3.46780   3.51618   3.58050   3.61750   3.67936
 Alpha virt. eigenvalues --    3.71640   3.74912   3.79889   3.82134
          Condensed to atoms (all electrons):
               1          2          3          4          5          6
     1  H    0.612331  -0.000000   0.465231  -0.010561  -0.010226  -0.001583
     2  H   -0.000000   0.383581  -0.000022   0.000026  -0.000000  -0.000140
     3  C    0.465231  -0.000022   5.016375  -0.050614  -0.058995  -0.122413
     4  H   -0.010561   0.000026  -0.050614   0.595943  -0.000165   0.010819
     5  H   -0.010226  -0.000000  -0.058995  -0.000165   0.601577   0.012316
     6  C   -0.001583  -0.000140  -0.122413   0.010819   0.012316   5.141870
     7  C    0.015679   0.005151   0.100965  -0.081444  -0.001582   0.210200
     8  C   -0.072613   0.000298   0.282371   0.462481   0.013044   0.071338
     9  C   -0.071721   0.000004   0.259117   0.012620   0.456735   0.054347
    10  C    0.014384  -0.000006   0.092133  -0.001498  -0.065793   0.262971
    11  C   -0.000339  -0.004707   0.007331  -0.010012   0.000037  -0.069248
    12  C   -0.000193  -0.000000   0.012635   0.000030  -0.015594  -0.071475
    13  H    0.000022  -0.000001  -0.001741  -0.000125  -0.000164   0.461158
    14  H   -0.000001  -0.000000   0.000003   0.000000  -0.000474  -0.000488
    15  O   -0.000012   0.318817   0.000406   0.006392   0.000000   0.004181
    16  O    0.000001   0.003422  -0.000052   0.000212  -0.000000   0.010835
    17  O   -0.000014   0.000000   0.000812   0.000000   0.011053   0.005145
    18  O    0.000001   0.000000  -0.000048  -0.000000   0.000231   0.013613
    19  H    0.000044  -0.000070   0.000503   0.000230  -0.000002   0.000068
    20  C   -0.000010  -0.000249  -0.000209   0.000149   0.000001  -0.001515
    21  O    0.000000  -0.000000   0.000000  -0.000001  -0.000000  -0.000002
    22  H   -0.000000   0.000004   0.000109  -0.000044  -0.000001   0.000183
    23  H   -0.000001  -0.002068   0.000105  -0.000220   0.000000  -0.000480
    24  O   -0.000001   0.005456   0.000034   0.000226  -0.000000  -0.001632
    25  C   -0.000000   0.000041   0.000001  -0.000016  -0.000000  -0.000172
    26  H   -0.000000   0.000000  -0.000000   0.000000   0.000000  -0.000000
    27  H   -0.000000   0.000000   0.000001  -0.000003  -0.000000  -0.000014
    28  H    0.000000  -0.000009   0.000000  -0.000001   0.000000   0.000027
    29  H   -0.000000   0.000367   0.000006  -0.000027   0.000000  -0.000299
               7          8          9         10         11         12
     1  H    0.015679  -0.072613  -0.071721   0.014384  -0.000339  -0.000193
     2  H    0.005151   0.000298   0.000004  -0.000006  -0.004707  -0.000000
     3  C    0.100965   0.282371   0.259117   0.092133   0.007331   0.012635
     4  H   -0.081444   0.462481   0.012620  -0.001498  -0.010012   0.000030
     5  H   -0.001582   0.013044   0.456735  -0.065793   0.000037  -0.015594
     6  C    0.210200   0.071338   0.054347   0.262971  -0.069248  -0.071475
     7  C    5.923771   0.159601  -0.164682   0.100759   0.136055   0.020384
     8  C    0.159601   5.161425   0.113256  -0.158461  -0.039700  -0.001687
     9  C   -0.164682   0.113256   5.135077   0.216417   0.000133  -0.061193
    10  C    0.100759  -0.158461   0.216417   5.858568   0.014415   0.139264
    11  C    0.136055  -0.039700   0.000133   0.014415   4.646286  -0.000611
    12  C    0.020384  -0.001687  -0.061193   0.139264  -0.000611   4.504603
    13  H   -0.067318   0.011407   0.011593  -0.066395  -0.013482  -0.010544
    14  H   -0.000001   0.000003  -0.001132   0.019181  -0.000000  -0.010276
    15  O   -0.089297  -0.003072  -0.000000  -0.000073   0.276847  -0.000000
    16  O   -0.144056   0.003571   0.000020   0.000987   0.503801  -0.000050
    17  O   -0.000051   0.000006   0.014089  -0.168926  -0.000000   0.462595
    18  O    0.001939  -0.000005   0.003436  -0.152346  -0.000039   0.752776
    19  H    0.010569  -0.000897  -0.000106   0.000074  -0.009918   0.000001
    20  C   -0.000928  -0.003525  -0.000036  -0.000248  -0.029612  -0.000011
    21  O    0.000001  -0.000006  -0.000000   0.000000  -0.000000   0.000000
    22  H    0.002055  -0.001298  -0.000094   0.000218  -0.001670  -0.000011
    23  H    0.011142  -0.000655  -0.000005   0.000008  -0.026927   0.000000
    24  O   -0.096369   0.004196   0.000013   0.000029   0.267210  -0.000000
    25  C    0.000375  -0.000009  -0.000002   0.000010   0.005074  -0.000000
    26  H    0.000000   0.000000   0.000000   0.000000   0.000003   0.000000
    27  H   -0.000034   0.000015  -0.000000  -0.000000  -0.000260   0.000000
    28  H    0.000104  -0.000025   0.000000   0.000001  -0.000251  -0.000000
    29  H    0.012014  -0.000435   0.000002  -0.000002  -0.003814   0.000001
              13         14         15         16         17         18
     1  H    0.000022  -0.000001  -0.000012   0.000001  -0.000014   0.000001
     2  H   -0.000001  -0.000000   0.318817   0.003422   0.000000   0.000000
     3  C   -0.001741   0.000003   0.000406  -0.000052   0.000812  -0.000048
     4  H   -0.000125   0.000000   0.006392   0.000212   0.000000  -0.000000
     5  H   -0.000164  -0.000474   0.000000  -0.000000   0.011053   0.000231
     6  C    0.461158  -0.000488   0.004181   0.010835   0.005145   0.013613
     7  C   -0.067318  -0.000001  -0.089297  -0.144056  -0.000051   0.001939
     8  C    0.011407   0.000003  -0.003072   0.003571   0.000006  -0.000005
     9  C    0.011593  -0.001132  -0.000000   0.000020   0.014089   0.003436
    10  C   -0.066395   0.019181  -0.000073   0.000987  -0.168926  -0.152346
    11  C   -0.013482  -0.000000   0.276847   0.503801  -0.000000  -0.000039
    12  C   -0.010544  -0.010276  -0.000000  -0.000050   0.462595   0.752776
    13  H    0.594543  -0.000071   0.000255   0.010233   0.000611   0.015580
    14  H   -0.000071   0.440149   0.000000  -0.000000   0.315582   0.004765
    15  O    0.000255   0.000000   7.795995  -0.065498  -0.000000   0.000000
    16  O    0.010233  -0.000000  -0.065498   7.593319   0.000000   0.000000
    17  O    0.000611   0.315582  -0.000000   0.000000   7.658724  -0.082360
    18  O    0.015580   0.004765   0.000000   0.000000  -0.082360   7.712678
    19  H   -0.000014  -0.000000   0.000605  -0.000188   0.000000   0.000000
    20  C    0.000041  -0.000000   0.004269   0.001777  -0.000000  -0.000000
    21  O   -0.000000  -0.000000   0.000000   0.000000   0.000000   0.000000
    22  H    0.000048  -0.000000  -0.000144   0.001101   0.000000  -0.000005
    23  H   -0.000070  -0.000000   0.171871   0.002033   0.000000   0.000000
    24  O    0.000308   0.000000  -0.179741  -0.058723  -0.000000   0.000000
    25  C   -0.000010   0.000000  -0.000164  -0.000275  -0.000000  -0.000000
    26  H    0.000000   0.000000  -0.000000  -0.000000  -0.000000  -0.000000
    27  H   -0.000000  -0.000000  -0.000110   0.000009   0.000000   0.000000
    28  H    0.000001  -0.000000   0.000019   0.000008   0.000000   0.000000
    29  H   -0.000449  -0.000000  -0.000579   0.320260   0.000000   0.000000
              19         20         21         22         23         24
     1  H    0.000044  -0.000010   0.000000  -0.000000  -0.000001  -0.000001
     2  H   -0.000070  -0.000249  -0.000000   0.000004  -0.002068   0.005456
     3  C    0.000503  -0.000209   0.000000   0.000109   0.000105   0.000034
     4  H    0.000230   0.000149  -0.000001  -0.000044  -0.000220   0.000226
     5  H   -0.000002   0.000001  -0.000000  -0.000001   0.000000  -0.000000
     6  C    0.000068  -0.001515  -0.000002   0.000183  -0.000480  -0.001632
     7  C    0.010569  -0.000928   0.000001   0.002055   0.011142  -0.096369
     8  C   -0.000897  -0.003525  -0.000006  -0.001298  -0.000655   0.004196
     9  C   -0.000106  -0.000036  -0.000000  -0.000094  -0.000005   0.000013
    10  C    0.000074  -0.000248   0.000000   0.000218   0.000008   0.000029
    11  C   -0.009918  -0.029612  -0.000000  -0.001670  -0.026927   0.267210
    12  C    0.000001  -0.000011   0.000000  -0.000011   0.000000  -0.000000
    13  H   -0.000014   0.000041  -0.000000   0.000048  -0.000070   0.000308
    14  H   -0.000000  -0.000000  -0.000000  -0.000000  -0.000000   0.000000
    15  O    0.000605   0.004269   0.000000  -0.000144   0.171871  -0.179741
    16  O   -0.000188   0.001777   0.000000   0.001101   0.002033  -0.058723
    17  O    0.000000  -0.000000   0.000000   0.000000   0.000000  -0.000000
    18  O    0.000000  -0.000000   0.000000  -0.000005   0.000000   0.000000
    19  H    0.593543   0.387607   0.009471  -0.032643  -0.001174  -0.020765
    20  C    0.387607   4.713687  -0.071668   0.381145  -0.006903   0.182218
    21  O    0.009471  -0.071668   7.812057   0.007669   0.000037   0.001009
    22  H   -0.032643   0.381145   0.007669   0.585573   0.002399  -0.018666
    23  H   -0.001174  -0.006903   0.000037   0.002399   0.322447   0.163706
    24  O   -0.020765   0.182218   0.001009  -0.018666   0.163706   8.167458
    25  C   -0.021435   0.363003   0.335267  -0.013393  -0.002756  -0.027767
    26  H   -0.000332   0.008063   0.330832  -0.000274  -0.000013  -0.000164
    27  H   -0.014114  -0.031991  -0.027543   0.009063   0.002254   0.002283
    28  H    0.009603  -0.028869  -0.026735  -0.015223  -0.000168   0.005062
    29  H    0.000118  -0.000629   0.000001  -0.000213   0.000987  -0.001208
              25         26         27         28         29
     1  H   -0.000000  -0.000000  -0.000000   0.000000  -0.000000
     2  H    0.000041   0.000000   0.000000  -0.000009   0.000367
     3  C    0.000001  -0.000000   0.000001   0.000000   0.000006
     4  H   -0.000016   0.000000  -0.000003  -0.000001  -0.000027
     5  H   -0.000000   0.000000  -0.000000   0.000000   0.000000
     6  C   -0.000172  -0.000000  -0.000014   0.000027  -0.000299
     7  C    0.000375   0.000000  -0.000034   0.000104   0.012014
     8  C   -0.000009   0.000000   0.000015  -0.000025  -0.000435
     9  C   -0.000002   0.000000  -0.000000   0.000000   0.000002
    10  C    0.000010   0.000000  -0.000000   0.000001  -0.000002
    11  C    0.005074   0.000003  -0.000260  -0.000251  -0.003814
    12  C   -0.000000   0.000000   0.000000  -0.000000   0.000001
    13  H   -0.000010   0.000000  -0.000000   0.000001  -0.000449
    14  H    0.000000   0.000000  -0.000000  -0.000000  -0.000000
    15  O   -0.000164  -0.000000  -0.000110   0.000019  -0.000579
    16  O   -0.000275  -0.000000   0.000009   0.000008   0.320260
    17  O   -0.000000  -0.000000   0.000000   0.000000   0.000000
    18  O   -0.000000  -0.000000   0.000000   0.000000   0.000000
    19  H   -0.021435  -0.000332  -0.014114   0.009603   0.000118
    20  C    0.363003   0.008063  -0.031991  -0.028869  -0.000629
    21  O    0.335267   0.330832  -0.027543  -0.026735   0.000001
    22  H   -0.013393  -0.000274   0.009063  -0.015223  -0.000213
    23  H   -0.002756  -0.000013   0.002254  -0.000168   0.000987
    24  O   -0.027767  -0.000164   0.002283   0.005062  -0.001208
    25  C    4.435708  -0.018146   0.399349   0.390410  -0.000124
    26  H   -0.018146   0.472657  -0.004587  -0.004698  -0.000000
    27  H    0.399349  -0.004587   0.653677  -0.045960  -0.000019
    28  H    0.390410  -0.004698  -0.045960   0.659062   0.000238
    29  H   -0.000124  -0.000000  -0.000019   0.000238   0.417914
 Mulliken charges:
               1
     1  H    0.059586
     2  H    0.290105
     3  C   -0.004046
     4  H    0.065602
     5  H    0.058002
     6  C    0.010391
     7  C   -0.065003
     8  C   -0.000625
     9  C    0.022114
    10  C   -0.105667
    11  C    0.353399
    12  C    0.279358
    13  H    0.054585
    14  H    0.232759
    15  O   -0.240966
    16  O   -0.182747
    17  O   -0.217267
    18  O   -0.270216
    19  H    0.089222
    20  C    0.134441
    21  O   -0.370388
    22  H    0.094112
    23  H    0.364453
    24  O   -0.394170
    25  C    0.155031
    26  H    0.216660
    27  H    0.057982
    28  H    0.057405
    29  H    0.255890
 Sum of Mulliken charges =   1.00000
 Mulliken charges with hydrogens summed into heavy atoms:
               1
     3  C    0.055540
     6  C    0.064976
     7  C   -0.065003
     8  C    0.064977
     9  C    0.080116
    10  C   -0.105667
    11  C    0.353399
    12  C    0.279358
    15  O    0.413592
    16  O    0.073143
    17  O    0.015492
    18  O   -0.270216
    20  C    0.317775
    21  O   -0.153729
    24  O   -0.394170
    25  C    0.270418
 APT charges:
               1
     1  H   -2.295954
     2  H    0.084196
     3  C    0.449513
     4  H   -4.076546
     5  H    2.054844
     6  C   -3.817126
     7  C   -2.009573
     8  C    1.906506
     9  C   -2.075646
    10  C    5.432246
    11  C   -1.242123
    12  C   -7.215121
    13  H    3.346294
    14  H    6.349989
    15  O   -0.411507
    16  O    2.497682
    17  O   -4.255956
    18  O    6.434609
    19  H   -1.976381
    20  C   -1.223752
    21  O    0.291540
    22  H    4.336105
    23  H   -1.500081
    24  O    0.320648
    25  C    0.067195
    26  H    0.277494
    27  H   -3.318796
    28  H    2.327792
    29  H    0.241908
 Sum of APT charges =   1.00000
 APT charges with hydrogens summed into heavy atoms:
               1
     3  C   -1.846441
     6  C   -0.470833
     7  C   -2.009573
     8  C   -2.170040
     9  C   -0.020803
    10  C    5.432246
    11  C   -1.242123
    12  C   -7.215121
    15  O   -1.827392
    16  O    2.739590
    17  O    2.094033
    18  O    6.434609
    20  C    1.135972
    21  O    0.569034
    24  O    0.320648
    25  C   -0.923809
 Electronic spatial extent (au):  <R**2>=         257096.3977
 Charge=              1.0000 electrons
 Dipole moment (field-independent basis, Debye):
    X=             28.5844    Y=             82.3256    Z=             63.1936  Tot=            107.6476
 Quadrupole moment (field-independent basis, Debye-Ang):
   XX=             99.4535   YY=           1344.2675   ZZ=            748.2574
   XY=            480.4749   XZ=            378.8490   YZ=           1069.9169
 Traceless Quadrupole moment (field-independent basis, Debye-Ang):
   XX=           -631.2060   YY=            613.6080   ZZ=             17.5979
   XY=            480.4749   XZ=            378.8490   YZ=           1069.9169
 Octapole moment (field-independent basis, Debye-Ang**2):
  XXX=           -118.7781  YYY=          20286.5062  ZZZ=           7679.9838  XYY=           7626.8813
  XXY=           1354.8073  XXZ=           1340.1769  XZZ=           4533.4642  YZZ=          12228.7372
  YYZ=          17193.2507  XYZ=           6315.1606
 Hexadecapole moment (field-independent basis, Debye-Ang**3):
 XXXX=          -7166.9302 YYYY=         260890.8043 ZZZZ=          58095.6649 XXXY=          -6655.8818
 XXXZ=          -1331.9371 YYYX=         110085.9617 YYYZ=         253040.3827 ZZZX=          47534.9429
 ZZZY=         114890.9586 XXYY=          13016.1059 XXZZ=          14814.8510 YYZZ=         185483.2030
 XXYZ=          18212.9974 YYXZ=          99121.2252 ZZXY=          73358.6239
 N-N= 1.144674252665D+03 E-N=-4.232966994662D+03  KE= 8.318816242912D+02
  Exact polarizability:   0.000   0.000   0.000   0.000   0.000   0.000
 Approx polarizability: 111.624  -5.119 169.785  21.923   3.018 159.634
   1 Symmetry operations used in ECPInt.
 ECPInt:  NShTT=    9180 NPrTT=   33400 LenC2=    8472 LenP2D=   22125.
 LDataN:  DoStor=T MaxTD1= 6 Len=  172
 D2PCM: PCM CHGder 2nd derivatives, FixD1E=F FixD2E=F DoIter=F DoCFld=F I1PDM=0
 Calling FoFJK, ICntrl=    100147 FMM=F ISym2X=0 I1Cent= 0 IOpClX= 0 NMat=1 NMatS=1 NMatT=0.
 -------------------------------------------------------------------
 Center     Atomic                   Forces (Hartrees/Bohr)
 Number     Number              X              Y              Z
 -------------------------------------------------------------------
      1        1          -0.000003606    0.000005420    0.000004314
      2        1           0.000002229   -0.000009676    0.000001584
      3        6           0.000000278   -0.000000999    0.000002215
      4        1          -0.000001956    0.000005055   -0.000000113
      5        1           0.000000539    0.000003094    0.000005603
      6        6           0.000001577    0.000002288   -0.000000084
      7        6           0.000001162   -0.000005756   -0.000007249
      8        6          -0.000005368    0.000006398   -0.000000651
      9        6          -0.000002269    0.000006475    0.000008977
     10        6           0.000004695   -0.000001779    0.000002183
     11        6           0.000535187    0.001010955    0.000411658
     12        6           0.000001636    0.000000023    0.000004908
     13        1           0.000003630   -0.000001275    0.000002277
     14        1           0.000004735    0.000001478    0.000007571
     15        8          -0.000560164   -0.000981638   -0.000385669
     16        8          -0.000002781   -0.000010495   -0.000019372
     17        8           0.000006163    0.000001235    0.000010827
     18        8           0.000005267    0.000000545    0.000004808
     19        1          -0.000006323    0.000000677   -0.000000789
     20        6           0.000000852   -0.000007719   -0.000012791
     21        8          -0.000012264   -0.000009983    0.000005185
     22        1           0.000004707   -0.000000572   -0.000004845
     23        1           0.001427922    0.001700052    0.000534482
     24        8          -0.001417793   -0.001708572   -0.000538127
     25        6           0.000011064    0.000008105   -0.000013553
     26        1          -0.000003678   -0.000002454   -0.000009385
     27        1           0.000002140   -0.000001252   -0.000007573
     28        1          -0.000004011   -0.000008161   -0.000005288
     29        1           0.000006427   -0.000001469   -0.000001103
 -------------------------------------------------------------------
 Cartesian Forces:  Max     0.001708572 RMS     0.000391585
 FormGI is forming the generalized inverse of G from B-inverse, IUseBI=4.

 GradGradGradGradGradGradGradGradGradGradGradGradGradGradGradGradGradGrad
 Berny optimization.
 Internal  Forces:  Max     0.001687928 RMS     0.000173957
 Search for a saddle point.
 Step number   1 out of a maximum of  162
 All quantities printed in internal units (Hartrees-Bohrs-Radians)
 Swapping is turned off.
 Second derivative matrix not updated -- analytic derivatives used.
 ITU=  0
     Eigenvalues ---   -0.06653   0.00103   0.00220   0.00296   0.00391
     Eigenvalues ---    0.00412   0.00442   0.00641   0.00810   0.01548
     Eigenvalues ---    0.01710   0.01828   0.01905   0.01971   0.02095
     Eigenvalues ---    0.02204   0.02585   0.02792   0.02897   0.02989
     Eigenvalues ---    0.04258   0.04793   0.04936   0.05162   0.05224
     Eigenvalues ---    0.06383   0.06712   0.06984   0.07577   0.08315
     Eigenvalues ---    0.10368   0.10586   0.10841   0.11063   0.11195
     Eigenvalues ---    0.11719   0.11870   0.12268   0.13202   0.14554
     Eigenvalues ---    0.14998   0.15559   0.16358   0.18203   0.18632
     Eigenvalues ---    0.18928   0.19504   0.20520   0.21166   0.22578
     Eigenvalues ---    0.24640   0.25121   0.25715   0.27051   0.28457
     Eigenvalues ---    0.30341   0.31477   0.33072   0.33271   0.34260
     Eigenvalues ---    0.34599   0.35087   0.35734   0.36884   0.37027
     Eigenvalues ---    0.37187   0.37465   0.38975   0.44063   0.44663
     Eigenvalues ---    0.45234   0.47636   0.49467   0.49871   0.50073
     Eigenvalues ---    0.51248   0.52520   0.53329   0.53692   0.54321
     Eigenvalues ---    0.94488
 Eigenvectors required to have negative eigenvalues:
                          R28       R20       R14       R16       A30
   1                   -0.64450   0.64067  -0.15736   0.15706  -0.13550
                          A43       A42       D52       A29       D44
   1                   -0.12523   0.11666   0.10875   0.09400  -0.08238
 RFO step:  Lambda0=2.503589076D-05 Lambda=-3.01993263D-05.
 Linear search not attempted -- option 19 set.
 Iteration  1 RMS(Cart)=  0.00498142 RMS(Int)=  0.00001575
 Iteration  2 RMS(Cart)=  0.00002984 RMS(Int)=  0.00000370
 Iteration  3 RMS(Cart)=  0.00000000 RMS(Int)=  0.00000370
 Variable       Old X    -DE/DX   Delta X   Delta X   Delta X     New X
                                 (Linear)    (Quad)   (Total)
    R1        2.05929  -0.00000   0.00000  -0.00001  -0.00001   2.05928
    R2        1.84610   0.00000   0.00000   0.00020   0.00020   1.84630
    R3        2.63063  -0.00000   0.00000  -0.00009  -0.00009   2.63054
    R4        2.63493   0.00000   0.00000   0.00008   0.00008   2.63501
    R5        2.06115  -0.00000   0.00000  -0.00001  -0.00001   2.06113
    R6        2.05936  -0.00000   0.00000  -0.00000  -0.00000   2.05936
    R7        2.63170   0.00000   0.00000  -0.00003  -0.00003   2.63166
    R8        2.63754  -0.00000   0.00000   0.00004   0.00004   2.63758
    R9        2.06014   0.00000   0.00000  -0.00001  -0.00001   2.06013
   R10        2.64472   0.00000   0.00000   0.00007   0.00007   2.64479
   R11        2.83448   0.00001   0.00000  -0.00046  -0.00046   2.83402
   R12        2.64032  -0.00000   0.00000  -0.00007  -0.00007   2.64024
   R13        2.82664   0.00000   0.00000   0.00002   0.00002   2.82666
   R14        2.75921   0.00062   0.00000   0.00989   0.00988   2.76909
   R15        2.51312  -0.00002   0.00000  -0.00097  -0.00097   2.51215
   R16        2.76211  -0.00011   0.00000  -0.00436  -0.00436   2.75775
   R17        2.51518  -0.00000   0.00000  -0.00003  -0.00003   2.51515
   R18        2.27473  -0.00000   0.00000  -0.00001  -0.00001   2.27472
   R19        1.83550   0.00000   0.00000   0.00000   0.00000   1.83551
   R20        2.33495   0.00025   0.00000  -0.01505  -0.01505   2.31991
   R21        1.83768   0.00000   0.00000   0.00003   0.00003   1.83772
   R22        2.07395  -0.00000   0.00000   0.00003   0.00003   2.07397
   R23        2.07354   0.00000   0.00000   0.00006   0.00006   2.07360
   R24        2.73003   0.00001   0.00000  -0.00026  -0.00026   2.72977
   R25        2.86152   0.00000   0.00000  -0.00004  -0.00004   2.86149
   R26        2.64704  -0.00002   0.00000  -0.00003  -0.00003   2.64702
   R27        1.82144  -0.00000   0.00000  -0.00001  -0.00001   1.82143
   R28        2.34016  -0.00169   0.00000   0.00293   0.00294   2.34311
   R29        2.08597  -0.00000   0.00000  -0.00001  -0.00001   2.08596
   R30        2.08462   0.00000   0.00000   0.00005   0.00005   2.08466
    A1        2.09058  -0.00000   0.00000  -0.00001  -0.00001   2.09056
    A2        2.09596  -0.00000   0.00000  -0.00001  -0.00001   2.09596
    A3        2.09663   0.00000   0.00000   0.00002   0.00002   2.09666
    A4        2.08296   0.00000   0.00000  -0.00003  -0.00003   2.08293
    A5        2.11447  -0.00000   0.00000   0.00005   0.00005   2.11451
    A6        2.08575  -0.00000   0.00000  -0.00001  -0.00001   2.08574
    A7        2.10513  -0.00000   0.00000   0.00007   0.00007   2.10520
    A8        2.07713  -0.00001   0.00000  -0.00039  -0.00039   2.07675
    A9        2.10036   0.00001   0.00000   0.00029   0.00029   2.10065
   A10        2.09555  -0.00000   0.00000  -0.00013  -0.00013   2.09543
   A11        2.08841   0.00000   0.00000  -0.00007  -0.00007   2.08834
   A12        2.09918   0.00000   0.00000   0.00019   0.00019   2.09937
   A13        2.10308  -0.00000   0.00000  -0.00003  -0.00003   2.10305
   A14        2.09250  -0.00000   0.00000   0.00002   0.00002   2.09252
   A15        2.08760   0.00000   0.00000   0.00001   0.00001   2.08761
   A16        2.10072  -0.00000   0.00000  -0.00001  -0.00001   2.10071
   A17        2.05320  -0.00000   0.00000  -0.00002  -0.00002   2.05318
   A18        2.12926   0.00000   0.00000   0.00003   0.00003   2.12929
   A19        1.95270   0.00012   0.00000  -0.00195  -0.00195   1.95076
   A20        1.96941  -0.00011   0.00000   0.00124   0.00123   1.97064
   A21        2.00504   0.00014   0.00000   0.00190   0.00190   2.00694
   A22        1.99580   0.00011   0.00000  -0.00120  -0.00119   1.99461
   A23        1.56267  -0.00039   0.00000  -0.00278  -0.00278   1.55989
   A24        1.94442   0.00009   0.00000   0.00201   0.00200   1.94642
   A25        1.96850   0.00000   0.00000  -0.00001  -0.00001   1.96849
   A26        2.15957   0.00000   0.00000  -0.00002  -0.00002   2.15954
   A27        2.15512  -0.00000   0.00000   0.00003   0.00003   2.15516
   A28        2.00221   0.00016   0.00000  -0.00086  -0.00088   2.00133
   A29        2.17686   0.00013   0.00000  -0.00867  -0.00867   2.16820
   A30        1.37918  -0.00053   0.00000  -0.00192  -0.00194   1.37724
   A31        1.94682   0.00000   0.00000  -0.00008  -0.00008   1.94674
   A32        1.89332   0.00000   0.00000   0.00003   0.00003   1.89336
   A33        1.91744   0.00000   0.00000  -0.00015  -0.00015   1.91730
   A34        1.91242  -0.00000   0.00000  -0.00026  -0.00026   1.91216
   A35        1.94505   0.00000   0.00000  -0.00014  -0.00014   1.94490
   A36        1.87446   0.00000   0.00000   0.00076   0.00076   1.87522
   A37        1.93637  -0.00001   0.00000  -0.00006  -0.00006   1.93631
   A38        1.87621   0.00000   0.00000  -0.00011  -0.00011   1.87610
   A39        1.89719   0.00000   0.00000   0.00001   0.00001   1.89720
   A40        1.96431   0.00062   0.00000   0.00655   0.00657   1.97087
   A41        2.14836  -0.00018   0.00000  -0.00098  -0.00099   2.14737
   A42        1.37663   0.00029   0.00000  -0.00185  -0.00184   1.37479
   A43        2.31993  -0.00013   0.00000   0.00838   0.00838   2.32831
   A44        1.83896  -0.00000   0.00000   0.00020   0.00020   1.83915
   A45        1.90497   0.00001   0.00000  -0.00011  -0.00011   1.90486
   A46        1.90179  -0.00000   0.00000  -0.00002  -0.00002   1.90177
   A47        1.96305  -0.00000   0.00000   0.00003   0.00003   1.96307
   A48        1.96741   0.00000   0.00000   0.00001   0.00001   1.96742
   A49        1.88604  -0.00000   0.00000  -0.00009  -0.00009   1.88595
    D1       -0.00719   0.00000   0.00000  -0.00001  -0.00001  -0.00720
    D2       -3.13874   0.00000   0.00000   0.00013   0.00013  -3.13861
    D3        3.12896  -0.00000   0.00000   0.00005   0.00005   3.12902
    D4       -0.00258  -0.00000   0.00000   0.00019   0.00019  -0.00239
    D5       -0.00299  -0.00000   0.00000  -0.00005  -0.00005  -0.00304
    D6        3.13493   0.00000   0.00000   0.00005   0.00005   3.13499
    D7       -3.13912   0.00000   0.00000  -0.00012  -0.00012  -3.13924
    D8       -0.00120   0.00000   0.00000  -0.00001  -0.00001  -0.00121
    D9       -0.00300   0.00000   0.00000   0.00014   0.00014  -0.00286
   D10        3.10261   0.00000   0.00000  -0.00079  -0.00079   3.10182
   D11        3.13445  -0.00000   0.00000   0.00031   0.00031   3.13476
   D12       -0.04313   0.00000   0.00000  -0.00061  -0.00061  -0.04374
   D13       -0.00084  -0.00000   0.00000   0.00005   0.00005  -0.00078
   D14        3.13800  -0.00000   0.00000   0.00016   0.00016   3.13815
   D15       -3.13835   0.00000   0.00000  -0.00012  -0.00012  -3.13848
   D16        0.00048  -0.00000   0.00000  -0.00001  -0.00001   0.00046
   D17        0.00472  -0.00000   0.00000  -0.00026  -0.00026   0.00446
   D18       -3.12681  -0.00000   0.00000  -0.00012  -0.00012  -3.12693
   D19       -3.10041  -0.00000   0.00000   0.00069   0.00069  -3.09972
   D20        0.05125  -0.00000   0.00000   0.00083   0.00083   0.05208
   D21        2.72467   0.00016   0.00000  -0.00458  -0.00458   2.72009
   D22        0.44460  -0.00000   0.00000  -0.00225  -0.00225   0.44235
   D23       -1.81017  -0.00016   0.00000  -0.00806  -0.00806  -1.81823
   D24       -0.45281   0.00017   0.00000  -0.00551  -0.00551  -0.45831
   D25       -2.73288  -0.00000   0.00000  -0.00318  -0.00318  -2.73606
   D26        1.29553  -0.00016   0.00000  -0.00898  -0.00899   1.28655
   D27        0.00294  -0.00000   0.00000  -0.00012  -0.00012   0.00282
   D28       -3.13577   0.00000   0.00000  -0.00023  -0.00023  -3.13600
   D29        3.14089  -0.00000   0.00000  -0.00001  -0.00001   3.14088
   D30        0.00218   0.00000   0.00000  -0.00012  -0.00012   0.00206
   D31        3.14083   0.00000   0.00000  -0.00019  -0.00019   3.14064
   D32       -0.00041   0.00000   0.00000  -0.00014  -0.00014  -0.00055
   D33       -0.00357  -0.00000   0.00000  -0.00008  -0.00008  -0.00365
   D34        3.13837  -0.00000   0.00000  -0.00003  -0.00003   3.13834
   D35       -2.07525  -0.00006   0.00000  -0.01011  -0.01011  -2.08536
   D36        2.05539   0.00001   0.00000   0.00033   0.00033   2.05572
   D37        0.19121  -0.00000   0.00000  -0.01123  -0.01123   0.17998
   D38       -1.96134   0.00006   0.00000  -0.00079  -0.00079  -1.96213
   D39        2.17022  -0.00007   0.00000  -0.01057  -0.01058   2.15964
   D40        0.01767  -0.00000   0.00000  -0.00014  -0.00014   0.01753
   D41       -2.81796  -0.00000   0.00000   0.00516   0.00516  -2.81279
   D42        1.20707  -0.00018   0.00000   0.00789   0.00789   1.21496
   D43       -0.53238   0.00019   0.00000   0.01073   0.01073  -0.52165
   D44        0.33889   0.00000   0.00000   0.01226   0.01226   0.35115
   D45       -2.00768   0.00002   0.00000   0.00348   0.00349  -2.00419
   D46        2.32893  -0.00002   0.00000   0.00905   0.00905   2.33798
   D47       -0.01764  -0.00001   0.00000   0.00028   0.00028  -0.01736
   D48       -1.92819  -0.00005   0.00000   0.00691   0.00691  -1.92128
   D49        2.00843  -0.00004   0.00000  -0.00186  -0.00186   2.00657
   D50       -3.14128  -0.00000   0.00000   0.00008   0.00008  -3.14119
   D51       -0.00003  -0.00000   0.00000   0.00004   0.00004   0.00000
   D52       -1.98729   0.00012   0.00000   0.00319   0.00318  -1.98412
   D53       -0.02258  -0.00002   0.00000   0.00018   0.00019  -0.02240
   D54       -1.24156  -0.00008   0.00000  -0.00706  -0.00706  -1.24861
   D55        0.62510   0.00008   0.00000  -0.00320  -0.00320   0.62190
   D56        0.84052  -0.00008   0.00000  -0.00694  -0.00694   0.83358
   D57        2.70717   0.00008   0.00000  -0.00308  -0.00308   2.70409
   D58        2.92524  -0.00008   0.00000  -0.00666  -0.00666   2.91858
   D59       -1.49129   0.00007   0.00000  -0.00281  -0.00280  -1.49410
   D60        1.03591   0.00000   0.00000   0.00005   0.00005   1.03596
   D61       -1.07595   0.00000   0.00000  -0.00004  -0.00004  -1.07599
   D62       -3.13192   0.00000   0.00000   0.00015   0.00015  -3.13176
   D63       -1.10672   0.00000   0.00000   0.00038   0.00038  -1.10634
   D64        3.06460   0.00000   0.00000   0.00029   0.00029   3.06489
   D65        1.00864   0.00000   0.00000   0.00048   0.00048   1.00912
   D66        3.13173   0.00000   0.00000  -0.00044  -0.00044   3.13129
   D67        1.01986   0.00000   0.00000  -0.00052  -0.00052   1.01934
   D68       -1.03610   0.00000   0.00000  -0.00033  -0.00033  -1.03643
   D69       -3.13418  -0.00000   0.00000   0.00209   0.00209  -3.13209
   D70       -1.06070   0.00000   0.00000   0.00209   0.00209  -1.05861
   D71        1.07701   0.00000   0.00000   0.00199   0.00199   1.07900
   D72        0.02257   0.00002   0.00000  -0.00007  -0.00007   0.02250
   D73       -2.16328   0.00004   0.00000  -0.00031  -0.00031  -2.16360
         Item               Value     Threshold  Converged?
 Maximum Force            0.001688     0.000450     NO 
 RMS     Force            0.000174     0.000300     YES
 Maximum Displacement     0.023223     0.001800     NO 
 RMS     Displacement     0.004992     0.001200     NO 
 Predicted change in Energy=-2.598879D-06
 GradGradGradGradGradGradGradGradGradGradGradGradGradGradGradGradGradGrad

                          Input orientation:                          
 ---------------------------------------------------------------------
 Center     Atomic      Atomic             Coordinates (Angstroms)
 Number     Number       Type             X           Y           Z
 ---------------------------------------------------------------------
      1          1           0        3.706856   20.094059   10.111598
      2          1           0        4.249953   16.260763   14.083709
      3          6           0        4.100386   20.183235   11.123863
      4          1           0        4.375961   18.057810   11.358351
      5          1           0        3.920909   22.337020   11.180306
      6          6           0        5.099551   20.406072   13.727421
      7          6           0        4.981010   19.157148   13.122841
      8          6           0        4.479286   19.039840   11.821578
      9          6           0        4.217799   21.438173   11.720235
     10          6           0        4.715468   21.547053   13.021202
     11          6           0        5.444043   17.941512   13.869112
     12          6           0        4.854681   22.868227   13.708624
     13          1           0        5.483284   20.506967   14.742827
     14          1           0        4.579391   24.710358   13.453141
     15          8           0        4.770557   16.727192   13.401077
     16          8           0        5.422519   18.104708   15.188254
     17          8           0        4.462770   23.888396   12.948941
     18          8           0        5.276123   22.997846   14.828694
     19          1           0        7.304765   18.309544   11.640580
     20          6           0        7.681608   18.151566   12.659176
     21          8           0        9.872705   18.137881   11.898470
     22          1           0        7.808235   19.117744   13.163695
     23          1           0        5.939279   16.469269   13.127814
     24          8           0        6.717662   17.389555   13.418661
     25          6           0        8.978202   17.369441   12.654409
     26          1           0       10.717955   17.676516   11.856997
     27          1           0        8.798832   16.374055   12.212254
     28          1           0        9.314004   17.225735   13.695341
     29          1           0        5.983985   17.450457   15.638171
 ---------------------------------------------------------------------
                    Distance matrix (angstroms):
                    1          2          3          4          5
     1  H    0.000000
     2  H    5.546781   0.000000
     3  C    1.089724   4.916181   0.000000
     4  H    2.479598   3.266930   2.156005   0.000000
     5  H    2.493757   6.742323   2.161987   4.307019   0.000000
     6  C    3.887303   4.246451   2.797588   3.413269   3.406693
     7  C    3.401302   3.137954   2.413351   2.165191   3.874125
     8  C    2.152221   3.590696   1.392021   1.090705   3.405057
     9  C    2.157642   5.691452   1.394387   3.403356   1.089767
    10  C    3.405038   5.412069   2.416241   3.880098   2.155057
    11  C    4.665853   2.072878   3.790399   2.730978   5.373091
    12  C    4.685307   6.645673   3.802516   5.375227   2.747090
    13  H    4.977396   4.470547   3.887686   4.321945   4.299031
    14  H    5.765192   8.479493   5.113690   6.977530   3.351435
    15  O    4.825756   0.977022   4.192739   2.469611   6.092938
    16  O    5.716069   2.448482   4.752639   3.970596   6.019215
    17  O    4.797803   7.714517   4.146137   6.044274   2.414219
    18  O    5.757218   6.855386   4.798975   6.103894   3.947662
    19  H    4.297351   4.415683   3.747767   2.953119   5.280426
    20  C    5.105104   4.169015   4.394316   3.553622   5.817898
    21  O    6.710979   6.317767   6.172775   5.523796   7.319317
    22  H    5.204786   4.655119   4.363981   4.020351   5.422995
    23  H    5.217314   1.952187   4.603356   2.845772   6.503622
    24  O    5.226467   2.793931   4.463281   3.189828   6.108148
    25  C    6.455736   5.062451   5.835503   4.830553   7.240583
    26  H    7.618821   6.985532   7.114305   6.372983   8.269101
    27  H    6.646758   4.920110   6.145717   4.808946   7.772772
    28  H    7.246420   5.169779   6.522355   5.526132   7.844495
    29  H    6.535821   2.615070   5.603123   4.612101   6.928733
                    6          7          8          9         10
     6  C    0.000000
     7  C    1.392616   0.000000
     8  C    2.425605   1.399562   0.000000
     9  C    2.423122   2.784398   2.414674   0.000000
    10  C    1.395745   2.406759   2.789444   1.397156   0.000000
    11  C    2.492550   1.499696   2.515845   4.283455   3.774877
    12  C    2.474374   3.759150   4.284672   2.530684   1.495804
    13  H    1.090174   2.167636   3.419674   3.406562   2.152978
    14  H    4.344269   5.577503   5.901423   3.720336   3.195557
    15  O    3.707950   2.454871   2.815670   5.032308   4.835122
    16  O    2.744925   2.359765   3.619208   4.958881   4.128653
    17  O    3.624652   4.762722   4.977923   2.751966   2.356048
    18  O    2.821572   4.212836   5.034233   3.635264   2.384567
    19  H    3.689621   2.883637   2.923940   4.395910   4.369444
    20  C    3.590398   2.918802   3.427166   4.866351   4.523094
    21  O    5.592204   5.144576   5.468858   6.549936   6.283317
    22  H    3.051974   2.827794   3.590160   4.512117   3.935360
    23  H    4.069777   2.853593   3.231975   5.443783   5.224267
    24  O    3.437002   2.495566   3.206936   5.052255   4.631581
    25  C    5.041470   4.403734   4.870738   6.331565   5.979790
    26  H    6.520385   6.058644   6.385992   7.511378   7.236455
    27  H    5.677813   4.811500   5.090924   6.846403   6.639892
    28  H    5.279885   4.778383   5.493311   6.900506   6.346242
    29  H    3.628890   3.200881   4.399618   5.862723   5.023919
                   11         12         13         14         15
    11  C    0.000000
    12  C    4.964436   0.000000
    13  H    2.710438   2.653351   0.000000
    14  H    6.836514   1.880026   4.488742   0.000000
    15  O    1.465338   6.149308   4.073693   7.985624   0.000000
    16  O    1.329373   5.020246   2.443961   6.881576   2.348746
    17  O    6.097134   1.330960   3.961507   0.971308   7.182062
    18  O    5.149321   1.203732   2.500953   2.304404   6.450953
    19  H    2.926446   5.573268   4.215495   7.189121   3.467765
    20  C    2.552403   5.598192   3.836944   7.298758   3.324677
    21  O    4.851291   7.129754   5.741946   8.581003   5.502707
    22  H    2.733228   4.804847   3.135123   6.464251   3.872799
    23  H    1.721127   6.516161   4.372551   8.358868   1.227643
    24  O    1.459338   5.794016   3.604907   7.626764   2.056758
    25  C    3.780615   6.953521   5.140040   8.595148   4.321375
    26  H    5.650927   8.047383   6.613717   9.471249   6.217471
    27  H    4.056686   7.744012   5.871764   9.425360   4.214855
    28  H    3.939433   7.191902   5.151517   8.859728   4.580180
    29  H    1.913699   5.860949   3.224065   7.710603   2.645772
                   16         17         18         19         20
    16  O    0.000000
    17  O    6.275882   0.000000
    18  O    4.908514   2.233404   0.000000
    19  H    4.021293   6.396275   6.021597   0.000000
    20  C    3.391447   6.584534   5.829201   1.097500   0.000000
    21  O    5.534251   7.964879   7.303015   2.586560   2.319432
    22  H    3.288878   5.830727   4.923312   1.796260   1.097302
    23  H    2.680879   7.566737   6.779017   2.731854   2.466871
    24  O    2.306577   6.894933   5.959794   2.086299   1.444531
    25  C    4.427626   7.935531   7.078972   2.170723   1.514233
    26  H    6.270747   8.882968   8.170744   3.478136   3.176251
    27  H    4.821952   8.706862   7.945428   2.511008   2.146503
    28  H    4.259699   8.275423   7.134860   3.071437   2.143716
    29  H    0.972478   7.140946   5.650650   4.296885   3.499698
                   21         22         23         24         25
    21  O    0.000000
    22  H    2.612080   0.000000
    23  H    4.446053   3.241712   0.000000
    24  O    3.581238   2.059367   1.239919   0.000000
    25  C    1.400742   2.164431   3.204602   2.386321   0.000000
    26  H    0.963860   3.500153   5.090006   4.303892   1.938272
    27  H    2.088719   3.068281   3.004057   2.611116   1.103842
    28  H    2.091148   2.475820   3.504725   2.616177   1.103156
    29  H    5.438755   3.497251   2.695667   2.338421   4.227853
                   26         27         28         29
    26  H    0.000000
    27  H    2.346411   0.000000
    28  H    2.356648   1.786144   0.000000
    29  H    6.062908   4.562775   3.861880   0.000000
 Symmetry turned off by external request.
 Stoichiometry    C10H13O6(1+)
 Framework group  C1[X(C10H13O6)]
 Deg. of freedom    81
 Full point group                 C1      NOp   1
[...]
 1918906,-0.01231647,-0.00660199,-0.00270877,-0.00001803,-0.00015335,0.
 00000194,-0.00004957,-0.00009294,-0.00011206,0.00159416,0.00059063,-0.
 00184357,-0.01896004,0.00208864,0.01923296,0.00314811,0.00025468,-0.00
 102694,0.00531648,0.00364338,-0.00387042,-0.05234163,-0.00002155,0.000
 04790,-0.00005013,-0.00793474,0.00175580,0.00165003,0.00001143,0.00017
 442,0.00001001,0.00053893,-0.00002991,0.00003905,-0.00001338,0.0000029
 6,0.00000463,-0.00038349,-0.00045496,-0.00010195,-0.00262595,-0.001329
 29,0.00042231,0.00038863,0.00018374,0.00020461,-0.00006183,0.00010713,
 -0.00011065,0.00021913,0.00026576,-0.00014164,0.04412208,-0.03734135,-
 0.03543155,0.00001032,-0.00056808,-0.00030384,-0.00007631,-0.00008520,
 -0.00004118,-0.00000139,-0.00003481,-0.00000150,0.05388055,-0.05068205
 ,-0.01194326,-0.00382396,-0.00212739,0.00210642,-0.00004591,0.00031178
 ,-0.00000072,0.00005073,0.00023148,0.00021285,0.00065175,0.00033332,-0
 .00117430,-0.00901610,-0.00362936,0.01175708,0.00213615,-0.00030840,-0
 .00070852,0.00251460,0.00184453,-0.00125836,-0.07383970,0.11589517,0.0
 0000151,0.00001303,-0.00000867,0.00611155,-0.00703377,-0.00359722,0.00
 002550,-0.00007371,-0.00017651,-0.00060292,0.00039501,-0.00037774,-0.0
 0000735,-0.00001361,-0.00000981,0.00004936,0.00010045,-0.00021765,0.00
 017437,0.00058787,0.00012008,-0.00007835,0.00047738,0.00031172,-0.0000
 2389,0.00001344,0.00003101,-0.00004461,0.00003938,0.00000258,0.0038294
 9,-0.03434724,0.00018284,-0.00002324,-0.00005947,-0.00003287,-0.000006
 71,-0.00007560,-0.00003070,0.00000103,-0.00000357,-0.00000206,-0.00034
 703,0.01553641,-0.02530863,0.00074942,0.00161655,0.00054569,-0.0000041
 2,0.00006005,-0.00000353,0.00000497,0.00003194,0.00001824,0.00006054,0
 .00074188,0.00007250,-0.00007879,0.00775588,0.00591704,0.00025668,-0.0
 0018169,-0.00012027,0.00130811,0.00095547,-0.00105276,-0.00338570,0.04
 733118,0.07222184,-0.00011214,0.00011443,-0.00016928,-0.00869854,0.007
 52856,-0.00858792,0.00070793,0.00103671,0.00006302,-0.00033496,-0.0004
 1600,0.00062015,-0.00011461,-0.00003429,0.00003878,-0.00285228,-0.0024
 4365,-0.00247177,-0.01673478,0.02047593,0.00412683,0.00183505,0.000229
 57,0.00261305,-0.00015756,0.00088798,0.00019489,0.00038422,0.00181597,
 -0.00153415,-0.10749852,0.00273666,-0.00238169,-0.00017549,-0.00188685
 ,-0.00131642,-0.00050665,-0.00040949,0.00004866,-0.00002976,-0.0001142
 6,-0.00000767,-0.16972005,-0.04234451,0.03229698,-0.01146248,0.0130268
 0,0.03604567,-0.00010800,0.00122869,0.00005354,0.00026179,0.00082537,0
 .00080065,-0.00189403,-0.00268454,0.00632057,-0.10174622,-0.03776049,0
 .05061345,-0.01773206,0.00660242,0.00288370,-0.01308625,-0.00948310,0.
 00868778,0.00684067,-0.00581307,-0.00699396,0.46110421,0.00004304,-0.0
 0006785,0.00013002,-0.00367823,0.00872111,-0.00440713,-0.00108758,-0.0
 0147118,0.00050959,0.00089720,0.00007149,0.00038039,0.00021204,0.00009
 744,-0.00007191,0.00086047,0.00220481,0.00147287,0.03242072,-0.0126569
 8,-0.00594974,-0.00160469,-0.00089925,-0.00296585,0.00033104,-0.000348
 10,0.00012588,-0.00121610,-0.00092273,0.00184997,0.00653373,-0.1199947
 7,0.01306845,0.00000165,0.00120502,0.00080513,0.00093723,0.00018998,-0
 .00030927,0.00001288,0.00008392,-0.00000059,-0.11767542,0.00143787,0.0
 2304746,0.01754288,0.00845850,-0.01556697,0.00011054,-0.00077350,-0.00
 005067,-0.00014582,-0.00053530,-0.00051196,-0.01056516,-0.00596401,0.0
 0820292,-0.02542721,-0.14486419,0.03299360,0.00389988,-0.00060870,-0.0
 0062507,-0.03207591,-0.01814246,0.02806454,0.04511391,-0.02715146,-0.0
 3279622,0.08040358,0.30086763,-0.00002017,-0.00004228,0.00002213,-0.00
 060472,0.00293282,0.00124222,0.00026707,-0.00095436,0.00036888,0.00022
 722,-0.00017141,-0.00013533,0.00000626,0.00000663,0.00002351,-0.000568
 03,-0.00026851,-0.00071522,-0.00524244,0.00286841,0.00900798,0.0012670
 2,-0.00069150,-0.00082213,0.00016593,0.00052571,0.00073008,0.00017766,
 0.00080420,-0.00053476,-0.00275794,0.00014034,-0.06538114,0.00000135,-
 0.00003415,-0.00023014,-0.00012107,0.00034326,0.00010993,-0.00000990,-
 0.00000140,-0.00000326,0.01076931,0.00366148,0.02881028,0.04967157,-0.
 01872658,-0.03838797,-0.00001792,0.00005566,0.00003527,0.00002967,-0.0
 0001127,0.00008582,0.03346039,0.02322694,-0.01423987,0.04574688,0.0345
 5000,-0.10739362,0.00508172,-0.00222754,0.00024428,-0.00529881,-0.0019
 8002,0.00882346,0.00698186,-0.01127277,-0.04712339,-0.14444632,-0.0373
 9188,0.22270844,0.00001328,-0.00002894,0.00003204,-0.00017253,-0.00029
 870,0.00016737,-0.00001813,-0.00015182,-0.00002008,-0.00007560,0.00000
 249,-0.00006438,0.00000536,-0.00000219,0.00000316,0.00014709,0.0002714
 7,0.00027811,0.00049766,-0.00005234,-0.00017644,-0.00012372,-0.0000441
 0,-0.00040218,0.00002872,-0.00002448,0.00013856,-0.00000444,-0.0001219
 5,-0.00007290,-0.00159413,0.00051161,0.00086124,0.00003797,0.00044794,
 0.00021849,-0.00001502,0.00006167,0.00006759,0.00000094,0.00002526,0.0
 0000192,0.00277599,-0.00034734,-0.00075016,0.00054636,-0.00021781,-0.0
 0108121,0.00002179,-0.00024391,0.00000528,-0.00004649,-0.00018455,-0.0
 0016237,-0.00851911,0.00796614,0.00098728,-0.17665310,0.07922977,-0.01
 471431,-0.16892965,-0.04163351,0.06020980,0.00452921,-0.00096795,-0.00
 135149,-0.00437454,-0.00181337,-0.00050663,-0.02139251,0.00723615,0.00
 666295,0.53846457,-0.00000276,0.00001832,-0.00001434,-0.00014574,0.000
 19159,-0.00035337,-0.00001181,-0.00009867,0.00000009,0.00001912,-0.000
 02080,0.00007305,-0.00000192,0.00000314,0.00000353,0.00015674,0.000079
 42,-0.00014816,0.00036229,-0.00028668,0.00032455,0.00005159,0.00021802
 ,-0.00026215,0.00000049,0.00008090,0.00008931,0.00000634,0.00017137,-0
 .00011394,0.00221001,-0.00449879,-0.00124299,-0.00001787,-0.00007788,-
 0.00005501,-0.00005471,-0.00002636,0.00003509,0.00000198,-0.00000530,-
 0.00000188,-0.00368713,-0.00168785,0.00047081,-0.00093543,0.00029320,0
 .00201615,-0.00000749,0.00005653,0.00000321,0.00000869,0.00003396,0.00
 003272,0.00262777,-0.00171984,-0.00044448,0.08587986,-0.13542634,-0.00
 382961,-0.07762429,-0.15067456,0.07578105,0.02706444,-0.01394496,0.002
 29413,0.00062501,0.00215751,0.00053109,-0.03340923,0.01018190,0.008477
 79,0.00181912,0.59444518,0.00000496,-0.00000152,-0.00000296,0.00004078
 ,-0.00001404,0.00019643,-0.00003459,-0.00025206,0.00011655,0.00010367,
 0.00005421,0.00001733,0.00000151,0.00000794,0.00000498,0.00002040,-0.0
 0036648,0.00005279,-0.00022916,0.00024395,0.00001212,-0.00025797,0.000
 11253,0.00004007,0.00006780,0.00008296,0.00012812,-0.00002827,0.000189
 12,-0.00014649,-0.00055314,0.00249145,-0.00006993,-0.00002241,-0.00013
 147,-0.00004137,0.00000993,0.00002712,0.00001571,0.00000059,-0.0000076
 5,0.00000067,0.00112124,0.00078757,-0.00016311,0.00027490,-0.00029569,
 -0.00079602,-0.00000445,0.00005728,-0.00001134,0.00001377,0.00003522,0
 .00003639,-0.02693389,0.01729850,0.00287234,-0.01805256,0.00082068,-0.
 08162411,0.08031530,0.06319638,-0.13114154,0.01435666,-0.00752566,0.00
 122862,0.00008208,0.00006394,0.00019875,0.02597517,-0.00950231,-0.0062
 2628,0.02595557,0.01086163,0.60461243,-0.00000042,-0.00000100,0.000001
 60,-0.00001041,-0.00000946,-0.00000293,0.00000058,-0.00000480,-0.00000
 374,-0.00000741,-0.00000180,-0.00000224,-0.00000018,-0.00000011,0.0000
 0032,0.00000192,0.00002094,0.00001155,0.00005202,-0.00001066,-0.000013
 31,-0.00000122,-0.00000288,-0.00002474,0.00000028,-0.00000007,0.000007
 02,-0.00000316,-0.00000786,-0.00000564,-0.00000106,-0.00010861,0.00007
 209,0.00000156,0.00003286,0.00001558,-0.00000377,0.00000340,0.00000475
 ,-0.00000034,0.00000237,0.00000038,0.00007780,-0.00003812,-0.00003131,
 -0.00000002,0.00000607,-0.00001168,0.00000231,-0.00001703,0.00000030,-
 0.00000260,-0.00001307,-0.00001190,0.00031982,-0.00014492,-0.00003520,
 -0.00099263,-0.00372724,0.00229823,-0.40799341,0.19715961,0.03428076,0
 .00014171,0.00003697,-0.00002102,-0.00024486,-0.00007461,0.00000055,-0
 .00064534,0.00088607,0.00020729,-0.02423128,0.01277324,0.00061794,0.43
 005063,-0.00000117,0.00000319,-0.00000272,0.00000578,0.00002082,-0.000
 02871,0.00000030,0.00000539,-0.00000084,0.00000462,-0.00000206,0.00000
 726,-0.00000012,0.00000022,-0.00000004,-0.00000898,-0.00000637,-0.0000
 2070,-0.00002656,-0.00002370,0.00003081,0.00001081,0.00001526,0.000007
 05,-0.00000284,0.00000631,-0.00000428,-0.00000175,0.00001623,-0.000002
 08,0.00021824,-0.00027801,-0.00012511,0.00000076,-0.00002661,-0.000011
 40,-0.00000147,-0.00000589,-0.00000121,0.00000108,-0.00000183,-0.00000
 030,-0.00028588,-0.00011634,0.00004144,-0.00010278,0.00002478,0.000211
 68,-0.00000335,0.00001678,-0.00000102,0.00000003,0.00001078,0.00000822
 ,0.00001270,-0.00017103,-0.00010193,-0.00197670,-0.00247118,0.00184588
 ,0.24257002,-0.15525861,0.00039998,-0.00013670,0.00021272,0.00019492,0
 .00017923,0.00012986,0.00000444,-0.00174896,0.00074164,0.00080253,-0.0
 2893464,0.00867035,0.00430408,-0.20899166,0.14797754,-0.00000088,-0.00
 000005,0.00000060,0.00001651,-0.00000620,0.00002418,0.00000495,-0.0000
 1030,0.00000375,0.00000417,0.00000224,-0.00000190,0.00000025,0.0000002
 5,0.00000024,-0.00000519,-0.00000698,0.00000522,0.00000005,0.00000560,
 -0.00001671,0.00000741,-0.00000180,-0.00000279,0.00000241,-0.00000010,
 0.00000389,-0.00000418,-0.00000224,-0.00000305,-0.00006677,0.00021158,
 0.00022358,0.00000597,0.00000290,0.00001193,0.00000250,0.00000071,0.00
 000099,0.00000082,-0.00000045,0.00000050,0.00021405,0.00009096,-0.0000
 5308,0.00000007,0.00000275,-0.00007407,-0.00000173,0.00000010,-0.00000
 363,-0.00000489,-0.00000266,-0.00000751,0.00028477,-0.00015369,0.00019
 191,0.00109809,0.00236419,-0.00223663,0.00868671,0.01657998,-0.0134867
 6,-0.00032464,0.00023165,-0.00006278,-0.00005427,-0.00008377,-0.000030
 63,0.00141309,-0.00018191,0.00010329,0.02441858,-0.01050409,-0.0047620
 4,-0.03528958,-0.00811109,0.01872905,-0.00000124,0.00000307,-0.0000035
 0,0.00000362,-0.00000361,-0.00000432,-0.00000399,0.00009523,-0.0000062
 9,0.00000294,0.00000021,-0.00000130,-0.00000040,-0.00000120,-0.0000022
 8,-0.00006800,-0.00003832,-0.00003431,-0.00015922,0.00002747,-0.000072
 84,0.00003882,-0.00004838,0.00014927,-0.00001519,-0.00003353,-0.000079
 63,0.00000920,-0.00004124,0.00007492,0.00007717,0.00009095,-0.00008051
 ,-0.00000301,-0.00007453,-0.00003057,0.00001946,-0.00000903,-0.0000258
 1,0.00000014,-0.00000403,-0.00000026,-0.00015935,0.00000185,0.00002944
 ,0.00008990,-0.00001677,-0.00014047,-0.00000365,0.00003759,-0.00000141
 ,0.00000626,0.00003171,0.00002624,0.00140558,-0.00077356,-0.00030431,0
 .00360821,0.02834407,0.01430533,-0.00999494,-0.02998981,-0.00127794,-0
 .00535541,0.00236657,0.00024008,-0.00039411,-0.00000303,0.00016383,0.0
 0282880,-0.00073001,-0.00121403,-0.05803421,-0.02842598,-0.01857611,0.
 00156734,-0.00080152,-0.00057696,0.06336848,0.00000308,-0.00000428,0.0
 0000367,-0.00000134,-0.00002322,0.00003253,0.00000172,-0.00000138,-0.0
 0000379,-0.00001007,-0.00000069,-0.00000506,-0.00000038,-0.00000035,0.
 00000111,0.00002050,0.00005884,0.00003929,-0.00001268,0.00001258,-0.00
 004209,-0.00001442,-0.00001944,-0.00006027,-0.00000148,-0.00000576,0.0
 0001082,0.00000747,-0.00001449,-0.00001250,-0.00007985,0.00017943,0.00
 021888,-0.00000124,0.00006366,0.00002854,-0.00000770,0.00001045,0.0000
 1555,-0.00000131,0.00000412,0.00000058,0.00040666,0.00007919,-0.000073
 30,-0.00001194,-0.00000232,-0.00006120,0.00000583,-0.00003529,0.000001
 72,-0.00000218,-0.00002545,-0.00002097,-0.00033260,0.00077226,0.000062
 66,-0.00219834,-0.01497032,-0.00802128,-0.01347902,-0.01842254,0.00246
 283,0.00243558,-0.00046484,0.00042334,-0.00008388,-0.00025130,-0.00023
 459,0.00027784,0.00117246,0.00036305,-0.02936815,-0.25154419,-0.099503
 63,0.00131115,0.00050734,0.00070788,0.03968997,0.27849377,-0.00000016,
 -0.00000052,0.00000060,0.00001017,-0.00000170,0.00000038,0.00000741,-0
 .00001354,-0.00000103,-0.00000346,-0.00000318,-0.00000275,-0.00000003,
 -0.00000013,0.00000028,0.00000841,0.00000653,0.00000502,-0.00002626,0.
 00001321,0.00001882,-0.00001454,0.00000685,-0.00001135,0.00000276,0.00
 000925,0.00001100,-0.00000090,0.00000045,-0.00001094,-0.00004674,0.000
 04750,-0.00005522,-0.00000146,0.00001331,0.00000087,-0.00000338,0.0000
 0153,0.00000178,-0.00000055,0.00000107,0.,0.00006797,0.00005894,0.0000
 0962,0.00000876,0.00000322,-0.00000182,0.00000172,-0.00000728,0.000001
 88,0.00000101,-0.00000467,-0.00000198,0.00056826,0.00053630,0.00068330
 ,-0.00140406,0.00112916,0.00032124,0.00833850,0.02575595,0.00986182,0.
 00041103,0.00027874,0.00107448,0.00023512,-0.00013136,-0.00006634,-0.0
 0018356,0.00009491,0.00003755,-0.01716064,-0.10458717,-0.10673995,-0.0
 0133421,-0.00021664,0.00072072,0.01378338,0.10254300,0.10455499,0.0000
 0055,0.00000367,-0.00000547,0.00001897,0.00001989,-0.00001312,-0.00001
 350,-0.00006924,0.00004138,0.00004397,0.00001828,0.00001392,0.00000094
 ,0.00000274,0.00000067,0.00000172,-0.00013899,-0.00001187,-0.00007703,
 0.00003496,0.00001444,-0.00006075,0.00005595,0.00005659,0.00002008,0.0
 0003069,0.00002486,-0.00001643,0.00007981,-0.00002752,0.00011595,0.000
 07056,0.00006717,-0.00001338,-0.00010479,-0.00005836,0.00000286,0.0000
 0131,-0.00000811,0.00000037,-0.00000564,-0.00000091,-0.00008371,0.0000
 3218,-0.00001002,-0.00000850,0.00000966,0.00010198,-0.00000442,0.00004
 923,0.00000048,0.00001361,0.00003757,0.00004325,-0.00472685,0.00281287
 ,0.00111469,-0.01071318,0.00302704,-0.02888818,0.00497186,-0.00987954,
 0.03193218,0.00146575,-0.00042805,0.00055973,0.00010655,0.00008537,-0.
 00003401,0.00224659,-0.00046030,-0.00011440,-0.08282944,0.01064253,-0.
 08439059,0.00192989,0.00000652,0.00016032,0.00118660,0.00144501,-0.003
 24833,0.08648240,-0.00000020,-0.00000322,0.00000357,-0.00001678,-0.000
 01398,0.00000367,0.00000526,0.00002402,-0.00001959,-0.00002232,-0.0000
 0914,-0.00001014,-0.00000023,-0.00000108,-0.00000046,0.00000365,0.0000
 6369,0.00001730,0.00005790,-0.00000254,-0.00000006,0.00001843,-0.00002
 962,-0.00003262,-0.00000626,-0.00001152,-0.00000298,0.00000074,-0.0000
 3604,0.00000768,-0.00015012,-0.00003008,0.00003712,0.00001008,0.000054
 93,0.00003299,-0.00000006,-0.00000173,0.00000393,-0.00000023,0.0000028
 6,0.00000066,0.00009043,-0.00001204,0.00000956,0.00002088,-0.00001255,
 -0.00009191,0.00000199,-0.00002662,-0.00000139,-0.00000867,-0.00002076
 ,-0.00002455,0.00275314,-0.00080484,0.00006013,0.00813283,-0.00263411,
 0.01757724,-0.00004620,-0.00406238,0.02496076,-0.00068970,0.00072798,0
 .00065385,-0.00009489,-0.00007762,-0.00007944,-0.00081605,0.00052115,-
 0.00057952,0.00690724,-0.05679755,0.01709346,0.00091845,-0.00002071,-0
 .00112928,-0.00968752,0.00444203,-0.02552397,-0.00737721,0.05876489,0.
 00000127,0.00000192,-0.00000156,-0.00000168,0.00001394,-0.00001767,0.0
 0000187,0.00003449,-0.00000601,-0.00000188,-0.00000083,0.00000260,-0.0
 0000014,-0.00000036,-0.00000056,0.00000558,0.00002737,-0.00002418,0.00
 002883,-0.00008090,-0.00002481,0.00002288,-0.00001291,0.00002391,-0.00
 001037,-0.00001541,-0.00002501,0.00000745,-0.00001494,0.00002703,0.000
 10815,-0.00012664,-0.00006457,-0.00000468,-0.00001305,-0.00001009,0.00
 000154,-0.00000141,-0.00000397,0.00000041,-0.00000062,-0.00000069,-0.0
 0017170,-0.00004453,0.00003285,-0.00003688,0.00001170,0.00011957,-0.00
 000020,0.00000604,0.00000255,0.00000292,0.00000715,0.00000864,0.000993
 84,0.00011696,0.00080830,0.00142414,-0.00049910,0.00134535,0.00724560,
 0.01086632,-0.01863825,-0.00023261,0.00000829,0.00077148,0.00017292,0.
 00008111,-0.00002007,-0.00112266,-0.00036744,0.00118290,-0.08396834,0.
 02106048,-0.27791189,-0.00074468,0.00082322,0.00070489,-0.00634620,0.0
 0108788,-0.01042240,0.08267186,-0.03298912,0.30215574,-0.00001189,-0.0
 0007250,0.00006173,-0.00152541,-0.00143717,-0.00181405,-0.00002548,0.0
 0023523,0.00027678,0.00000220,0.00002252,-0.00009723,0.00001415,-0.000
 01108,0.00000783,-0.00011868,-0.00012500,0.00004897,0.00196385,0.00103
 658,0.00244758,0.00071961,-0.00088104,0.00047727,0.00002456,-0.0001162
 1,-0.00009098,0.00000157,-0.00017268,0.00009109,-0.00051312,-0.0052758
 4,0.00207696,0.00002991,0.00026439,0.00012517,0.00001559,0.00024123,0.
 00011702,0.00000232,0.00001282,0.00000264,-0.00029767,0.00287125,0.003
 38236,-0.17814778,0.20181309,-0.13696484,0.00001290,-0.00014824,0.0000
 0518,-0.00003165,-0.00011890,-0.00009204,0.00006892,0.00006137,-0.0000
 5606,-0.00023812,-0.00026845,0.00037425,0.00010520,0.00001672,-0.00007
 891,0.00003429,-0.00003508,0.00001258,0.00350638,0.00093873,-0.0005996
 2,-0.00120702,-0.00277657,-0.00030839,-0.00005504,0.00007517,0.0001208
 7,-0.00000775,0.00001497,0.00000837,-0.00001981,0.00000179,-0.00001622
 ,-0.00006148,-0.00000459,-0.00004724,0.17575943,0.00001149,-0.00000704
 ,-0.00001761,-0.00175130,-0.00008995,-0.00166612,-0.00011457,0.0002186
 7,0.00015082,0.00007114,0.00000884,0.00000730,0.00004761,0.00000022,-0
 .00001204,-0.00009356,0.00018162,-0.00003081,0.00170561,0.00116939,-0.
 00036783,-0.00002172,-0.00011035,0.00017148,-0.00002381,-0.00000404,-0
 .00008323,-0.00024191,0.00001626,0.00014011,-0.00875631,0.00532046,-0.
 00077687,0.00000528,-0.00009080,-0.00005104,0.00026522,0.00011058,0.00
 006938,0.00000223,-0.00000773,0.00000075,0.00003991,-0.00133027,-0.000
 66674,0.20216122,-0.24235875,0.15222160,-0.00000774,0.00006192,-0.0000
 0217,0.00000109,0.00003658,0.00003057,0.00003224,0.00001186,-0.0000623
 2,-0.00027778,-0.00090397,0.00045566,0.00018395,-0.00004306,-0.0000366
 6,-0.00007399,0.00000815,0.00015748,0.00087326,0.00062982,-0.00129255,
 0.00217399,-0.00155444,-0.00440563,-0.00004310,0.00020838,-0.00012750,
 0.00000277,0.00002311,-0.00000615,-0.00000662,-0.00001028,-0.00000978,
 -0.00000210,0.00000660,0.00002039,-0.19616250,0.23849824,-0.00002205,0
 .00005140,0.00000478,-0.00136357,-0.00170044,-0.00024243,-0.00013694,-
 0.00047581,-0.00017626,-0.00001623,0.00000745,-0.00006891,0.00003060,0
 .00001128,0.00002282,-0.00002726,-0.00079488,0.00030548,0.00026279,-0.
 00242911,-0.00352976,-0.00009566,0.00109658,-0.00041251,0.00014045,-0.
 00000160,0.00025618,-0.00009514,0.00012903,-0.00003307,-0.02591013,0.0
 3063593,-0.03755732,-0.00000056,0.00037002,0.00015169,0.00016723,0.000
 58384,0.00014772,-0.00000017,0.00001900,0.00000340,0.00217485,0.001620
 15,0.00354876,-0.10283591,0.11505127,-0.12465109,0.00002282,-0.0002005
 5,0.00000693,-0.00002730,-0.00017457,-0.00011725,-0.00047207,-0.000336
 97,0.00037376,0.00249529,0.00211774,-0.00111873,-0.00060160,0.00005874
 ,0.00016656,-0.00010255,-0.00016099,-0.00002805,-0.00098618,-0.0011277
 3,-0.00144343,-0.00358058,-0.00004682,0.00765712,0.00042319,-0.0004975
 0,0.00010373,0.00001384,-0.00005343,0.00001686,0.00000657,0.00003534,0
 .00000945,0.00000736,0.00002310,-0.00001408,0.13052893,-0.14381049,0.1
 5661765\\0.00000273,-0.00000520,-0.00000361,0.00000055,-0.00000252,0.0
 0000232,0.00000172,-0.00000345,-0.00000317,0.00000364,-0.00000411,-0.0
 0000019,-0.00000021,-0.00000368,-0.00000612,-0.00000102,-0.00000026,-0
 .00000203,-0.00000033,-0.00000110,-0.00000055,0.00000064,-0.00000233,-
 0.00000164,-0.00000012,-0.00000269,-0.00000459,-0.00000186,-0.00000080
 ,-0.00000459,-0.00001431,-0.00003647,-0.00001480,-0.00000344,-0.000000
 02,-0.00000545,-0.00000283,0.00000170,-0.00000201,-0.00000454,-0.00000
 036,-0.00000829,0.00004631,0.00003111,0.00000501,-0.00000342,0.0000003
 4,0.00000324,-0.00000344,-0.00000101,-0.00000751,-0.00000497,0.0000018
 2,-0.00000548,0.00000212,-0.00000049,0.00000247,-0.00000170,-0.0000007
 7,0.00000055,0.00000199,0.00000154,0.00000577,-0.00000049,0.00000143,0
 .00000276,-0.00002383,0.00000951,0.00000910,0.00000092,0.00000262,0.00
 000965,0.00000152,0.00000114,0.00000627,0.00000242,0.00000237,0.000007
 54,0.00000247,0.00000122,0.00000741,0.00000085,0.00000359,0.00000657,-
 0.00000138,0.00000688,0.00000135\\\@


 REALITY IS FOR PEOPLE WHO CAN'T FACE SCIENCE FICTION.
 Job cpu time:       0 days  1 hours 42 minutes 49.8 seconds.
 Elapsed time:       0 days  0 hours  2 minutes 53.1 seconds.
 File lengths (MBytes):  RWF=    482 Int=      0 D2E=      0 Chk=     26 Scr=      1
 Normal termination of Gaussian 16 at Fri Aug  9 18:40:35 2019.
