 Entering Gaussian System, Link 0=g16
 Initial command:
 /nopt/nrel/apps/gaussian/g16B/g16/l1.exe "/dev/shm/Gau-187743.inp" -scrdir="/dev/shm/"
 Default is to use a total of  36 processors:
                               36 via shared-memory
                                1 via Linda
 Entering Link 1 = /nopt/nrel/apps/gaussian/g16B/g16/l1.exe PID=    187744.
  
 Copyright (c) 1988-2017, Gaussian, Inc.  All Rights Reserved.
  
 This is part of the Gaussian(R) 16 program.  It is based on
 the Gaussian(R) 09 system (copyright 2009, Gaussian, Inc.),
 the Gaussian(R) 03 system (copyright 2003, Gaussian, Inc.),
 the Gaussian(R) 98 system (copyright 1998, Gaussian, Inc.),
 the Gaussian(R) 94 system (copyright 1995, Gaussian, Inc.),
 the Gaussian 92(TM) system (copyright 1992, Gaussian, Inc.),
 the Gaussian 90(TM) system (copyright 1990, Gaussian, Inc.),
 the Gaussian 88(TM) system (copyright 1988, Gaussian, Inc.),
 the Gaussian 86(TM) system (copyright 1986, Carnegie Mellon
 University), and the Gaussian 82(TM) system (copyright 1983,
 Carnegie Mellon University). Gaussian is a federally registered
 trademark of Gaussian, Inc.
  
 This software contains proprietary and confidential information,
 including trade secrets, belonging to Gaussian, Inc.
  
 This software is provided under written license and may be
 used, copied, transmitted, or stored only in accord with that
 written license.
  
 The following legend is applicable only to US Government
 contracts under FAR:
  
                    RESTRICTED RIGHTS LEGEND
  
 Use, reproduction and disclosure by the US Government is
 subject to restrictions as set forth in subparagraphs (a)
 and (c) of the Commercial Computer Software - Restricted
 Rights clause in FAR 52.227-19.
  
 Gaussian, Inc.
 340 Quinnipiac St., Bldg. 40, Wallingford CT 06492
  
  
 ---------------------------------------------------------------
 Warning -- This program may not be used in any manner that
 competes with the business of Gaussian, Inc. or will provide
 assistance to any competitor of Gaussian, Inc.  The licensee
 of this program is prohibited from giving any competitor of
 Gaussian, Inc. access to this program.  By using this program,
 the user acknowledges that Gaussian, Inc. is engaged in the
 business of creating and licensing software in the field of
 computational chemistry and represents and warrants to the
 licensee that it is not a competitor of Gaussian, Inc. and that
 it will not use this program in any manner prohibited above.
 ---------------------------------------------------------------
  

 Cite this work as:
 Gaussian 16, Revision B.01,
 M. J. Frisch, G. W. Trucks, H. B. Schlegel, G. E. Scuseria, 
 M. A. Robb, J. R. Cheeseman, G. Scalmani, V. Barone, 
 G. A. Petersson, H. Nakatsuji, X. Li, M. Caricato, A. V. Marenich, 
 J. Bloino, B. G. Janesko, R. Gomperts, B. Mennucci, H. P. Hratchian, 
 J. V. Ortiz, A. F. Izmaylov, J. L. Sonnenberg, D. Williams-Young, 
 F. Ding, F. Lipparini, F. Egidi, J. Goings, B. Peng, A. Petrone, 
 T. Henderson, D. Ranasinghe, V. G. Zakrzewski, J. Gao, N. Rega, 
 G. Zheng, W. Liang, M. Hada, M. Ehara, K. Toyota, R. Fukuda, 
 J. Hasegawa, M. Ishida, T. Nakajima, Y. Honda, O. Kitao, H. Nakai, 
 T. Vreven, K. Throssell, J. A. Montgomery, Jr., J. E. Peralta, 
 F. Ogliaro, M. J. Bearpark, J. J. Heyd, E. N. Brothers, K. N. Kudin, 
 V. N. Staroverov, T. A. Keith, R. Kobayashi, J. Normand, 
 K. Raghavachari, A. P. Rendell, J. C. Burant, S. S. Iyengar, 
 J. Tomasi, M. Cossi, J. M. Millam, M. Klene, C. Adamo, R. Cammi, 
 J. W. Ochterski, R. L. Martin, K. Morokuma, O. Farkas, 
 J. B. Foresman, and D. J. Fox, Gaussian, Inc., Wallingford CT, 2016.
 
 ******************************************
 Gaussian 16:  ES64L-G16RevB.01 20-Dec-2017
                10-Aug-2019 
 ******************************************
 %RWF=/dev/shm/,5GB,/tmp/scratch/1142344/,-1
 %NoSave
 %OldChk=ipaegh1dts_t_ircr.chk
 %Chk=/dev/shm/ipaegh1dts_t_ircr_opt.chk
 Copying data from "ipaegh1dts_t_ircr.chk" to current chk file "/dev/shm/ipaegh1dts_t_ircr_opt.chk"
 IOpt=  2 FromEx=T IUOpen= 4 IOptOp= 5 NList=   0 IFRang= 0 IUIn= 4 IUOut= 2.
 Default route: CacheSize=180224 MaxDisk=256GB
 ----------------------------------------------------------------------
 # m062x/Def2TZVP nosymm scf=xqc opt freq=NoRaman CPHF=Grid=Fine SCRF=(
 Solvent=1,2-EthaneDiol,Read) guess=read geom=allcheck
 ----------------------------------------------------------------------
 1/4=180224,18=20,19=15,26=3,29=7,38=1,40=2/1,3;
 2/4=180224,9=110,12=2,15=1,40=1/2;
 3/4=180224,5=44,7=101,11=2,14=-4,25=1,30=1,70=2203,71=1,72=30,74=-55,116=-2/1,2,3;
 4/4=180224,5=1/1;
 5/4=180224,5=2,8=3,13=1,38=6,53=30/2,8;
 6/4=180224,7=2,8=2,9=2,10=2,28=1/1;
 7/4=180224,30=1/1,2,3,16;
 1/4=180224,18=20,19=15,26=3/3(2);
 2/4=180224,9=110,15=1/2;
 99/4=180224/99;
 2/4=180224,9=110,15=1/2;
 3/4=180224,5=44,7=101,11=2,14=-2,25=1,30=1,70=2205,71=1,72=30,74=-55/1,2,3;
 4/4=180224,5=5,16=3,69=1/1;
 5/4=180224,5=2,8=3,13=1,38=5,53=30/2,8;
 7/4=180224,30=1/1,2,3,16;
 1/4=180224,18=20,19=15,26=3/3(-5);
 2/4=180224,9=110,15=1/2;
 6/4=180224,7=2,8=2,9=2,10=2,19=2,28=1/1;
 99/4=180224,9=1/99;
 Structure from the checkpoint file:  "/dev/shm/ipaegh1dts_t_ircr_opt.chk"
 ---------------------------------------------------
 Last conformation from file complete/ipaegh1dts.log
 ---------------------------------------------------
 Charge =  1 Multiplicity = 1
 No Z-Matrix found in chk file; cartesian coordinates used.
  H                                                -2.045995173027      0.456035105556     -2.985286016876
  H                                                -1.514142663458     -3.335588074790      0.987092530578
  C                                                -1.657572232468      0.542663540248     -1.980312802855
  H                                                -1.382935002030     -1.570261710603     -1.746048205521
  H                                                -1.835909440351      2.680986577109     -1.922905923433
  C                                                -0.665328592845      0.760530055460      0.612043406526
  C                                                -0.784452670414     -0.482489822269      0.009515730901
  C                                                -1.282160100814     -0.596021772769     -1.286690064129
  C                                                -1.541093093260      1.790923167440     -1.385132417812
  C                                                -1.046430719583      1.897738286859     -0.089983587834
  C                                                -0.373434961520     -1.721314894835      0.756771781229
  C                                                -0.906237574547      3.214532539665      0.593197212833
  H                                                -0.284622373559      0.858461184405      1.619203350128
  H                                                -1.178079836451      5.058039501668      0.336269848558
  O                                                -1.013269508677     -2.898188364454      0.285129223735
  O                                                -0.387472105711     -1.532478771725      2.081595764179
  O                                                -1.296324162271      4.238729490534     -0.168370873422
  O                                                -0.486070436661      3.350088225728      1.713145069656
  H                                                 1.511534919395     -1.316401140375     -1.436528294312
  C                                                 1.917881421682     -1.471588346734     -0.439559128468
  O                                                 4.088093802268     -1.499253700605     -1.237547341022
  H                                                 2.030666235746     -0.525348334244      0.082536112803
  H                                                 0.647817927293     -3.085853057620     -0.064231181532
  O                                                 0.969805050269     -2.244046262304      0.342273659236
  C                                                 3.201998777461     -2.265257678252     -0.456856290197
  H                                                 4.931582294085     -1.959206200409     -1.293619727035
  H                                                 3.022889239190     -3.250520803650     -0.898316015033
  H                                                 3.563873849642     -2.397956120562      0.565531015766
  H                                                 0.130438110223     -2.206166128550      2.548953879027
 Recover connectivity data from disk.

 GradGradGradGradGradGradGradGradGradGradGradGradGradGradGradGradGradGrad
 Berny optimization.
 Initialization pass.
                           ----------------------------
                           !    Initial Parameters    !
                           ! (Angstroms and Degrees)  !
 --------------------------                            --------------------------
 ! Name  Definition              Value          Derivative Info.                !
 --------------------------------------------------------------------------------
 ! R1    R(1,3)                  1.0809         estimate D2E/DX2                !
 ! R2    R(2,15)                 0.9669         estimate D2E/DX2                !
 ! R3    R(3,8)                  1.3852         estimate D2E/DX2                !
 ! R4    R(3,9)                  1.3878         estimate D2E/DX2                !
 ! R5    R(4,8)                  1.0818         estimate D2E/DX2                !
 ! R6    R(5,9)                  1.0809         estimate D2E/DX2                !
 ! R7    R(6,7)                  1.3865         estimate D2E/DX2                !
 ! R8    R(6,10)                 1.3897         estimate D2E/DX2                !
 ! R9    R(6,13)                 1.0812         estimate D2E/DX2                !
 ! R10   R(7,8)                  1.3931         estimate D2E/DX2                !
 ! R11   R(7,11)                 1.504          estimate D2E/DX2                !
 ! R12   R(9,10)                 1.3905         estimate D2E/DX2                !
 ! R13   R(10,12)                1.4901         estimate D2E/DX2                !
 ! R14   R(11,15)                1.4202         estimate D2E/DX2                !
 ! R15   R(11,16)                1.3383         estimate D2E/DX2                !
 ! R16   R(11,24)                1.4998         estimate D2E/DX2                !
 ! R17   R(12,17)                1.3346         estimate D2E/DX2                !
 ! R18   R(12,18)                1.2038         estimate D2E/DX2                !
 ! R19   R(14,17)                0.9695         estimate D2E/DX2                !
 ! R20   R(15,23)                1.7078         estimate D2E/DX2                !
 ! R21   R(16,29)                0.9698         estimate D2E/DX2                !
 ! R22   R(19,20)                1.0877         estimate D2E/DX2                !
 ! R23   R(20,22)                1.0866         estimate D2E/DX2                !
 ! R24   R(20,24)                1.4515         estimate D2E/DX2                !
 ! R25   R(20,25)                1.5097         estimate D2E/DX2                !
 ! R26   R(21,25)                1.4076         estimate D2E/DX2                !
 ! R27   R(21,26)                0.9624         estimate D2E/DX2                !
 ! R28   R(23,24)                0.9887         estimate D2E/DX2                !
 ! R29   R(25,27)                1.0944         estimate D2E/DX2                !
 ! R30   R(25,28)                1.0926         estimate D2E/DX2                !
 ! A1    A(1,3,8)              119.8076         estimate D2E/DX2                !
 ! A2    A(1,3,9)              120.0656         estimate D2E/DX2                !
 ! A3    A(8,3,9)              120.1262         estimate D2E/DX2                !
 ! A4    A(7,6,10)             119.3761         estimate D2E/DX2                !
 ! A5    A(7,6,13)             121.0839         estimate D2E/DX2                !
 ! A6    A(10,6,13)            119.5396         estimate D2E/DX2                !
 ! A7    A(6,7,8)              120.5376         estimate D2E/DX2                !
 ! A8    A(6,7,11)             119.938          estimate D2E/DX2                !
 ! A9    A(8,7,11)             119.5244         estimate D2E/DX2                !
 ! A10   A(3,8,4)              120.1619         estimate D2E/DX2                !
 ! A11   A(3,8,7)              119.7196         estimate D2E/DX2                !
 ! A12   A(4,8,7)              120.1163         estimate D2E/DX2                !
 ! A13   A(3,9,5)              120.2912         estimate D2E/DX2                !
 ! A14   A(3,9,10)             119.8949         estimate D2E/DX2                !
 ! A15   A(5,9,10)             119.8137         estimate D2E/DX2                !
 ! A16   A(6,10,9)             120.3453         estimate D2E/DX2                !
 ! A17   A(6,10,12)            117.7574         estimate D2E/DX2                !
 ! A18   A(9,10,12)            121.8973         estimate D2E/DX2                !
 ! A19   A(7,11,15)            113.2318         estimate D2E/DX2                !
 ! A20   A(7,11,16)            111.8857         estimate D2E/DX2                !
 ! A21   A(7,11,24)            113.2367         estimate D2E/DX2                !
 ! A22   A(15,11,16)           116.1656         estimate D2E/DX2                !
 ! A23   A(15,11,24)            91.312          estimate D2E/DX2                !
 ! A24   A(16,11,24)           109.4002         estimate D2E/DX2                !
 ! A25   A(10,12,17)           112.8953         estimate D2E/DX2                !
 ! A26   A(10,12,18)           123.9789         estimate D2E/DX2                !
 ! A27   A(17,12,18)           123.1258         estimate D2E/DX2                !
 ! A28   A(2,15,11)            111.5398         estimate D2E/DX2                !
 ! A29   A(2,15,23)            127.0599         estimate D2E/DX2                !
 ! A30   A(11,15,23)            73.7865         estimate D2E/DX2                !
 ! A31   A(11,16,29)           111.9281         estimate D2E/DX2                !
 ! A32   A(12,17,14)           108.4131         estimate D2E/DX2                !
 ! A33   A(19,20,22)           110.7893         estimate D2E/DX2                !
 ! A34   A(19,20,24)           109.003          estimate D2E/DX2                !
 ! A35   A(19,20,25)           112.4737         estimate D2E/DX2                !
 ! A36   A(22,20,24)           105.809          estimate D2E/DX2                !
 ! A37   A(22,20,25)           112.0261         estimate D2E/DX2                !
 ! A38   A(24,20,25)           106.3781         estimate D2E/DX2                !
 ! A39   A(25,21,26)           108.9027         estimate D2E/DX2                !
 ! A40   A(15,23,24)            97.9952         estimate D2E/DX2                !
 ! A41   A(11,24,20)           123.256          estimate D2E/DX2                !
 ! A42   A(11,24,23)            96.8176         estimate D2E/DX2                !
 ! A43   A(20,24,23)           116.3827         estimate D2E/DX2                !
 ! A44   A(20,25,21)           104.8156         estimate D2E/DX2                !
 ! A45   A(20,25,27)           109.798          estimate D2E/DX2                !
 ! A46   A(20,25,28)           109.5626         estimate D2E/DX2                !
 ! A47   A(21,25,27)           111.6673         estimate D2E/DX2                !
 ! A48   A(21,25,28)           112.121          estimate D2E/DX2                !
 ! A49   A(27,25,28)           108.803          estimate D2E/DX2                !
 ! D1    D(1,3,8,4)             -0.3937         estimate D2E/DX2                !
 ! D2    D(1,3,8,7)           -179.8632         estimate D2E/DX2                !
 ! D3    D(9,3,8,4)            179.3245         estimate D2E/DX2                !
 ! D4    D(9,3,8,7)             -0.145          estimate D2E/DX2                !
 ! D5    D(1,3,9,5)             -0.1066         estimate D2E/DX2                !
 ! D6    D(1,3,9,10)           179.7194         estimate D2E/DX2                !
 ! D7    D(8,3,9,5)           -179.8241         estimate D2E/DX2                !
 ! D8    D(8,3,9,10)             0.002          estimate D2E/DX2                !
 ! D9    D(10,6,7,8)            -0.0651         estimate D2E/DX2                !
 ! D10   D(10,6,7,11)          179.8896         estimate D2E/DX2                !
 ! D11   D(13,6,7,8)           179.7074         estimate D2E/DX2                !
 ! D12   D(13,6,7,11)           -0.3379         estimate D2E/DX2                !
 ! D13   D(7,6,10,9)            -0.0794         estimate D2E/DX2                !
 ! D14   D(7,6,10,12)          179.8566         estimate D2E/DX2                !
 ! D15   D(13,6,10,9)         -179.8554         estimate D2E/DX2                !
 ! D16   D(13,6,10,12)           0.0806         estimate D2E/DX2                !
 ! D17   D(6,7,8,3)              0.1774         estimate D2E/DX2                !
 ! D18   D(6,7,8,4)           -179.2923         estimate D2E/DX2                !
 ! D19   D(11,7,8,3)          -179.7775         estimate D2E/DX2                !
 ! D20   D(11,7,8,4)             0.7527         estimate D2E/DX2                !
 ! D21   D(6,7,11,15)          156.2957         estimate D2E/DX2                !
 ! D22   D(6,7,11,16)           22.6985         estimate D2E/DX2                !
 ! D23   D(6,7,11,24)         -101.4986         estimate D2E/DX2                !
 ! D24   D(8,7,11,15)          -23.7491         estimate D2E/DX2                !
 ! D25   D(8,7,11,16)         -157.3463         estimate D2E/DX2                !
 ! D26   D(8,7,11,24)           78.4566         estimate D2E/DX2                !
 ! D27   D(3,9,10,6)             0.1113         estimate D2E/DX2                !
 ! D28   D(3,9,10,12)         -179.822          estimate D2E/DX2                !
 ! D29   D(5,9,10,6)           179.9381         estimate D2E/DX2                !
 ! D30   D(5,9,10,12)            0.0048         estimate D2E/DX2                !
 ! D31   D(6,10,12,17)         179.8529         estimate D2E/DX2                !
 ! D32   D(6,10,12,18)          -0.1183         estimate D2E/DX2                !
 ! D33   D(9,10,12,17)          -0.2122         estimate D2E/DX2                !
 ! D34   D(9,10,12,18)         179.8166         estimate D2E/DX2                !
 ! D35   D(7,11,15,2)         -121.5248         estimate D2E/DX2                !
 ! D36   D(7,11,15,23)         114.4223         estimate D2E/DX2                !
 ! D37   D(16,11,15,2)           9.9939         estimate D2E/DX2                !
 ! D38   D(16,11,15,23)       -114.059          estimate D2E/DX2                !
 ! D39   D(24,11,15,2)         122.4168         estimate D2E/DX2                !
 ! D40   D(24,11,15,23)         -1.636          estimate D2E/DX2                !
 ! D41   D(7,11,16,29)        -161.9353         estimate D2E/DX2                !
 ! D42   D(15,11,16,29)         65.9212         estimate D2E/DX2                !
 ! D43   D(24,11,16,29)        -35.6197         estimate D2E/DX2                !
 ! D44   D(7,11,24,20)          14.5279         estimate D2E/DX2                !
 ! D45   D(7,11,24,23)        -113.3206         estimate D2E/DX2                !
 ! D46   D(15,11,24,20)        130.582          estimate D2E/DX2                !
 ! D47   D(15,11,24,23)          2.7334         estimate D2E/DX2                !
 ! D48   D(16,11,24,20)       -111.0131         estimate D2E/DX2                !
 ! D49   D(16,11,24,23)        121.1384         estimate D2E/DX2                !
 ! D50   D(10,12,17,14)       -179.9826         estimate D2E/DX2                !
 ! D51   D(18,12,17,14)         -0.0111         estimate D2E/DX2                !
 ! D52   D(2,15,23,24)        -102.5369         estimate D2E/DX2                !
 ! D53   D(11,15,23,24)          2.5059         estimate D2E/DX2                !
 ! D54   D(19,20,24,11)        -66.9508         estimate D2E/DX2                !
 ! D55   D(19,20,24,23)         51.9795         estimate D2E/DX2                !
 ! D56   D(22,20,24,11)         52.2359         estimate D2E/DX2                !
 ! D57   D(22,20,24,23)        171.1662         estimate D2E/DX2                !
 ! D58   D(25,20,24,11)        171.5419         estimate D2E/DX2                !
 ! D59   D(25,20,24,23)        -69.5278         estimate D2E/DX2                !
 ! D60   D(19,20,25,21)         59.8595         estimate D2E/DX2                !
 ! D61   D(19,20,25,27)        -60.2148         estimate D2E/DX2                !
 ! D62   D(19,20,25,28)       -179.6519         estimate D2E/DX2                !
 ! D63   D(22,20,25,21)        -65.7107         estimate D2E/DX2                !
 ! D64   D(22,20,25,27)        174.215          estimate D2E/DX2                !
 ! D65   D(22,20,25,28)         54.7779         estimate D2E/DX2                !
 ! D66   D(24,20,25,21)        179.1254         estimate D2E/DX2                !
 ! D67   D(24,20,25,27)         59.0511         estimate D2E/DX2                !
 ! D68   D(24,20,25,28)        -60.386          estimate D2E/DX2                !
 ! D69   D(26,21,25,20)       -179.5457         estimate D2E/DX2                !
 ! D70   D(26,21,25,27)        -60.7248         estimate D2E/DX2                !
 ! D71   D(26,21,25,28)         61.6782         estimate D2E/DX2                !
 ! D72   D(15,23,24,11)         -2.2946         estimate D2E/DX2                !
 ! D73   D(15,23,24,20)       -134.8107         estimate D2E/DX2                !
 --------------------------------------------------------------------------------
 Trust Radius=3.00D-01 FncErr=1.00D-07 GrdErr=1.00D-06 EigMax=2.50D+02 EigMin=1.00D-04
 Number of steps in this run=    162 maximum allowed number of steps=    174.
 GradGradGradGradGradGradGradGradGradGradGradGradGradGradGradGradGradGrad

                          Input orientation:                          
 ---------------------------------------------------------------------
 Center     Atomic      Atomic             Coordinates (Angstroms)
 Number     Number       Type             X           Y           Z
 ---------------------------------------------------------------------
      1          1           0       -2.045995    0.456035   -2.985286
      2          1           0       -1.514143   -3.335588    0.987093
      3          6           0       -1.657572    0.542664   -1.980313
      4          1           0       -1.382935   -1.570262   -1.746048
      5          1           0       -1.835909    2.680987   -1.922906
      6          6           0       -0.665329    0.760530    0.612043
      7          6           0       -0.784453   -0.482490    0.009516
      8          6           0       -1.282160   -0.596022   -1.286690
      9          6           0       -1.541093    1.790923   -1.385132
     10          6           0       -1.046431    1.897738   -0.089984
     11          6           0       -0.373435   -1.721315    0.756772
     12          6           0       -0.906238    3.214533    0.593197
     13          1           0       -0.284622    0.858461    1.619203
     14          1           0       -1.178080    5.058040    0.336270
     15          8           0       -1.013270   -2.898188    0.285129
     16          8           0       -0.387472   -1.532479    2.081596
     17          8           0       -1.296324    4.238729   -0.168371
     18          8           0       -0.486070    3.350088    1.713145
     19          1           0        1.511535   -1.316401   -1.436528
     20          6           0        1.917881   -1.471588   -0.439559
     21          8           0        4.088094   -1.499254   -1.237547
     22          1           0        2.030666   -0.525348    0.082536
     23          1           0        0.647818   -3.085853   -0.064231
     24          8           0        0.969805   -2.244046    0.342274
     25          6           0        3.201999   -2.265258   -0.456856
     26          1           0        4.931582   -1.959206   -1.293620
     27          1           0        3.022889   -3.250521   -0.898316
     28          1           0        3.563874   -2.397956    0.565531
     29          1           0        0.130438   -2.206166    2.548954
 ---------------------------------------------------------------------
                    Distance matrix (angstroms):
                    1          2          3          4          5
     1  H    0.000000
     2  H    5.517161   0.000000
     3  C    1.080901   4.885376   0.000000
     4  H    2.466017   3.256325   2.143539   0.000000
     5  H    2.474509   6.691098   2.146515   4.278969   0.000000
     6  C    3.865196   4.199920   2.784300   3.392366   3.388861
     7  C    3.382478   3.102946   2.402643   2.150217   3.853232
     8  C    2.139041   3.567790   1.385154   1.081808   3.383813
     9  C    2.144142   5.648831   1.387789   3.384204   1.080893
    10  C    3.385323   5.363446   2.404801   3.857824   2.143912
    11  C    4.641261   1.990010   3.777068   2.702964   5.357216
    12  C    4.659817   6.590052   3.785015   5.347295   2.734911
    13  H    4.946282   4.416031   3.865390   4.293006   4.274883
    14  H    5.741468   8.425526   5.097557   6.950712   3.344697
    15  O    4.797182   0.966925   4.169750   2.454735   6.056348
    16  O    5.690183   2.391344   4.734815   3.955153   5.990601
    17  O    4.775541   7.665039   4.132135   6.020045   2.407511
    18  O    5.734471   6.803113   4.784943   6.081137   3.935814
    19  H    4.265701   4.371016   3.714171   2.922021   5.236512
    20  C    5.090066   4.157959   4.383492   3.551343   5.790953
    21  O    6.671191   6.301286   6.142785   5.495068   7.282715
    22  H    5.195557   4.613170   4.358795   4.011015   5.408585
    23  H    5.322984   2.416966   4.706626   3.041296   6.548283
    24  O    5.240052   2.788772   4.479204   3.217213   6.104017
    25  C    6.429606   5.047037   5.815563   4.813175   7.210766
    26  H    7.575072   6.974485   7.081515   6.342641   8.229601
    27  H    6.617219   4.913925   6.120922   4.790951   7.735663
    28  H    7.226631   5.181035   6.510919   5.522626   7.819568
    29  H    6.515519   2.533703   5.591717   4.598012   6.910016
                    6          7          8          9         10
     6  C    0.000000
     7  C    1.386481   0.000000
     8  C    2.413691   1.393109   0.000000
     9  C    2.411926   2.772355   2.402966   0.000000
    10  C    1.389721   2.396668   2.776061   1.390507   0.000000
    11  C    2.503139   1.504000   2.503558   4.276330   3.777230
    12  C    2.465871   3.744795   4.265632   2.518629   1.490080
    13  H    1.081156   2.153851   3.399238   3.387364   2.140507
    14  H    4.336767   5.564097   5.883302   3.710668   3.191634
    15  O    3.689737   2.442114   2.800516   5.005611   4.810688
    16  O    2.737641   2.356605   3.608707   4.939033   4.112952
    17  O    3.620093   4.752217   4.962425   2.744481   2.355596
    18  O    2.819640   4.204764   5.020414   3.625382   2.382141
    19  H    3.639921   2.838663   2.888967   4.356219   4.322854
    20  C    3.572281   2.912489   3.424108   4.847947   4.501301
    21  O    5.578766   5.131343   5.445904   6.521870   6.262571
    22  H    3.033521   2.816392   3.585330   4.502958   3.920413
    23  H    4.120238   2.972261   3.379124   5.506274   5.263775
    24  O    3.431314   2.508232   3.231231   5.056631   4.626709
    25  C    5.025352   4.391760   4.856197   6.309613   5.959386
    26  H    6.507990   6.045817   6.361518   7.481134   7.215359
    27  H    5.654438   4.793955   5.072539   6.817850   6.611909
    28  H    5.278669   4.783943   5.491970   6.885672   6.335424
    29  H    3.631274   3.202629   4.393195   5.852160   5.019068
                   11         12         13         14         15
    11  C    0.000000
    12  C    4.967215   0.000000
    13  H    2.721566   2.643892   0.000000
    14  H    6.839877   1.881071   4.481143   0.000000
    15  O    1.420164   6.121415   4.052542   7.958099   0.000000
    16  O    1.338288   5.001856   2.437412   6.863392   2.341811
    17  O    6.101618   1.334591   3.955398   0.969491   7.156911
    18  O    5.162022   1.203827   2.501522   2.300383   6.431029
    19  H    2.920211   5.522207   4.158570   7.142152   3.441045
    20  C    2.596864   5.567941   3.810336   7.267938   3.339462
    21  O    4.892020   7.107373   5.730662   8.556143   5.504495
    22  H    2.768507   4.782561   3.104325   6.444738   3.864836
    23  H    1.891816   6.522435   4.388737   8.355674   1.707771
    24  O    1.499783   5.777420   3.581856   7.611432   2.088960
    25  C    3.814773   6.928804   5.120954   8.569995   4.326619
    26  H    5.692443   8.025447   6.605496   9.445965   6.222170
    27  H    4.075881   7.711003   5.844764   9.391726   4.220813
    28  H    3.999602   7.175144   5.150282   8.839149   4.612927
    29  H    1.923769   5.855225   3.229342   7.705639   2.629042
                   16         17         18         19         20
    16  O    0.000000
    17  O    6.260608   0.000000
    18  O    4.897442   2.233002   0.000000
    19  H    4.003762   6.352304   5.973859   0.000000
    20  C    3.416809   6.558383   5.801869   1.087726   0.000000
    21  O    5.572119   7.941004   7.290108   2.590692   2.312439
    22  H    3.295139   5.816206   4.900190   1.789642   1.086588
    23  H    2.844182   7.578921   6.772452   2.400035   2.088009
    24  O    2.318140   6.886398   5.940808   2.078012   1.451483
    25  C    4.457017   7.913279   7.059948   2.172039   1.509691
    26  H    6.313994   8.858183   8.159669   3.482865   3.170108
    27  H    4.843770   8.676249   7.918369   2.512903   2.143852
    28  H    4.319796   8.258676   7.124541   3.064327   2.139545
    29  H    0.969799   7.138360   5.652488   4.310821   3.558900
                   21         22         23         24         25
    21  O    0.000000
    22  H    2.631372   0.000000
    23  H    3.966039   2.913760   0.000000
    24  O    3.574112   2.036372   0.988717   0.000000
    25  C    1.407624   2.165698   2.711341   2.371022   0.000000
    26  H    0.962379   3.516400   4.596887   4.295691   1.945585
    27  H    2.077661   3.061559   2.522653   2.601386   1.094400
    28  H    2.081721   2.467928   3.061566   2.608203   1.092629
    29  H    5.522713   3.538253   2.805400   2.361230   4.298008
                   26         27         28         29
    26  H    0.000000
    27  H    2.338133   0.000000
    28  H    2.349376   1.778308   0.000000
    29  H    6.154457   4.619591   3.969790   0.000000
 Symmetry turned off by external request.
 Stoichiometry    C10H13O6(1+)
 Framework group  C1[X(C10H13O6)]
 Deg. of freedom    81
 Full point group                 C1      NOp   1
 Rotational constants (GHZ):           0.7071842           0.2944484           0.2685840
 Standard basis: def2TZVP (5D, 7F)
   574 basis functions,   920 primitive gaussians,   654 cartesian basis functions
    60 alpha electrons       60 beta electrons
       nuclear repulsion energy      1146.4217739204 Hartrees.
 NAtoms=   29 NActive=   29 NUniq=   29 SFac= 1.00D+00 NAtFMM=   60 NAOKFM=F Big=F
 Integral buffers will be    131072 words long.
 Raffenetti 2 integral format.
 Two-electron integral symmetry is turned off.
 Using the following non-standard input for PCM:
 PDENS=7.0
 --- end of non-standard input.
 ------------------------------------------------------------------------------
 Polarizable Continuum Model (PCM)
 =================================
 Model                : PCM.
 Atomic radii         : UFF (Universal Force Field).
 Polarization charges : Total charges.
 Charge compensation  : None.
 Solution method      : On-the-fly selection.
 Cavity type          : Scaled VdW (van der Waals Surface) (Alpha=1.100).
 Cavity algorithm     : GePol (No added spheres)
                        Default sphere list used, NSphG=   29.
                        Lebedev-Laikov grids with approx.  7.0 points / Ang**2.
                        Smoothing algorithm: York/Karplus (Gamma=1.0000).
                        Polarization charges: spherical gaussians, with
                                              point-specific exponents (IZeta= 3).
                        Self-potential: point-specific (ISelfS= 7).
                        Self-field    : sphere-specific E.n sum rule (ISelfD= 2).
 1st derivatives      : Analytical E(r).r(x)/FMM algorithm (CHGder, D1EAlg=3).
                        Cavity 1st derivative terms included.
 Solvent              : 1,2-EthaneDiol, Eps=  40.245000 Eps(inf)=   2.050051
 ------------------------------------------------------------------------------
 One-electron integrals computed using PRISM.
   1 Symmetry operations used in ECPInt.
 ECPInt:  NShTT=   26106 NPrTT=   79792 LenC2=   23295 LenP2D=   51805.
 LDataN:  DoStor=T MaxTD1= 6 Len=  172
 NBasis=   574 RedAO= T EigKep=  6.75D-06  NBF=   574
 NBsUse=   574 1.00D-06 EigRej= -1.00D+00 NBFU=   574
 Initial guess from the checkpoint file:  "/dev/shm/ipaegh1dts_t_ircr_opt.chk"
 B after Tr=     0.000000    0.000000    0.000000
         Rot=    1.000000    0.000000    0.000000    0.000000 Ang=   0.00 deg.
 Requested convergence on RMS density matrix=1.00D-08 within  32 cycles.
 Requested convergence on MAX density matrix=1.00D-06.
 Requested convergence on             energy=1.00D-06.
 No special actions if energy rises.
 Inv3:  Mode=1 IEnd=    33346668.
 Iteration    1 A*A^-1 deviation from unit magnitude is 3.11D-15 for     54.
 Iteration    1 A*A^-1 deviation from orthogonality  is 2.00D-15 for   2661    145.
 Iteration    1 A^-1*A deviation from unit magnitude is 3.33D-15 for     54.
 Iteration    1 A^-1*A deviation from orthogonality  is 2.10D-14 for   2694   2661.
 Error on total polarization charges =  0.01070
 SCF Done:  E(RM062X) =  -840.053060758     A.U. after    1 cycles
            NFock=  1  Conv=0.34D-08     -V/T= 2.0044
 QCSCF skips out because SCF is already converged.

 **********************************************************************

            Population analysis using the SCF Density.

 **********************************************************************

 Alpha  occ. eigenvalues --  -19.78656 -19.70623 -19.69636 -19.68783 -19.64925
 Alpha  occ. eigenvalues --  -19.63547 -10.78250 -10.69742 -10.64417 -10.61394
 Alpha  occ. eigenvalues --  -10.59366 -10.58347 -10.58214 -10.58094 -10.57714
 Alpha  occ. eigenvalues --  -10.56979  -1.34726  -1.25762  -1.24929  -1.19696
 Alpha  occ. eigenvalues --   -1.17420  -1.16102  -1.00860  -0.92580  -0.91290
 Alpha  occ. eigenvalues --   -0.89043  -0.82247  -0.78523  -0.77928  -0.73209
 Alpha  occ. eigenvalues --   -0.72856  -0.70494  -0.69134  -0.66565  -0.64544
 Alpha  occ. eigenvalues --   -0.61673  -0.60549  -0.59611  -0.59236  -0.58025
 Alpha  occ. eigenvalues --   -0.56045  -0.55835  -0.55091  -0.54596  -0.52991
 Alpha  occ. eigenvalues --   -0.51952  -0.50459  -0.49982  -0.48124  -0.47369
 Alpha  occ. eigenvalues --   -0.46241  -0.45822  -0.44508  -0.44136  -0.43257
 Alpha  occ. eigenvalues --   -0.41907  -0.38129  -0.37992  -0.34985  -0.34339
 Alpha virt. eigenvalues --   -0.04494  -0.02377   0.03006   0.05128   0.06167
 Alpha virt. eigenvalues --    0.07124   0.07214   0.07971   0.08959   0.09418
 Alpha virt. eigenvalues --    0.11162   0.12183   0.12469   0.13108   0.13433
 Alpha virt. eigenvalues --    0.13817   0.14818   0.15403   0.16487   0.16663
 Alpha virt. eigenvalues --    0.17322   0.19065   0.20561   0.21166   0.21617
 Alpha virt. eigenvalues --    0.22097   0.22542   0.23222   0.23945   0.24631
 Alpha virt. eigenvalues --    0.25558   0.25593   0.26322   0.26950   0.27225
 Alpha virt. eigenvalues --    0.28002   0.28520   0.30164   0.30668   0.31515
 Alpha virt. eigenvalues --    0.32042   0.32636   0.33863   0.34905   0.35773
 Alpha virt. eigenvalues --    0.36239   0.36640   0.37509   0.38544   0.39064
 Alpha virt. eigenvalues --    0.39692   0.39985   0.40659   0.41177   0.41518
 Alpha virt. eigenvalues --    0.42306   0.43342   0.43479   0.43995   0.44648
 Alpha virt. eigenvalues --    0.45374   0.46272   0.46505   0.47283   0.47746
 Alpha virt. eigenvalues --    0.48728   0.49355   0.49687   0.50195   0.50958
 Alpha virt. eigenvalues --    0.51694   0.51867   0.52134   0.52452   0.53572
 Alpha virt. eigenvalues --    0.53865   0.54907   0.54981   0.55524   0.56919
 Alpha virt. eigenvalues --    0.57761   0.59129   0.59986   0.60837   0.61201
 Alpha virt. eigenvalues --    0.62482   0.63724   0.64447   0.65359   0.66554
 Alpha virt. eigenvalues --    0.67553   0.67967   0.68420   0.69758   0.70400
 Alpha virt. eigenvalues --    0.71099   0.71304   0.73085   0.73668   0.74376
 Alpha virt. eigenvalues --    0.75425   0.76573   0.77794   0.78772   0.79252
 Alpha virt. eigenvalues --    0.79442   0.80685   0.81897   0.83100   0.84147
 Alpha virt. eigenvalues --    0.85262   0.86491   0.87116   0.87919   0.88895
 Alpha virt. eigenvalues --    0.89655   0.90171   0.91655   0.92938   0.94497
 Alpha virt. eigenvalues --    0.94615   0.96074   0.96307   0.98749   0.99537
 Alpha virt. eigenvalues --    1.00088   1.01602   1.01892   1.03601   1.04264
 Alpha virt. eigenvalues --    1.06384   1.07440   1.09381   1.10874   1.12885
 Alpha virt. eigenvalues --    1.13983   1.15709   1.16948   1.18565   1.20143
 Alpha virt. eigenvalues --    1.21265   1.23004   1.23648   1.24365   1.25722
 Alpha virt. eigenvalues --    1.27051   1.28812   1.30400   1.31437   1.32970
 Alpha virt. eigenvalues --    1.35399   1.36014   1.36833   1.37626   1.38595
 Alpha virt. eigenvalues --    1.38748   1.40607   1.41833   1.43971   1.45519
 Alpha virt. eigenvalues --    1.46318   1.46537   1.48410   1.50174   1.50503
 Alpha virt. eigenvalues --    1.52553   1.53194   1.54571   1.55419   1.55997
 Alpha virt. eigenvalues --    1.56718   1.57334   1.59197   1.59663   1.61275
 Alpha virt. eigenvalues --    1.62735   1.62955   1.63894   1.64278   1.66087
 Alpha virt. eigenvalues --    1.66358   1.67326   1.67617   1.68776   1.69129
 Alpha virt. eigenvalues --    1.69759   1.71013   1.73348   1.74164   1.75710
 Alpha virt. eigenvalues --    1.78667   1.79007   1.79945   1.80247   1.82087
 Alpha virt. eigenvalues --    1.83586   1.83765   1.84105   1.86400   1.86744
 Alpha virt. eigenvalues --    1.87195   1.88439   1.89528   1.90613   1.91394
 Alpha virt. eigenvalues --    1.93808   1.95746   1.96296   1.97113   1.97663
 Alpha virt. eigenvalues --    1.98374   1.99208   2.00760   2.01954   2.03058
 Alpha virt. eigenvalues --    2.04511   2.05768   2.07236   2.08826   2.09327
 Alpha virt. eigenvalues --    2.10354   2.11233   2.13041   2.13952   2.14978
 Alpha virt. eigenvalues --    2.17142   2.19259   2.20432   2.20827   2.21815
 Alpha virt. eigenvalues --    2.22596   2.24504   2.25262   2.25548   2.26147
 Alpha virt. eigenvalues --    2.27667   2.28818   2.30319   2.30635   2.31035
 Alpha virt. eigenvalues --    2.31878   2.32683   2.34522   2.35686   2.35919
 Alpha virt. eigenvalues --    2.39254   2.40311   2.41199   2.43594   2.45306
 Alpha virt. eigenvalues --    2.46218   2.47257   2.48950   2.49513   2.51882
 Alpha virt. eigenvalues --    2.53507   2.54102   2.55399   2.55867   2.58189
 Alpha virt. eigenvalues --    2.58867   2.61369   2.61512   2.62037   2.62879
 Alpha virt. eigenvalues --    2.63919   2.64404   2.64978   2.66052   2.67483
 Alpha virt. eigenvalues --    2.68531   2.69503   2.70171   2.71829   2.73239
 Alpha virt. eigenvalues --    2.74585   2.75870   2.76675   2.77695   2.79666
 Alpha virt. eigenvalues --    2.79957   2.80800   2.81178   2.82258   2.83599
 Alpha virt. eigenvalues --    2.84042   2.85467   2.85916   2.86537   2.87555
 Alpha virt. eigenvalues --    2.88414   2.88828   2.90220   2.90475   2.93347
 Alpha virt. eigenvalues --    2.93908   2.94664   2.97073   2.97420   2.98929
 Alpha virt. eigenvalues --    2.99946   3.01430   3.02222   3.03435   3.04742
 Alpha virt. eigenvalues --    3.05715   3.06265   3.07100   3.08838   3.10833
 Alpha virt. eigenvalues --    3.11898   3.13085   3.13959   3.14401   3.15727
 Alpha virt. eigenvalues --    3.16492   3.16589   3.18344   3.18896   3.19584
 Alpha virt. eigenvalues --    3.19815   3.22207   3.23266   3.23494   3.24613
 Alpha virt. eigenvalues --    3.26547   3.27405   3.28329   3.28919   3.30666
 Alpha virt. eigenvalues --    3.30689   3.31802   3.32547   3.33707   3.33811
 Alpha virt. eigenvalues --    3.35372   3.36744   3.37212   3.37815   3.39218
 Alpha virt. eigenvalues --    3.39582   3.40903   3.42418   3.43989   3.44885
 Alpha virt. eigenvalues --    3.45010   3.46322   3.47418   3.48598   3.49664
 Alpha virt. eigenvalues --    3.50909   3.52768   3.53708   3.54987   3.56874
 Alpha virt. eigenvalues --    3.59006   3.60422   3.60885   3.62556   3.62916
 Alpha virt. eigenvalues --    3.65255   3.67537   3.69356   3.71271   3.72223
 Alpha virt. eigenvalues --    3.73860   3.75115   3.78860   3.80102   3.82479
 Alpha virt. eigenvalues --    3.83500   3.84870   3.85711   3.87206   3.90195
 Alpha virt. eigenvalues --    3.92640   3.93309   3.96876   3.98173   3.99843
 Alpha virt. eigenvalues --    4.02879   4.03775   4.05235   4.07806   4.10892
 Alpha virt. eigenvalues --    4.13892   4.15629   4.16362   4.17076   4.18773
 Alpha virt. eigenvalues --    4.20432   4.20657   4.23092   4.24450   4.25295
 Alpha virt. eigenvalues --    4.28383   4.30339   4.33422   4.35331   4.38680
 Alpha virt. eigenvalues --    4.44056   4.44697   4.48464   4.53607   4.54668
 Alpha virt. eigenvalues --    4.56481   4.57903   4.60040   4.62623   4.63351
 Alpha virt. eigenvalues --    4.67956   4.73263   4.74748   4.77572   4.81473
 Alpha virt. eigenvalues --    4.86667   4.88117   4.90618   4.93890   5.09068
 Alpha virt. eigenvalues --    5.12282   5.14563   5.14806   5.17510   5.19984
 Alpha virt. eigenvalues --    5.21356   5.24808   5.25595   5.26897   5.31205
 Alpha virt. eigenvalues --    5.32423   5.34390   5.35118   5.36615   5.38340
 Alpha virt. eigenvalues --    5.38544   5.38899   5.42741   5.44395   5.46692
 Alpha virt. eigenvalues --    5.50201   5.50330   5.50933   5.56140   5.57367
 Alpha virt. eigenvalues --    5.65279   5.71706   5.73094   5.73955   5.79824
 Alpha virt. eigenvalues --    5.81824   5.84221   5.85731   5.88420   5.89520
 Alpha virt. eigenvalues --    5.93282   5.95163   5.97168   6.10732   6.14346
 Alpha virt. eigenvalues --    6.18446   6.21999   6.23644   6.27958   6.29598
 Alpha virt. eigenvalues --    6.30221   6.32242   6.38067   6.42322   6.42975
 Alpha virt. eigenvalues --    6.43117   6.49473   6.51719   6.62035   6.63190
 Alpha virt. eigenvalues --    6.66102   6.68649   6.69751   6.70575   6.70832
 Alpha virt. eigenvalues --    6.75362   6.79936   6.81164   6.84555   6.91407
 Alpha virt. eigenvalues --    6.92876   6.93056   6.95503   6.95944   6.99003
 Alpha virt. eigenvalues --    7.08504   7.11447   7.13706   7.15174   7.16031
 Alpha virt. eigenvalues --    7.30055   7.37283   7.37791  22.34805  22.47040
 Alpha virt. eigenvalues --   22.56223  22.74314  22.81622  22.88586  22.95772
 Alpha virt. eigenvalues --   23.13185  23.32902  23.56895  43.91426  43.97425
 Alpha virt. eigenvalues --   44.01504  44.08987  44.12085  44.49633
          Condensed to atoms (all electrons):
               1          2          3          4          5          6
     1  H    0.463881   0.000000   0.424050  -0.002991  -0.003137  -0.000392
     2  H    0.000000   0.307405   0.000164  -0.000222  -0.000000  -0.001124
     3  C    0.424050   0.000164   5.022685  -0.025933  -0.028968  -0.098028
     4  H   -0.002991  -0.000222  -0.025933   0.434944  -0.000115   0.007575
     5  H   -0.003137  -0.000000  -0.028968  -0.000115   0.451633   0.008083
     6  C   -0.000392  -0.001124  -0.098028   0.007575   0.008083   5.521313
     7  C    0.006319   0.008073   0.017114  -0.042022   0.000206   0.078882
     8  C   -0.037951   0.000459   0.425363   0.419029   0.002694  -0.023921
     9  C   -0.034983  -0.000035   0.414930   0.003146   0.410416   0.009778
    10  C    0.006305   0.000166   0.020491  -0.000906  -0.025805   0.202751
    11  C   -0.000722  -0.018244  -0.039180  -0.001948   0.000302   0.075850
    12  C   -0.000049   0.000002   0.004829   0.000154  -0.012575  -0.058656
    13  H    0.000043  -0.000027  -0.001853  -0.000089  -0.000143   0.378802
    14  H   -0.000001  -0.000000   0.000025   0.000000  -0.000191  -0.001268
    15  O   -0.000124   0.308068  -0.008248   0.006435   0.000004   0.005647
    16  O    0.000000   0.001516  -0.000894   0.000347   0.000002   0.031114
    17  O   -0.000082   0.000000  -0.001439   0.000001   0.008136   0.009197
    18  O    0.000005   0.000000  -0.000091   0.000001   0.000092   0.032267
    19  H    0.000067  -0.000081   0.001490  -0.000681   0.000006   0.006703
    20  C   -0.000025  -0.000357  -0.001583  -0.000043   0.000010  -0.002615
    21  O    0.000000  -0.000001   0.000021  -0.000009  -0.000000  -0.000144
    22  H   -0.000007   0.000023  -0.000087   0.000015  -0.000005  -0.024158
    23  H   -0.000003   0.000066   0.000303   0.000016   0.000000  -0.002999
    24  O   -0.000001   0.004065  -0.001519  -0.000262  -0.000001   0.013290
    25  C   -0.000002   0.000030   0.000000  -0.000047  -0.000000  -0.000170
    26  H   -0.000000   0.000000  -0.000001   0.000000   0.000000   0.000005
    27  H   -0.000000   0.000015   0.000006   0.000019  -0.000000  -0.000277
    28  H    0.000000  -0.000014   0.000004  -0.000006   0.000000   0.000431
    29  H   -0.000000   0.000285   0.000055  -0.000003   0.000000  -0.001520
               7          8          9         10         11         12
     1  H    0.006319  -0.037951  -0.034983   0.006305  -0.000722  -0.000049
     2  H    0.008073   0.000459  -0.000035   0.000166  -0.018244   0.000002
     3  C    0.017114   0.425363   0.414930   0.020491  -0.039180   0.004829
     4  H   -0.042022   0.419029   0.003146  -0.000906  -0.001948   0.000154
     5  H    0.000206   0.002694   0.410416  -0.025805   0.000302  -0.012575
     6  C    0.078882  -0.023921   0.009778   0.202751   0.075850  -0.058656
     7  C    6.120266   0.337980  -0.086432   0.069245  -0.149061  -0.003329
     8  C    0.337980   5.138240   0.016964  -0.075921  -0.047093   0.002380
     9  C   -0.086432   0.016964   5.034659   0.386895   0.022469  -0.041936
    10  C    0.069245  -0.075921   0.386895   5.531228  -0.046669   0.229907
    11  C   -0.149061  -0.047093   0.022469  -0.046669   4.963749  -0.005517
    12  C   -0.003329   0.002380  -0.041936   0.229907  -0.005517   4.425873
    13  H   -0.011741   0.007268   0.005158  -0.022455  -0.004534  -0.009083
    14  H    0.000095  -0.000022  -0.002485   0.026648   0.000002  -0.029026
    15  O   -0.084894   0.002639   0.001448  -0.002620   0.290980  -0.000027
    16  O   -0.170331   0.004180   0.000829  -0.008595   0.448818  -0.000274
    17  O   -0.001045   0.000702   0.019916  -0.177656  -0.000027   0.435346
    18  O    0.001089   0.000423   0.003046  -0.168653  -0.000496   0.700517
    19  H    0.014569  -0.023123  -0.000279  -0.000197  -0.004697  -0.000027
    20  C   -0.002529  -0.011613   0.000721  -0.001510  -0.028130   0.000026
    21  O    0.000237  -0.000231  -0.000007   0.000009   0.000277   0.000000
    22  H    0.018349   0.007416  -0.000138   0.000054  -0.003364   0.000201
    23  H    0.012043   0.000947  -0.000059   0.000035  -0.025402   0.000006
    24  O   -0.134118   0.000443   0.000338   0.001132   0.280289  -0.000005
    25  C    0.000142   0.000908  -0.000048   0.000004   0.007723  -0.000001
    26  H   -0.000011   0.000008   0.000000  -0.000000  -0.000028  -0.000000
    27  H    0.000356   0.000477  -0.000000   0.000004  -0.001183   0.000000
    28  H   -0.000936  -0.000358   0.000001  -0.000003   0.001546  -0.000001
    29  H    0.018816  -0.001048  -0.000027   0.000075  -0.020477   0.000007
              13         14         15         16         17         18
     1  H    0.000043  -0.000001  -0.000124   0.000000  -0.000082   0.000005
     2  H   -0.000027  -0.000000   0.308068   0.001516   0.000000   0.000000
     3  C   -0.001853   0.000025  -0.008248  -0.000894  -0.001439  -0.000091
     4  H   -0.000089   0.000000   0.006435   0.000347   0.000001   0.000001
     5  H   -0.000143  -0.000191   0.000004   0.000002   0.008136   0.000092
     6  C    0.378802  -0.001268   0.005647   0.031114   0.009197   0.032267
     7  C   -0.011741   0.000095  -0.084894  -0.170331  -0.001045   0.001089
     8  C    0.007268  -0.000022   0.002639   0.004180   0.000702   0.000423
     9  C    0.005158  -0.002485   0.001448   0.000829   0.019916   0.003046
    10  C   -0.022455   0.026648  -0.002620  -0.008595  -0.177656  -0.168653
    11  C   -0.004534   0.000002   0.290980   0.448818  -0.000027  -0.000496
    12  C   -0.009083  -0.029026  -0.000027  -0.000274   0.435346   0.700517
    13  H    0.424739  -0.000096   0.000401   0.010376   0.000910   0.018668
    14  H   -0.000096   0.333545   0.000000  -0.000000   0.298790   0.003869
    15  O    0.000401   0.000000   8.126828  -0.060322  -0.000000  -0.000000
    16  O    0.010376  -0.000000  -0.060322   7.892650  -0.000000  -0.000004
    17  O    0.000910   0.298790  -0.000000  -0.000000   7.911158  -0.086939
    18  O    0.018668   0.003869  -0.000000  -0.000004  -0.086939   7.868104
    19  H   -0.000060  -0.000000  -0.000024   0.000207  -0.000000   0.000000
    20  C    0.000105  -0.000000   0.003261   0.005590  -0.000000  -0.000004
    21  O   -0.000002  -0.000000   0.000004   0.000002   0.000000  -0.000000
    22  H    0.000489  -0.000000   0.000509  -0.000361   0.000001   0.000009
    23  H   -0.000008  -0.000000   0.033134   0.001407   0.000000   0.000000
    24  O    0.000023   0.000000  -0.135258  -0.050533  -0.000000   0.000000
    25  C   -0.000053  -0.000000   0.000034  -0.000824   0.000000   0.000000
    26  H    0.000000   0.000000  -0.000001  -0.000000   0.000000   0.000000
    27  H    0.000001   0.000000   0.000015  -0.000021  -0.000000  -0.000000
    28  H   -0.000006  -0.000000  -0.000076   0.000141   0.000000  -0.000000
    29  H   -0.000361  -0.000000  -0.002546   0.299952   0.000000   0.000000
              19         20         21         22         23         24
     1  H    0.000067  -0.000025   0.000000  -0.000007  -0.000003  -0.000001
     2  H   -0.000081  -0.000357  -0.000001   0.000023   0.000066   0.004065
     3  C    0.001490  -0.001583   0.000021  -0.000087   0.000303  -0.001519
     4  H   -0.000681  -0.000043  -0.000009   0.000015   0.000016  -0.000262
     5  H    0.000006   0.000010  -0.000000  -0.000005   0.000000  -0.000001
     6  C    0.006703  -0.002615  -0.000144  -0.024158  -0.002999   0.013290
     7  C    0.014569  -0.002529   0.000237   0.018349   0.012043  -0.134118
     8  C   -0.023123  -0.011613  -0.000231   0.007416   0.000947   0.000443
     9  C   -0.000279   0.000721  -0.000007  -0.000138  -0.000059   0.000338
    10  C   -0.000197  -0.001510   0.000009   0.000054   0.000035   0.001132
    11  C   -0.004697  -0.028130   0.000277  -0.003364  -0.025402   0.280289
    12  C   -0.000027   0.000026   0.000000   0.000201   0.000006  -0.000005
    13  H   -0.000060   0.000105  -0.000002   0.000489  -0.000008   0.000023
    14  H   -0.000000  -0.000000  -0.000000  -0.000000  -0.000000   0.000000
    15  O   -0.000024   0.003261   0.000004   0.000509   0.033134  -0.135258
    16  O    0.000207   0.005590   0.000002  -0.000361   0.001407  -0.050533
    17  O   -0.000000  -0.000000   0.000000   0.000001   0.000000  -0.000000
    18  O    0.000000  -0.000004  -0.000000   0.000009   0.000000   0.000000
    19  H    0.497007   0.404012   0.012287  -0.035081  -0.003955  -0.031817
    20  C    0.404012   5.139979  -0.085773   0.384165  -0.020305   0.160448
    21  O    0.012287  -0.085773   8.063809   0.009543   0.000011   0.002629
    22  H   -0.035081   0.384165   0.009543   0.485253   0.004404  -0.020358
    23  H   -0.003955  -0.020305   0.000011   0.004404   0.277764   0.288596
    24  O   -0.031817   0.160448   0.002629  -0.020358   0.288596   7.781479
    25  C   -0.025944   0.236982   0.271213  -0.014848  -0.000401  -0.017073
    26  H   -0.000518   0.014000   0.307732  -0.000466  -0.000042  -0.000302
    27  H   -0.013585  -0.046601  -0.041222   0.008435   0.004597   0.002419
    28  H    0.009404  -0.047735  -0.040228  -0.014213  -0.001280   0.002169
    29  H    0.000153  -0.000764  -0.000000  -0.000161   0.000068  -0.001296
              25         26         27         28         29
     1  H   -0.000002  -0.000000  -0.000000   0.000000  -0.000000
     2  H    0.000030   0.000000   0.000015  -0.000014   0.000285
     3  C    0.000000  -0.000001   0.000006   0.000004   0.000055
     4  H   -0.000047   0.000000   0.000019  -0.000006  -0.000003
     5  H   -0.000000   0.000000  -0.000000   0.000000   0.000000
     6  C   -0.000170   0.000005  -0.000277   0.000431  -0.001520
     7  C    0.000142  -0.000011   0.000356  -0.000936   0.018816
     8  C    0.000908   0.000008   0.000477  -0.000358  -0.001048
     9  C   -0.000048   0.000000  -0.000000   0.000001  -0.000027
    10  C    0.000004  -0.000000   0.000004  -0.000003   0.000075
    11  C    0.007723  -0.000028  -0.001183   0.001546  -0.020477
    12  C   -0.000001  -0.000000   0.000000  -0.000001   0.000007
    13  H   -0.000053   0.000000   0.000001  -0.000006  -0.000361
    14  H   -0.000000   0.000000   0.000000  -0.000000  -0.000000
    15  O    0.000034  -0.000001   0.000015  -0.000076  -0.002546
    16  O   -0.000824  -0.000000  -0.000021   0.000141   0.299952
    17  O    0.000000   0.000000  -0.000000   0.000000   0.000000
    18  O    0.000000   0.000000  -0.000000  -0.000000   0.000000
    19  H   -0.025944  -0.000518  -0.013585   0.009404   0.000153
    20  C    0.236982   0.014000  -0.046601  -0.047735  -0.000764
    21  O    0.271213   0.307732  -0.041222  -0.040228  -0.000000
    22  H   -0.014848  -0.000466   0.008435  -0.014213  -0.000161
    23  H   -0.000401  -0.000042   0.004597  -0.001280   0.000068
    24  O   -0.017073  -0.000302   0.002419   0.002169  -0.001296
    25  C    4.795492  -0.033466   0.437017   0.438734  -0.000061
    26  H   -0.033466   0.362491  -0.004139  -0.003911  -0.000000
    27  H    0.437017  -0.004139   0.549907  -0.049644  -0.000051
    28  H    0.438734  -0.003911  -0.049644   0.548668   0.000220
    29  H   -0.000061  -0.000000  -0.000051   0.000220   0.317618
 Mulliken charges:
               1
     1  H    0.179799
     2  H    0.389768
     3  C   -0.123708
     4  H    0.203596
     5  H    0.189355
     6  C   -0.166418
     7  C   -0.017334
     8  C   -0.147240
     9  C   -0.164287
    10  C    0.056041
    11  C    0.304767
    12  C    0.361256
    13  H    0.203527
    14  H    0.370114
    15  O   -0.485265
    16  O   -0.404971
    17  O   -0.416969
    18  O   -0.371906
    19  H    0.194165
    20  C   -0.099710
    21  O   -0.500161
    22  H    0.194381
    23  H    0.431055
    24  O   -0.144779
    25  C   -0.095341
    26  H    0.358648
    27  H    0.153454
    28  H    0.157094
    29  H    0.391065
 Sum of Mulliken charges =   1.00000
 Mulliken charges with hydrogens summed into heavy atoms:
               1
     3  C    0.056091
     6  C    0.037110
     7  C   -0.017334
     8  C    0.056356
     9  C    0.025069
    10  C    0.056041
    11  C    0.304767
    12  C    0.361256
    15  O   -0.095497
    16  O   -0.013906
    17  O   -0.046855
    18  O   -0.371906
    20  C    0.288836
    21  O   -0.141512
    24  O    0.286276
    25  C    0.215207
 Electronic spatial extent (au):  <R**2>=           4315.7014
 Charge=              1.0000 electrons
 Dipole moment (field-independent basis, Debye):
    X=              2.9274    Y=            -11.6796    Z=             -0.4321  Tot=             12.0486
 Quadrupole moment (field-independent basis, Debye-Ang):
   XX=            -69.1454   YY=            -41.4882   ZZ=            -83.6756
   XY=            -17.9633   XZ=              2.9127   YZ=            -13.1618
 Traceless Quadrupole moment (field-independent basis, Debye-Ang):
   XX=             -4.3757   YY=             23.2815   ZZ=            -18.9059
   XY=            -17.9633   XZ=              2.9127   YZ=            -13.1618
 Octapole moment (field-independent basis, Debye-Ang**2):
  XXX=            100.4626  YYY=            -32.3962  ZZZ=             10.4573  XYY=             11.7694
  XXY=            -69.8889  XXZ=             -5.8504  XZZ=             -7.4222  YZZ=            -44.3386
  YYZ=             16.8977  XYZ=             15.7882
 Hexadecapole moment (field-independent basis, Debye-Ang**3):
 XXXX=          -1190.7473 YYYY=          -1816.5396 ZZZZ=           -702.6033 XXXY=            232.4829
 XXXZ=            -35.7496 YYYX=            326.9849 YYYZ=           -108.8940 ZZZX=            106.1612
 ZZZY=           -137.1163 XXYY=           -515.1855 XXZZ=           -381.6760 YYZZ=           -567.1118
 XXYZ=             29.0269 YYXZ=            -53.0589 ZZXY=            163.7062
 N-N= 1.146421773920D+03 E-N=-4.242003741208D+03  KE= 8.363534717828D+02
   1 Symmetry operations used in ECPInt.
 ECPInt:  NShTT=   26106 NPrTT=   79792 LenC2=   23295 LenP2D=   51805.
 LDataN:  DoStor=T MaxTD1= 7 Len=  274
 D1PCM: PCM CHGder 1st derivatives, ID1Alg=3 FixD1E=F DoIter=F DoCFld=F I1PDM=0.
 Calling FoFJK, ICntrl=      2127 FMM=F ISym2X=0 I1Cent= 0 IOpClX= 0 NMat=1 NMatS=1 NMatT=0.
 -------------------------------------------------------------------
 Center     Atomic                   Forces (Hartrees/Bohr)
 Number     Number              X              Y              Z
 -------------------------------------------------------------------
      1        1          -0.000008690    0.000022878   -0.000010062
      2        1          -0.002259076    0.002577230    0.000927169
      3        6           0.000138206    0.000068879   -0.000178717
      4        1          -0.000118940   -0.000040973    0.000135914
      5        1          -0.000025609    0.000001403    0.000021866
      6        6           0.000831086   -0.001080217    0.000047727
      7        6           0.001224547   -0.002352107   -0.000332590
      8        6           0.000019248    0.000178697    0.000124317
      9        6           0.000003109   -0.000055841   -0.000004559
     10        6           0.000136636   -0.000388265    0.000139972
     11        6          -0.022165485   -0.018786623   -0.004059216
     12        6          -0.000051466   -0.000163944    0.000032894
     13        1          -0.000020281   -0.000037522    0.000031545
     14        1           0.000009080   -0.000006024    0.000007346
     15        8          -0.018497691    0.012835400    0.011208557
     16        8           0.004032287    0.000750473   -0.002269090
     17        8           0.000006146    0.000010265   -0.000005754
     18        8           0.000013986    0.000077962    0.000017672
     19        1           0.000028188    0.000171214   -0.000023145
     20        6           0.005258804    0.003761522   -0.001748818
     21        8           0.000617398   -0.000051048   -0.000287821
     22        1           0.000343364    0.000237353   -0.000087809
     23        1           0.012127946   -0.001099329   -0.002463411
     24        8           0.016963514    0.004339487   -0.000356026
     25        6           0.002703219    0.000336013   -0.000704505
     26        1           0.000098343    0.000121081   -0.000118492
     27        1           0.000430427   -0.000038087   -0.000121121
     28        1           0.000071806    0.000008442   -0.000000993
     29        1          -0.001910102   -0.001398319    0.000077149
 -------------------------------------------------------------------
 Cartesian Forces:  Max     0.022165485 RMS     0.004863202

 GradGradGradGradGradGradGradGradGradGradGradGradGradGradGradGradGradGrad
 Berny optimization.
 FormGI is forming the generalized inverse of G from B-inverse, IUseBI=4.
 Internal  Forces:  Max     0.020653023 RMS     0.003091368
 Search for a local minimum.
 Step number   1 out of a maximum of  162
 All quantities printed in internal units (Hartrees-Bohrs-Radians)
 Mixed Optimization -- RFO/linear search
 Second derivative matrix not updated -- first step.
 ITU=  0
     Eigenvalues ---    0.00632   0.00638   0.00713   0.00897   0.01011
     Eigenvalues ---    0.01443   0.01591   0.01625   0.01819   0.02191
     Eigenvalues ---    0.02212   0.02223   0.02234   0.02237   0.02249
     Eigenvalues ---    0.02261   0.02269   0.02508   0.02557   0.04385
     Eigenvalues ---    0.05065   0.05491   0.05787   0.05863   0.06185
     Eigenvalues ---    0.06488   0.08257   0.08888   0.09042   0.10743
     Eigenvalues ---    0.11006   0.12166   0.12214   0.13398   0.14345
     Eigenvalues ---    0.15999   0.16000   0.16000   0.16000   0.16000
     Eigenvalues ---    0.16000   0.16000   0.18707   0.21952   0.21955
     Eigenvalues ---    0.22000   0.23483   0.23496   0.25000   0.25000
     Eigenvalues ---    0.25000   0.25000   0.28953   0.31382   0.31961
     Eigenvalues ---    0.33441   0.34309   0.34511   0.35077   0.35210
     Eigenvalues ---    0.35777   0.35855   0.35886   0.35887   0.38051
     Eigenvalues ---    0.38096   0.42977   0.43289   0.44380   0.46985
     Eigenvalues ---    0.47305   0.47421   0.47822   0.47953   0.53418
     Eigenvalues ---    0.53481   0.54010   0.54965   0.57590   0.58434
     Eigenvalues ---    1.02923
 RFO step:  Lambda=-9.54997014D-03 EMin= 6.32087766D-03
 Linear search not attempted -- first point.
 Iteration  1 RMS(Cart)=  0.07545948 RMS(Int)=  0.00096761
 Iteration  2 RMS(Cart)=  0.00301629 RMS(Int)=  0.00027152
 Iteration  3 RMS(Cart)=  0.00000173 RMS(Int)=  0.00027152
 Iteration  4 RMS(Cart)=  0.00000000 RMS(Int)=  0.00027152
 Variable       Old X    -DE/DX   Delta X   Delta X   Delta X     New X
                                 (Linear)    (Quad)   (Total)
    R1        2.04261   0.00001   0.00000   0.00004   0.00004   2.04264
    R2        1.82722   0.00068   0.00000   0.00123   0.00123   1.82846
    R3        2.61756  -0.00003   0.00000  -0.00000   0.00000   2.61756
    R4        2.62254  -0.00003   0.00000   0.00003   0.00003   2.62257
    R5        2.04432  -0.00001   0.00000  -0.00002  -0.00002   2.04430
    R6        2.04259  -0.00000   0.00000  -0.00001  -0.00001   2.04258
    R7        2.62007  -0.00126   0.00000  -0.00267  -0.00267   2.61740
    R8        2.62619  -0.00039   0.00000  -0.00085  -0.00085   2.62534
    R9        2.04309   0.00002   0.00000   0.00004   0.00004   2.04313
   R10        2.63259  -0.00022   0.00000  -0.00049  -0.00049   2.63210
   R11        2.84215  -0.00369   0.00000  -0.01122  -0.01122   2.83093
   R12        2.62768   0.00013   0.00000   0.00031   0.00031   2.62799
   R13        2.81584  -0.00006   0.00000  -0.00018  -0.00018   2.81566
   R14        2.68372  -0.01449   0.00000  -0.03448  -0.03427   2.64945
   R15        2.52900  -0.00228   0.00000  -0.00390  -0.00390   2.52510
   R16        2.83418   0.01394   0.00000   0.05324   0.05397   2.88815
   R17        2.52201   0.00001   0.00000   0.00001   0.00001   2.52202
   R18        2.27490   0.00002   0.00000   0.00002   0.00002   2.27493
   R19        1.83207  -0.00000   0.00000  -0.00001  -0.00001   1.83206
   R20        3.22722   0.02065   0.00000   0.20758   0.20683   3.43405
   R21        1.83265  -0.00001   0.00000  -0.00002  -0.00002   1.83263
   R22        2.05550   0.00003   0.00000   0.00009   0.00009   2.05559
   R23        2.05335   0.00020   0.00000   0.00056   0.00056   2.05391
   R24        2.74291   0.01032   0.00000   0.02646   0.02646   2.76937
   R25        2.85290   0.00315   0.00000   0.00975   0.00975   2.86266
   R26        2.66002   0.00071   0.00000   0.00157   0.00157   2.66160
   R27        1.81863   0.00004   0.00000   0.00006   0.00006   1.81870
   R28        1.86840   0.00214   0.00000   0.00615   0.00612   1.87452
   R29        2.06812   0.00001   0.00000   0.00003   0.00003   2.06814
   R30        2.06477   0.00003   0.00000   0.00007   0.00007   2.06484
    A1        2.09104   0.00017   0.00000   0.00057   0.00057   2.09161
    A2        2.09554   0.00013   0.00000   0.00033   0.00033   2.09587
    A3        2.09660  -0.00029   0.00000  -0.00091  -0.00091   2.09569
    A4        2.08351  -0.00025   0.00000  -0.00134  -0.00134   2.08217
    A5        2.11331   0.00009   0.00000   0.00046   0.00046   2.11377
    A6        2.08636   0.00016   0.00000   0.00088   0.00088   2.08724
    A7        2.10378   0.00066   0.00000   0.00237   0.00236   2.10614
    A8        2.09331  -0.00183   0.00000  -0.00695  -0.00696   2.08635
    A9        2.08609   0.00116   0.00000   0.00457   0.00456   2.09065
   A10        2.09722   0.00020   0.00000   0.00096   0.00096   2.09818
   A11        2.08950  -0.00022   0.00000  -0.00085  -0.00085   2.08865
   A12        2.09643   0.00002   0.00000  -0.00011  -0.00011   2.09631
   A13        2.09948   0.00000   0.00000  -0.00015  -0.00015   2.09932
   A14        2.09256   0.00001   0.00000   0.00037   0.00037   2.09293
   A15        2.09114  -0.00001   0.00000  -0.00022  -0.00022   2.09092
   A16        2.10042   0.00009   0.00000   0.00036   0.00036   2.10078
   A17        2.05526  -0.00003   0.00000  -0.00011  -0.00011   2.05515
   A18        2.12751  -0.00006   0.00000  -0.00025  -0.00025   2.12725
   A19        1.97627  -0.00255   0.00000  -0.00602  -0.00567   1.97060
   A20        1.95277   0.00392   0.00000  -0.00208  -0.00284   1.94993
   A21        1.97635  -0.00561   0.00000  -0.03263  -0.03370   1.94266
   A22        2.02747  -0.00275   0.00000  -0.01109  -0.01117   2.01630
   A23        1.59369   0.01006   0.00000   0.08533   0.08611   1.67981
   A24        1.90939  -0.00296   0.00000  -0.02380  -0.02435   1.88504
   A25        1.97040  -0.00006   0.00000  -0.00023  -0.00023   1.97017
   A26        2.16384   0.00012   0.00000   0.00045   0.00045   2.16429
   A27        2.14895  -0.00006   0.00000  -0.00022  -0.00022   2.14873
   A28        1.94674  -0.00087   0.00000  -0.01620  -0.01494   1.93179
   A29        2.21761   0.00193   0.00000   0.02682   0.02538   2.24299
   A30        1.28782  -0.00226   0.00000  -0.05152  -0.05191   1.23591
   A31        1.95351  -0.00019   0.00000  -0.00109  -0.00109   1.95242
   A32        1.89217  -0.00001   0.00000  -0.00006  -0.00006   1.89211
   A33        1.93364   0.00064   0.00000  -0.00385  -0.00391   1.92973
   A34        1.90246  -0.00163   0.00000  -0.00349  -0.00354   1.89892
   A35        1.96304  -0.00099   0.00000  -0.00260  -0.00267   1.96036
   A36        1.84671  -0.00133   0.00000  -0.00354  -0.00349   1.84322
   A37        1.95523  -0.00156   0.00000  -0.00942  -0.00945   1.94578
   A38        1.85665   0.00500   0.00000   0.02416   0.02415   1.88080
   A39        1.90071   0.00035   0.00000   0.00206   0.00206   1.90277
   A40        1.71034   0.00002   0.00000  -0.00500  -0.00559   1.70475
   A41        2.15122   0.00389   0.00000   0.01155   0.01150   2.16272
   A42        1.68979  -0.00775   0.00000  -0.02888  -0.02869   1.66110
   A43        2.03126   0.00520   0.00000   0.03544   0.03517   2.06643
   A44        1.82938   0.00034   0.00000   0.00152   0.00152   1.83090
   A45        1.91634   0.00037   0.00000   0.00328   0.00328   1.91961
   A46        1.91223  -0.00012   0.00000  -0.00029  -0.00029   1.91194
   A47        1.94896  -0.00039   0.00000  -0.00268  -0.00268   1.94628
   A48        1.95688  -0.00013   0.00000  -0.00117  -0.00117   1.95571
   A49        1.89897  -0.00005   0.00000  -0.00045  -0.00045   1.89852
    D1       -0.00687  -0.00001   0.00000  -0.00017  -0.00016  -0.00703
    D2       -3.13920   0.00001   0.00000   0.00046   0.00046  -3.13875
    D3        3.12980  -0.00006   0.00000  -0.00163  -0.00162   3.12818
    D4       -0.00253  -0.00004   0.00000  -0.00101  -0.00100  -0.00353
    D5       -0.00186   0.00000   0.00000   0.00013   0.00013  -0.00173
    D6        3.13670  -0.00000   0.00000   0.00016   0.00017   3.13686
    D7       -3.13852   0.00005   0.00000   0.00160   0.00159  -3.13693
    D8        0.00003   0.00005   0.00000   0.00163   0.00163   0.00167
    D9       -0.00114   0.00007   0.00000   0.00297   0.00297   0.00184
   D10        3.13967  -0.00015   0.00000  -0.00569  -0.00567   3.13400
   D11        3.13649   0.00004   0.00000   0.00205   0.00204   3.13853
   D12       -0.00590  -0.00018   0.00000  -0.00661  -0.00660  -0.01249
   D13       -0.00139  -0.00007   0.00000  -0.00234  -0.00234  -0.00372
   D14        3.13909  -0.00006   0.00000  -0.00221  -0.00221   3.13688
   D15       -3.13907  -0.00004   0.00000  -0.00143  -0.00142  -3.14049
   D16        0.00141  -0.00004   0.00000  -0.00130  -0.00129   0.00011
   D17        0.00310  -0.00002   0.00000  -0.00131  -0.00132   0.00178
   D18       -3.12924  -0.00000   0.00000  -0.00069  -0.00070  -3.12994
   D19       -3.13771   0.00021   0.00000   0.00732   0.00735  -3.13036
   D20        0.01314   0.00022   0.00000   0.00794   0.00797   0.02110
   D21        2.72787  -0.00314   0.00000  -0.01696  -0.01703   2.71084
   D22        0.39616  -0.00051   0.00000   0.00699   0.00708   0.40324
   D23       -1.77148   0.00471   0.00000   0.06584   0.06581  -1.70567
   D24       -0.41450  -0.00336   0.00000  -0.02553  -0.02560  -0.44010
   D25       -2.74621  -0.00073   0.00000  -0.00158  -0.00148  -2.74769
   D26        1.36933   0.00448   0.00000   0.05726   0.05725   1.42658
   D27        0.00194   0.00001   0.00000   0.00005   0.00005   0.00199
   D28       -3.13849   0.00000   0.00000  -0.00008  -0.00008  -3.13857
   D29        3.14051   0.00000   0.00000   0.00009   0.00009   3.14060
   D30        0.00008   0.00000   0.00000  -0.00005  -0.00005   0.00004
   D31        3.13902  -0.00001   0.00000  -0.00049  -0.00049   3.13853
   D32       -0.00207   0.00001   0.00000   0.00024   0.00024  -0.00183
   D33       -0.00370  -0.00001   0.00000  -0.00036  -0.00036  -0.00406
   D34        3.13839   0.00001   0.00000   0.00037   0.00037   3.13876
   D35       -2.12101   0.00023   0.00000   0.01920   0.01980  -2.10121
   D36        1.99705  -0.00130   0.00000   0.00333   0.00351   2.00056
   D37        0.17443   0.00071   0.00000  -0.00135  -0.00113   0.17329
   D38       -1.99070  -0.00082   0.00000  -0.01722  -0.01742  -2.00812
   D39        2.13658   0.00216   0.00000   0.01522   0.01559   2.15217
   D40       -0.02855   0.00063   0.00000  -0.00064  -0.00069  -0.02925
   D41       -2.82630   0.00006   0.00000  -0.02537  -0.02519  -2.85150
   D42        1.15054   0.00254   0.00000  -0.00333  -0.00326   1.14728
   D43       -0.62168  -0.00662   0.00000  -0.08743  -0.08768  -0.70937
   D44        0.25356   0.00088   0.00000   0.00515   0.00563   0.25919
   D45       -1.97782  -0.00164   0.00000  -0.02423  -0.02350  -2.00131
   D46        2.27909   0.00165   0.00000   0.03250   0.03225   2.31133
   D47        0.04771  -0.00088   0.00000   0.00311   0.00312   0.05083
   D48       -1.93754   0.00218   0.00000   0.05057   0.05016  -1.88738
   D49        2.11426  -0.00034   0.00000   0.02118   0.02104   2.13530
   D50       -3.14129   0.00001   0.00000   0.00045   0.00045  -3.14084
   D51       -0.00019  -0.00001   0.00000  -0.00027  -0.00027  -0.00047
   D52       -1.78961   0.00206   0.00000   0.06081   0.06163  -1.72798
   D53        0.04374  -0.00081   0.00000   0.00155   0.00148   0.04521
   D54       -1.16851   0.00178   0.00000  -0.00450  -0.00474  -1.17325
   D55        0.90721  -0.00102   0.00000  -0.00123  -0.00098   0.90623
   D56        0.91169   0.00096   0.00000  -0.01279  -0.01305   0.89864
   D57        2.98741  -0.00184   0.00000  -0.00952  -0.00929   2.97813
   D58        2.99397   0.00095   0.00000  -0.01357  -0.01381   2.98016
   D59       -1.21349  -0.00185   0.00000  -0.01030  -0.01005  -1.22354
   D60        1.04475  -0.00061   0.00000  -0.00747  -0.00746   1.03728
   D61       -1.05095  -0.00053   0.00000  -0.00685  -0.00685  -1.05780
   D62       -3.13552  -0.00063   0.00000  -0.00813  -0.00813   3.13954
   D63       -1.14687   0.00056   0.00000   0.00727   0.00724  -1.13963
   D64        3.04063   0.00063   0.00000   0.00789   0.00785   3.04848
   D65        0.95605   0.00054   0.00000   0.00661   0.00658   0.96263
   D66        3.12633   0.00003   0.00000   0.00222   0.00225   3.12858
   D67        1.03064   0.00010   0.00000   0.00284   0.00286   1.03350
   D68       -1.05394   0.00001   0.00000   0.00156   0.00159  -1.05235
   D69       -3.13366  -0.00015   0.00000  -0.00110  -0.00110  -3.13476
   D70       -1.05985   0.00030   0.00000   0.00233   0.00233  -1.05752
   D71        1.07649  -0.00014   0.00000  -0.00107  -0.00107   1.07542
   D72       -0.04005   0.00122   0.00000   0.00059   0.00072  -0.03933
   D73       -2.35289  -0.00089   0.00000  -0.01341  -0.01298  -2.36587
         Item               Value     Threshold  Converged?
 Maximum Force            0.020653     0.000450     NO 
 RMS     Force            0.003091     0.000300     NO 
 Maximum Displacement     0.340586     0.001800     NO 
 RMS     Displacement     0.077501     0.001200     NO 
 Predicted change in Energy=-5.188918D-03
 GradGradGradGradGradGradGradGradGradGradGradGradGradGradGradGradGradGrad

                          Input orientation:                          
 ---------------------------------------------------------------------
 Center     Atomic      Atomic             Coordinates (Angstroms)
 Number     Number       Type             X           Y           Z
 ---------------------------------------------------------------------
      1          1           0       -2.111447    0.438184   -2.973236
      2          1           0       -1.629338   -3.296572    1.048836
      3          6           0       -1.700836    0.515278   -1.976319
      4          1           0       -1.493319   -1.605186   -1.735948
      5          1           0       -1.807665    2.658392   -1.923219
      6          6           0       -0.650852    0.709455    0.595985
      7          6           0       -0.825276   -0.529248    0.001339
      8          6           0       -1.350897   -0.632512   -1.284386
      9          6           0       -1.531705    1.760779   -1.388000
     10          6           0       -1.008367    1.855578   -0.103051
     11          6           0       -0.432468   -1.768090    0.746431
     12          6           0       -0.811808    3.169400    0.571699
     13          1           0       -0.246115    0.797677    1.594662
     14          1           0       -1.027599    5.019844    0.311746
     15          8           0       -1.129363   -2.906691    0.317928
     16          8           0       -0.415684   -1.566421    2.067245
     17          8           0       -1.182762    4.202961   -0.186782
     18          8           0       -0.365209    3.295642    1.682483
     19          1           0        1.515346   -1.274047   -1.431205
     20          6           0        1.910215   -1.440066   -0.431321
     21          8           0        4.095531   -1.358314   -1.201823
     22          1           0        1.987136   -0.500522    0.109658
     23          1           0        0.633506   -3.101241   -0.077972
     24          8           0        0.954134   -2.253424    0.324990
     25          6           0        3.232361   -2.179219   -0.450291
     26          1           0        4.959384   -1.778976   -1.256967
     27          1           0        3.105304   -3.161129   -0.916607
     28          1           0        3.587553   -2.319367    0.573487
     29          1           0        0.075288   -2.261376    2.532506
 ---------------------------------------------------------------------
                    Distance matrix (angstroms):
                    1          2          3          4          5
     1  H    0.000000
     2  H    5.509799   0.000000
     3  C    1.080920   4.866916   0.000000
     4  H    2.467452   3.261029   2.144110   0.000000
     5  H    2.474700   6.657815   2.146432   4.279249   0.000000
     6  C    3.866040   4.148585   2.785125   3.391935   3.388652
     7  C    3.382049   3.066243   2.401826   2.149905   3.850981
     8  C    2.139402   3.552276   1.385154   1.081798   3.383311
     9  C    2.144372   5.614668   1.387803   3.384119   1.080889
    10  C    3.385816   5.315740   2.405213   3.857255   2.143921
    11  C    4.639239   1.964739   3.773048   2.704468   5.349013
    12  C    4.659953   6.534891   3.785120   5.346622   2.734497
    13  H    4.947160   4.355927   3.866247   4.292113   4.275065
    14  H    5.740857   8.370673   5.097019   6.949890   3.343655
    15  O    4.794209   0.967578   4.159329   2.458615   6.037630
    16  O    5.683352   2.345961   4.726044   3.953110   5.975822
    17  O    4.774969   7.613748   4.131567   6.019213   2.406535
    18  O    5.734992   6.742166   4.785515   6.080824   3.935461
    19  H    4.296885   4.486674   3.720573   3.042136   5.171901
    20  C    5.114970   4.262148   4.387491   3.648748   5.731121
    21  O    6.700141   6.449530   6.140689   5.619741   7.176494
    22  H    5.213807   4.666779   4.357096   4.091468   5.339648
    23  H    5.333371   2.535411   4.704475   3.083902   6.522087
    24  O    5.246030   2.878617   4.473321   3.264615   6.066953
    25  C    6.463152   5.208836   5.824561   4.930972   7.139598
    26  H    7.606446   7.143604   7.080932   6.472790   8.119549
    27  H    6.663277   5.128171   6.143121   4.923374   7.682275
    28  H    7.256854   5.328868   6.519492   5.626616   7.753709
    29  H    6.510194   2.485691   5.585152   4.594651   6.899501
                    6          7          8          9         10
     6  C    0.000000
     7  C    1.385067   0.000000
     8  C    2.413863   1.392849   0.000000
     9  C    2.411925   2.770113   2.402347   0.000000
    10  C    1.389268   2.394120   2.775513   1.390670   0.000000
    11  C    2.491697   1.498063   2.501453   4.268142   3.766198
    12  C    2.465325   3.742391   4.264998   2.518509   1.489984
    13  H    1.081180   2.152866   3.399250   3.387710   2.140657
    14  H    4.336149   5.561448   5.882287   3.710090   3.191396
    15  O    3.658250   2.417630   2.790766   4.985714   4.782370
    16  O    2.720206   2.347650   3.602809   4.924884   4.095306
    17  O    3.619425   4.749419   4.961331   2.743891   2.355341
    18  O    2.819651   4.203295   5.020387   3.625519   2.382345
    19  H    3.568780   2.843487   2.940828   4.300762   4.234108
    20  C    3.497836   2.915424   3.466225   4.796609   4.414425
    21  O    5.480505   5.133156   5.495196   6.436551   6.130757
    22  H    2.942709   2.814643   3.619840   4.442826   3.817000
    23  H    4.077401   2.957953   3.389382   5.481200   5.221727
    24  O    3.380543   2.498767   3.245091   5.022704   4.573678
    25  C    4.951613   4.403498   4.908591   6.252936   5.863782
    26  H    6.410964   6.050409   6.413640   7.394678   7.082059
    27  H    5.601611   4.818597   5.136816   6.778586   6.538463
    28  H    5.209447   4.796347   5.539445   6.833873   6.245826
    29  H    3.619838   3.196575   4.388150   5.842134   5.006973
                   11         12         13         14         15
    11  C    0.000000
    12  C    4.955123   0.000000
    13  H    2.708761   2.644151   0.000000
    14  H    6.827825   1.881033   4.481438   0.000000
    15  O    1.402030   6.089673   4.016530   7.927191   0.000000
    16  O    1.336227   4.982125   2.416826   6.843618   2.316413
    17  O    6.089933   1.334596   3.955604   0.969487   7.127744
    18  O    5.149961   1.203839   2.502344   2.300121   6.396473
    19  H    2.963133   5.401064   4.068250   7.008389   3.566438
[...]
 -0.00003188,0.00000263,-0.00002341,-0.00002682,-0.00003724,0.00106751,
 0.00042336,0.00092335,-0.00534652,-0.01321918,-0.02362757,0.00062717,0
 .00101869,0.00065900,-0.00189023,-0.00221141,0.00118544,0.02913044,0.0
 0000242,0.00001242,-0.00001846,0.00005221,0.00018230,0.00000626,-0.000
 02513,0.00002485,0.00006494,0.00008426,0.00001049,0.00003744,0.0000017
 7,0.00000314,0.00000068,-0.00018275,-0.00028463,-0.00009552,-0.0000863
 3,0.00022280,-0.00009664,0.00011528,-0.00014344,0.00012365,0.00002638,
 0.00002447,0.00000145,0.00001291,0.00015191,-0.00006292,0.00157388,-0.
 00049678,-0.00091747,-0.00011807,-0.00027351,-0.00012537,0.00000937,-0
 .00001591,-0.00001021,-0.00000236,-0.00001283,-0.00000139,-0.00038756,
 -0.00030653,0.00011411,-0.00034495,0.00017132,0.00037340,0.00002568,0.
 00013313,-0.00001051,0.00006738,0.00010451,0.00010182,0.00140965,0.001
 21214,-0.00048896,-0.00592259,-0.02062239,-0.03285649,0.00106019,0.000
 31497,-0.00002136,-0.00375433,-0.00427729,0.00178484,0.04803040,0.1324
 2529,-0.00000733,0.00000606,-0.00000786,0.00011060,0.00007388,-0.00011
 330,0.00005263,0.00001518,-0.00000497,0.00001319,-0.00002895,0.0000174
 1,-0.00000241,-0.00000053,0.00000218,-0.00003636,-0.00020114,-0.000024
 46,-0.00002911,0.00022041,-0.00002192,0.00005737,-0.00006481,0.0000701
 0,0.00001653,0.00007560,0.00003564,-0.00002461,0.00007697,-0.00011090,
 0.00040968,-0.00081734,-0.00162440,-0.00004393,-0.00011701,-0.00004617
 ,-0.00000091,-0.00000830,-0.00001051,-0.00000126,-0.00000600,0.0000000
 3,-0.00016917,0.00018817,0.00021739,0.00048948,-0.00008344,0.00053018,
 0.00001245,0.00006448,-0.00000876,0.00002425,0.00004529,0.00003532,0.0
 0075327,0.00143351,0.00086605,0.00311393,0.00526889,0.00444363,0.00120
 205,0.00008187,-0.00040367,0.00082044,0.00127908,0.00213493,0.04359353
 ,0.19334357,0.42921581,-0.00001719,0.00003979,-0.00009054,0.00059734,0
 .00093220,-0.00045311,0.00013877,0.00017584,0.00030630,0.00025652,-0.0
 0006944,0.00010975,-0.00000670,-0.00000900,0.00002740,-0.00155832,-0.0
 0260638,-0.00019611,-0.00379516,0.00538818,-0.00010707,0.00013131,0.00
 044991,0.00181989,0.00028481,0.00064173,0.00025414,-0.00012715,0.00098
 502,-0.00134138,0.00119261,-0.00471164,-0.00269169,-0.00052082,-0.0010
 7793,-0.00061270,-0.00005538,-0.00001086,0.00002299,-0.00002347,-0.000
 04648,0.00000149,-0.00594352,0.00132042,0.00321218,-0.00142671,0.00103
 461,0.00173084,0.00013693,0.00057385,-0.00002286,0.00031244,0.00041722
 ,0.00044041,0.00472437,-0.00264942,0.00265603,-0.12227738,-0.07638622,
 0.02837848,-0.01694706,0.00037355,0.00383596,-0.00305371,-0.00764868,-
 0.00189698,-0.02332772,-0.04055052,-0.04882368,0.18269587,0.00001368,-
 0.00000207,0.00003988,0.00048124,0.00019758,-0.00036158,-0.00009541,0.
 00013774,-0.00014127,0.00002684,-0.00002495,0.00005368,0.00001262,0.00
 001378,-0.00001452,-0.00024777,0.00154706,-0.00001799,0.00231556,-0.00
 227394,-0.00029306,-0.00000562,-0.00064544,-0.00051707,-0.00024649,-0.
 00050141,-0.00047477,0.00036145,-0.00062036,0.00102100,-0.00107268,-0.
 00405080,-0.00103366,0.00027442,0.00070585,0.00032557,0.00006177,0.000
 04767,0.00004662,0.00000023,0.00004299,0.00000366,-0.00266226,0.001814
 93,0.00140481,0.00165966,0.00002801,-0.00156098,-0.00006232,-0.0003547
 1,0.00003193,-0.00014901,-0.00024344,-0.00024606,-0.02251518,-0.030139
 69,0.00375338,-0.08804770,-0.18113469,0.02978313,-0.00310187,0.0018390
 6,0.00079890,-0.01738161,-0.02230658,0.00056272,-0.03295422,-0.1101452
 5,-0.20250763,0.16877462,0.34956388,0.00000992,-0.00001915,0.00001938,
 -0.00018861,-0.00032152,-0.00001366,-0.00022383,-0.00063281,0.00018519
 ,0.00015011,0.00000032,-0.00002739,0.00002492,0.00001010,-0.00000358,0
 .00000490,0.00022641,0.00003748,0.00108902,-0.00083019,0.00043706,-0.0
 0023394,0.00018551,-0.00060362,0.00018861,0.00009266,0.00026642,-0.000
 03128,0.00013331,0.00009818,-0.00452427,0.00050902,-0.00201081,0.00002
 856,0.00010194,-0.00000798,0.00003192,0.00009773,0.00002228,0.00000270
 ,0.00000699,-0.00000246,0.00202251,0.00063833,0.00030162,0.00485497,-0
 .00218759,-0.00402140,-0.00001792,-0.00009107,0.00001867,-0.00002051,-
 0.00006700,-0.00000865,0.01878008,0.02077081,0.00346983,0.00208253,-0.
 00697966,-0.09812734,0.00325268,-0.00028662,0.00079969,-0.02186666,-0.
 02814458,0.00712699,-0.02261463,-0.16175028,-0.43561722,0.01314341,0.1
 6962702,0.52450934,0.00000839,-0.00001124,0.00001238,-0.00008612,-0.00
 014573,0.00007125,-0.00004601,-0.00004276,0.00004574,-0.00001401,0.000
 00688,-0.00000589,0.00000545,-0.00000098,0.00000608,-0.00007186,0.0002
 6805,0.00000762,0.00029219,-0.00007540,-0.00010523,-0.00012648,-0.0000
 2369,-0.00023328,-0.00001926,-0.00002580,-0.00002501,0.00004655,-0.000
 17007,0.00007908,-0.00135256,-0.00009327,0.00055808,0.00017152,0.00038
 196,0.00014589,-0.00000034,0.00009858,0.00009687,0.00000992,0.00001392
 ,-0.00000008,0.00054673,0.00050740,-0.00003774,0.00014592,-0.00007414,
 -0.00029229,-0.00004209,-0.00017756,0.00002724,-0.00010149,-0.00013406
 ,-0.00012062,-0.01342755,0.00573132,0.00490955,-0.19124718,0.05952777,
 0.02481439,-0.13076695,-0.04461334,0.01148083,-0.00277744,0.00210736,-
 0.00012227,-0.00041249,-0.00062097,-0.00100206,-0.01621236,-0.00532447
 ,0.00465364,0.51890547,0.00000570,-0.00000402,0.00000037,0.00010792,0.
 00009880,-0.00006462,-0.00004931,-0.00006604,0.00008030,0.00001710,-0.
 00000121,0.00002721,0.00000760,-0.00000229,0.00001224,0.00007148,-0.00
 007485,0.00002504,0.00016393,0.00022274,-0.00019137,-0.00010825,0.0000
 3944,-0.00016422,0.00000886,0.00010843,0.00007087,0.00000691,0.0000811
 6,-0.00022190,0.00092438,-0.00157672,-0.00053891,0.00011017,0.00022160
 ,0.00007012,-0.00004398,0.00007004,0.00009938,0.00000935,0.00000188,-0
 .00000102,-0.00069009,0.00033924,0.00031808,-0.00014069,0.00025672,0.0
 0028855,-0.00002979,-0.00008567,0.00001753,-0.00007473,-0.00007563,-0.
 00006683,0.02001561,-0.00585919,-0.00466042,0.05463863,-0.09137825,-0.
 01309460,-0.08338297,-0.21213673,0.00980199,0.01609709,-0.00475355,-0.
 00346884,-0.00203013,0.00118547,0.00185600,-0.04293814,-0.00557349,0.0
 0842861,-0.03579805,0.54672591,-0.00000517,0.00000314,-0.00000613,0.00
 001577,0.00000314,-0.00000847,0.00004996,-0.00002145,0.00003927,0.0000
 0162,0.00000093,0.00000397,-0.00000212,0.00000251,0.00000420,-0.000055
 32,-0.00015052,-0.00020586,-0.00015345,0.00004292,0.00008281,0.0001248
 2,-0.00002325,0.00009721,0.00004753,0.00001367,0.00005439,-0.00002386,
 -0.00000695,0.00001431,-0.00015054,-0.00000806,-0.00054411,-0.00001490
 ,-0.00003845,-0.00002196,0.00000141,0.00007939,0.00008099,0.00000035,-
 0.00000146,0.00000070,-0.00006648,0.00001025,0.00010130,0.00009878,-0.
 00002348,0.00031577,0.00000684,0.00002113,-0.00000401,0.00000413,0.000
 01536,0.00001303,-0.02430094,0.00834952,0.00579326,0.02627500,-0.01218
 254,-0.09194022,0.00960648,0.00241593,-0.06435648,0.03099782,-0.010287
 37,-0.00635786,-0.00278189,0.00027083,0.00126374,0.00180621,-0.0007743
 5,0.00008524,0.01789465,0.00080012,0.60196082,-0.00000003,-0.00000021,
 0.00000026,0.00000129,-0.00000185,0.00000053,-0.00000474,-0.00000118,0
 .00000315,-0.00000105,0.00000034,0.00000126,-0.00000051,0.00000050,0.0
 0000081,-0.00000212,0.00000572,-0.00000124,0.00000736,0.00000807,-0.00
 001131,-0.00000258,-0.00000180,-0.00000967,0.00000117,0.00000226,-0.00
 000036,-0.00000516,0.00000283,-0.00000529,-0.00002190,-0.00006481,0.00
 000888,0.00000208,0.00002468,0.00000787,-0.00000188,0.00000540,0.00000
 669,-0.00000062,0.00000241,0.00000062,0.00000468,0.00003794,0.00000762
 ,0.00000220,0.00000743,-0.00000726,0.00000020,-0.00001127,0.00000086,-
 0.00000217,-0.00000911,-0.00000653,0.00044925,-0.00006890,-0.00007372,
 -0.00004450,-0.00423886,-0.00038454,-0.47906865,0.08807322,0.10297970,
 0.00028924,0.00002103,-0.00002795,-0.00013042,0.00003352,0.00007300,-0
 .00061858,0.00026765,0.00030421,-0.02050336,0.00586105,0.00398317,0.49
 678498,-0.00000069,0.00000149,-0.00000119,0.00001564,0.00002332,-0.000
 01115,0.00000325,0.00000045,0.00000164,0.00000273,-0.00000064,0.000002
 87,0.00000044,0.00000017,0.00000008,-0.00000474,-0.00002979,-0.0000027
 4,-0.00000734,0.00002733,-0.00000529,0.00000892,0.00000421,0.00001474,
 0.00000013,0.00000952,0.00000440,-0.00000149,0.00001587,-0.00001963,0.
 00019598,-0.00011544,-0.00010754,-0.00001511,-0.00000838,-0.00001093,-
 0.00000308,-0.00000269,0.00000026,0.00000105,0.00000014,-0.00000068,-0
 .00010249,-0.00001672,0.00003343,-0.00002375,0.00002478,0.00005805,0.0
 0000105,0.00000569,0.00000153,0.00000557,0.00000397,0.00000840,-0.0000
 4382,0.00017194,-0.00023390,-0.00040628,-0.00565091,-0.00022132,0.1385
 7030,-0.06941904,-0.03202884,0.00009160,0.00002087,0.00021119,0.000072
 93,0.00012693,0.00013469,-0.00284749,-0.00043300,0.00054118,-0.0427129
 4,0.00248397,0.00900127,-0.09297399,0.07176148,-0.00000146,0.00000029,
 -0.00000054,0.00000364,0.00000174,-0.00000018,0.00000437,-0.00000056,-
 0.00000070,-0.00000098,0.,0.00000062,-0.00000080,0.00000054,0.00000029
 ,-0.00000401,-0.00000279,-0.00000696,0.00000570,0.00000898,-0.00000588
 ,0.00000420,0.00000011,0.00000655,0.00000448,-0.00000122,0.00000112,-0
 .00001056,0.00000440,-0.00000278,0.00003409,-0.00000788,0.00001039,0.0
 0000675,-0.00000841,0.00001457,0.00000002,0.00000035,0.00000027,-0.000
 00045,-0.00000061,0.00000173,-0.00001288,-0.00000755,-0.00000455,-0.00
 000893,0.00000370,-0.00000687,0.00000081,0.00000724,-0.00000790,-0.000
 00540,0.00000151,-0.00000964,0.00018295,-0.00022688,0.00004544,-0.0002
 5948,0.00055225,-0.00055209,0.10550153,-0.02161502,-0.02436086,-0.0003
 1947,0.00020039,0.00022290,0.00014965,0.00010599,0.00000765,0.00006650
 ,-0.00009980,0.00082310,0.00178706,-0.00097803,-0.00225521,-0.10667441
 ,0.02264031,0.02524139,-0.00000341,0.00000345,-0.00000188,0.00000011,0
 .00002035,-0.00000317,0.00000870,0.00003061,-0.00003109,-0.00000297,-0
 .00000177,-0.00000219,-0.00000182,0.00000017,-0.00000408,0.00001415,-0
 .00000720,0.00002589,-0.00003816,-0.00002594,0.00001954,0.00002547,-0.
 00000401,0.00005896,-0.00000855,-0.00001824,-0.00002265,-0.00000731,0.
 00000940,0.00002614,0.00015332,0.00024905,0.00011045,-0.00003691,-0.00
 009834,-0.00002393,0.00001308,-0.00004987,-0.00005463,-0.00000204,-0.0
 0000355,0.,-0.00001832,-0.00014593,-0.00004379,-0.00006048,-0.00003638
 ,-0.00005826,0.00000904,0.00004505,-0.00000992,0.00002218,0.00003535,0
 .00002495,0.00175553,-0.00050159,-0.00070995,-0.00248712,0.01626892,0.
 03124862,-0.00296140,-0.02109590,-0.01642040,-0.00607759,0.00124716,0.
 00134972,-0.00032966,-0.00075622,-0.00053042,0.00290675,0.00051379,-0.
 00149547,-0.05308705,0.00935560,0.00879969,0.00120950,-0.00003520,-0.0
 0093264,0.05654950,0.00000244,-0.00000120,0.00000099,-0.00000328,-0.00
 001120,0.00000438,-0.00000128,0.00001381,0.00000278,0.00000064,0.00000
 094,-0.00000107,0.00000096,-0.00000075,0.00000031,-0.00000788,0.000016
 62,-0.00001236,0.00001187,0.00000032,-0.00002262,-0.00000002,-0.000006
 25,-0.00000387,-0.00001034,-0.00000818,-0.00001244,0.00000724,-0.00001
 437,0.00000997,-0.00009589,-0.00003506,0.00005196,0.00000272,0.0000315
 8,0.00000051,-0.00000203,0.00001153,0.00001374,-0.00000098,0.00000245,
 0.00000002,0.00005118,0.00006044,-0.00000052,-0.00002211,-0.00000542,0
 .00000185,-0.00000016,-0.00001690,0.00000582,0.00000034,-0.00000977,-0
 .00000300,-0.00038549,0.00029410,-0.00002982,0.00111560,-0.00466937,-0
 .00936625,-0.01048817,-0.02895226,-0.02452574,0.00100240,-0.00010664,-
 0.00028144,0.00018977,0.00023860,-0.00023248,0.00040365,0.00122619,0.0
 0127620,0.00673658,-0.10236240,-0.09818590,0.00166820,0.00049382,0.000
 32154,-0.00021305,0.12341736,0.00000100,-0.00000118,0.00000182,-0.0000
 0784,-0.00002012,0.00000569,0.00000214,0.00000146,0.00000137,-0.000001
 02,0.00000053,0.00000030,0.00000027,-0.00000021,0.00000147,-0.00000368
 ,0.00002036,0.00000180,-0.00000689,0.00000080,-0.00001776,-0.00001127,
 -0.00001226,-0.00001319,-0.00000559,0.00000258,-0.00000267,0.00000563,
 -0.00000970,-0.00000100,-0.00015460,-0.00005066,0.00005558,0.00001353,
 0.00005374,0.00000946,-0.00000584,0.00001667,0.00002058,-0.00000038,0.
 00000344,0.00000017,0.00006812,0.00007662,-0.00000387,0.00000088,0.000
 00040,-0.00001414,-0.00000251,-0.00002742,0.00000659,-0.00000593,-0.00
 001969,-0.00001071,0.00037504,0.00009223,0.00098878,-0.00076434,-0.003
 71909,-0.00638697,-0.00289938,-0.00002953,0.01047227,0.00132505,-0.000
 43052,0.00132133,0.00090338,0.00021207,-0.00075393,0.00044222,0.001515
 96,0.00117414,0.00823014,-0.10255372,-0.25053731,-0.00035049,-0.000565
 26,0.00064798,-0.00895653,0.11609466,0.26312318,-0.00000174,0.00000328
 ,-0.00000438,0.00000404,0.00002484,-0.00000832,0.00001812,0.00000714,-
 0.00000442,0.00000137,-0.00000049,-0.00000239,-0.00000114,0.00000067,-
 0.00000275,-0.00002078,-0.00006506,-0.00005104,-0.00008660,-0.00000267
 ,0.00006395,0.00006137,-0.00000035,0.00008809,0.00001382,-0.00001471,0
 .00000261,-0.00000463,0.00000298,0.00003489,0.00010296,0.00021392,-0.0
 0019514,-0.00004728,-0.00011310,-0.00004814,0.00000893,-0.00001211,-0.
 00001885,-0.00000083,-0.00000454,-0.00000112,-0.00005276,-0.00012844,0
 .00000862,0.00003419,-0.00003831,0.00011798,0.00001047,0.00005085,-0.0
 0000468,0.00002857,0.00004151,0.00004033,-0.00584921,0.00122505,0.0018
 6809,-0.01369672,0.01971848,-0.02484853,0.00599280,-0.02158671,0.01648
 838,0.00182393,-0.00048950,0.00021846,-0.00001315,0.00016031,0.0000166
 5,0.00268980,-0.00089111,0.00072304,-0.08983754,0.05785722,-0.07218357
 ,0.00165625,0.00020733,0.00047427,0.00246884,0.00003408,0.00180861,0.0
 9471543,0.00000055,-0.00000061,0.00000107,-0.00000432,-0.00001022,0.00
 000552,-0.00000649,-0.00000494,0.00000338,0.00000055,0.00000037,0.0000
 0001,-0.00000067,0.00000035,0.00000065,-0.00000860,0.00000812,0.000025
 77,0.00000192,0.00002454,-0.00001712,-0.00002451,0.00000283,-0.0000116
 8,-0.00000247,0.00000140,-0.00000690,0.00001540,-0.00000725,-0.0000085
 7,-0.00006106,-0.00004108,0.00008217,0.00000485,0.00002967,0.00001765,
 -0.00000185,0.00000300,0.00000634,-0.00000129,0.00000225,0.00000106,0.
 00004120,0.00004623,-0.00001111,-0.00000533,0.00000609,-0.00005722,-0.
 00000027,-0.00001152,-0.00000160,-0.00000483,-0.00001056,-0.00001250,0
 .00106533,-0.00019318,-0.00026568,0.00493712,-0.00588237,0.00730639,-0
 .00052817,-0.03092541,0.02232320,-0.00035647,0.00026203,0.00020133,0.0
 0007903,0.00000125,-0.00010759,-0.00020716,0.00145969,-0.00082518,0.05
 472089,-0.12788982,0.10066214,0.00135222,0.00049478,-0.00090112,-0.004
 79738,0.01039491,-0.01064458,-0.05621535,0.15224450,0.00000143,-0.0000
 0035,-0.00000002,0.00000550,0.00001145,-0.00000370,-0.00000553,0.00000
 127,-0.00000119,0.00000102,-0.00000011,0.00000073,0.00000102,-0.000000
 70,-0.00000037,0.00001256,0.00000146,0.00001029,0.00003253,-0.00000021
 ,-0.00001174,-0.00000347,0.00000337,-0.00001273,-0.00000367,0.00000504
 ,0.00000413,-0.00000141,0.00000690,-0.00001033,0.00010596,-0.00005382,
 -0.00000695,0.00000166,-0.00000282,-0.00000185,-0.00000020,-0.00000542
 ,-0.00000372,0.00000089,-0.00000111,-0.00000054,-0.00004490,-0.0000092
 2,0.00000982,-0.00003768,0.00001257,0.00001076,-0.00000163,0.00000213,
 0.00000081,-0.00000164,0.00000159,0.00000155,0.00196870,-0.00037891,0.
 00105382,0.00477550,-0.00481343,0.00577580,0.00473049,0.00414507,0.004
 69645,-0.00063211,-0.00006336,0.00111214,0.00019756,0.00014597,-0.0001
 4500,-0.00131609,-0.00089777,0.00027336,-0.07306463,0.10420238,-0.1936
 8892,0.00017104,0.00057961,0.00019022,-0.01233617,0.01488217,-0.020109
 39,0.07544319,-0.11777790,0.20086869,-0.00008480,0.00006665,0.00003215
 ,-0.00323659,-0.00268392,-0.00202362,-0.00062061,-0.00022783,0.0000692
 1,0.00011238,-0.00004386,-0.00009082,0.00000632,0.00001043,0.00001706,
 -0.00035326,-0.00015668,0.00038526,0.00326520,-0.00316974,-0.00325285,
 0.00091452,0.00044680,-0.00082661,0.00012352,-0.00006533,0.00008723,0.
 00015237,0.00001450,0.00009149,-0.00467994,0.02165319,-0.01814537,0.00
 008469,0.00021280,0.00007640,-0.00004403,0.00028969,0.00022063,0.00000
 395,0.00000903,0.00000124,-0.00188212,0.00121803,0.00417289,-0.0195205
 5,-0.00017330,-0.01473376,-0.00002138,-0.00011511,0.00000958,-0.000055
 97,-0.00009968,-0.00006583,0.00001043,0.00004427,-0.00002904,-0.000112
 06,-0.00020523,0.00000578,0.00002625,0.00001405,-0.00001632,0.00009028
 ,-0.00004441,0.00000129,0.00009180,0.00008616,-0.00008782,-0.00015627,
 -0.00000581,-0.00013061,-0.00000001,0.00002753,0.00002399,0.00000010,0
 .00000148,0.00000547,-0.00001338,0.00000303,0.00000028,-0.00001849,0.0
 0000717,0.00000010,0.02591765,0.00000021,0.00002136,-0.00005601,-0.001
 90391,-0.00393836,-0.00189684,0.00028837,0.00068642,-0.00013043,-0.000
 02274,0.00000462,0.00009180,-0.00000330,-0.00001025,0.00001647,-0.0002
 7958,-0.00068471,-0.00043354,-0.00219951,0.00298920,-0.00287080,0.0001
 4512,0.00014978,0.00076434,-0.00011482,-0.00007877,-0.00018188,-0.0000
 2142,0.00018052,-0.00014618,0.00213038,0.00832962,0.00114849,-0.000156
 22,-0.00034158,-0.00017592,0.00011993,0.00016069,0.00011702,-0.0000040
 4,-0.00001821,0.00000159,-0.00190132,-0.00256697,-0.00433921,0.0206942
 8,-0.36684171,0.22220601,0.00004142,0.00018844,-0.00000770,0.00009358,
 0.00013529,0.00013604,-0.00000948,-0.00000835,0.00000817,-0.00007037,-
 0.00008249,0.00004423,0.00004989,0.00001147,-0.00000889,-0.00007341,-0
 .00002680,0.00002392,0.00009430,0.00003257,0.00001159,0.00024877,-0.00
 017459,-0.00051050,-0.00005624,0.00000446,0.00001151,-0.00000246,0.000
 00588,0.00000053,0.00001168,-0.00000288,-0.00000756,0.00001479,-0.0000
 0505,0.00000419,-0.01711390,0.36188040,0.00007581,0.00002035,-0.000000
 65,-0.00241846,-0.00363518,-0.00123426,0.00000916,-0.00082094,-0.00026
 152,-0.00011415,0.00002245,-0.00007577,0.00001577,0.00001846,0.0000269
 7,0.00055704,-0.00001845,0.00027791,-0.00374949,-0.00411883,0.00114654
 ,-0.00076668,0.00100091,-0.00070111,-0.00000618,-0.00011376,0.00021571
 ,0.00013405,-0.00013794,0.00046977,-0.00885492,0.03681974,-0.03889885,
 0.00026973,0.00062522,0.00026406,0.00026146,0.00045300,0.00021690,0.00
 000801,0.00002751,0.00000343,0.00600635,0.00149224,0.00552973,-0.02480
 058,0.18261144,-0.15180248,-0.00007305,-0.00033596,0.00002693,-0.00016
 363,-0.00027779,-0.00021413,-0.00003293,-0.00010120,0.00002620,0.00029
 897,0.00067642,0.00002859,-0.00023323,-0.00006697,0.00003042,0.0001528
 2,0.00003572,-0.00005598,-0.00021759,-0.00023146,0.00005300,-0.0007020
 0,-0.00002775,0.00079613,0.00018859,-0.00009431,0.00001556,0.00000311,
 -0.00002518,-0.00000004,-0.00002677,0.00001061,0.00001842,-0.00002383,
 0.00001207,-0.00001214,0.03420261,-0.21382044,0.18411069\\-0.00000542,
 0.00000355,0.00000358,0.00000248,0.00000132,-0.00000149,-0.00000481,-0
 .00002190,0.00000411,-0.00000137,0.,0.00000475,-0.00000091,-0.00000137
 ,-0.00000104,0.00000488,-0.00001877,-0.00000750,0.00000241,0.00001097,
 0.00003609,-0.00000365,0.00000748,-0.00001772,0.00000608,0.00000962,0.
 00001537,-0.00000485,0.00000873,-0.00001327,-0.00001070,0.00000278,-0.
 00001407,-0.00000636,-0.00000210,0.00000621,-0.00000237,0.00000276,0.0
 0000495,-0.00000110,0.,-0.00000002,0.00000666,-0.00000113,-0.00000120,
 0.00001573,0.00000705,-0.00000503,0.00000579,0.00000043,-0.00000321,0.
 00000388,0.00000110,-0.00000189,0.00000495,0.00000142,-0.00000067,-0.0
 0000073,0.00001296,0.00000317,-0.00000142,-0.00000078,-0.00000127,-0.0
 0000062,0.00000068,0.00000060,-0.00000978,-0.00000164,0.00001011,0.000
 00196,-0.00002418,-0.00000671,-0.00000404,-0.00000259,-0.00000580,-0.0
 0000281,0.00000035,-0.00000624,-0.00000067,-0.00000215,-0.00000272,0.0
 0000183,0.00000415,-0.00000265,0.00000496,0.00000125,0.00000357\\\@


 We're simply so accustomed to the marvels of everyday thought
 that we never wonder about it.
 -- Marvin Minsky in "Why people think computers are smart"
 Job cpu time:       0 days 10 hours 39 minutes 54.8 seconds.
 Elapsed time:       0 days  0 hours 17 minutes 48.6 seconds.
 File lengths (MBytes):  RWF=    966 Int=      0 D2E=      0 Chk=     41 Scr=      1
 Normal termination of Gaussian 16 at Sat Aug 10 13:49:06 2019.
