 Entering Gaussian System, Link 0=g16
 Initial command:
 /nopt/nrel/apps/gaussian/g16B/g16/l1.exe "/dev/shm/Gau-116702.inp" -scrdir="/dev/shm/"
 Default is to use a total of  36 processors:
                               36 via shared-memory
                                1 via Linda
 Entering Link 1 = /nopt/nrel/apps/gaussian/g16B/g16/l1.exe PID=    116703.
  
 Copyright (c) 1988-2017, Gaussian, Inc.  All Rights Reserved.
  
 This is part of the Gaussian(R) 16 program.  It is based on
 the Gaussian(R) 09 system (copyright 2009, Gaussian, Inc.),
 the Gaussian(R) 03 system (copyright 2003, Gaussian, Inc.),
 the Gaussian(R) 98 system (copyright 1998, Gaussian, Inc.),
 the Gaussian(R) 94 system (copyright 1995, Gaussian, Inc.),
 the Gaussian 92(TM) system (copyright 1992, Gaussian, Inc.),
 the Gaussian 90(TM) system (copyright 1990, Gaussian, Inc.),
 the Gaussian 88(TM) system (copyright 1988, Gaussian, Inc.),
 the Gaussian 86(TM) system (copyright 1986, Carnegie Mellon
 University), and the Gaussian 82(TM) system (copyright 1983,
 Carnegie Mellon University). Gaussian is a federally registered
 trademark of Gaussian, Inc.
  
 This software contains proprietary and confidential information,
 including trade secrets, belonging to Gaussian, Inc.
  
 This software is provided under written license and may be
 used, copied, transmitted, or stored only in accord with that
 written license.
  
 The following legend is applicable only to US Government
 contracts under FAR:
  
                    RESTRICTED RIGHTS LEGEND
  
 Use, reproduction and disclosure by the US Government is
 subject to restrictions as set forth in subparagraphs (a)
 and (c) of the Commercial Computer Software - Restricted
 Rights clause in FAR 52.227-19.
  
 Gaussian, Inc.
 340 Quinnipiac St., Bldg. 40, Wallingford CT 06492
  
  
 ---------------------------------------------------------------
 Warning -- This program may not be used in any manner that
 competes with the business of Gaussian, Inc. or will provide
 assistance to any competitor of Gaussian, Inc.  The licensee
 of this program is prohibited from giving any competitor of
 Gaussian, Inc. access to this program.  By using this program,
 the user acknowledges that Gaussian, Inc. is engaged in the
 business of creating and licensing software in the field of
 computational chemistry and represents and warrants to the
 licensee that it is not a competitor of Gaussian, Inc. and that
 it will not use this program in any manner prohibited above.
 ---------------------------------------------------------------
  

 Cite this work as:
 Gaussian 16, Revision B.01,
 M. J. Frisch, G. W. Trucks, H. B. Schlegel, G. E. Scuseria, 
 M. A. Robb, J. R. Cheeseman, G. Scalmani, V. Barone, 
 G. A. Petersson, H. Nakatsuji, X. Li, M. Caricato, A. V. Marenich, 
 J. Bloino, B. G. Janesko, R. Gomperts, B. Mennucci, H. P. Hratchian, 
 J. V. Ortiz, A. F. Izmaylov, J. L. Sonnenberg, D. Williams-Young, 
 F. Ding, F. Lipparini, F. Egidi, J. Goings, B. Peng, A. Petrone, 
 T. Henderson, D. Ranasinghe, V. G. Zakrzewski, J. Gao, N. Rega, 
 G. Zheng, W. Liang, M. Hada, M. Ehara, K. Toyota, R. Fukuda, 
 J. Hasegawa, M. Ishida, T. Nakajima, Y. Honda, O. Kitao, H. Nakai, 
 T. Vreven, K. Throssell, J. A. Montgomery, Jr., J. E. Peralta, 
 F. Ogliaro, M. J. Bearpark, J. J. Heyd, E. N. Brothers, K. N. Kudin, 
 V. N. Staroverov, T. A. Keith, R. Kobayashi, J. Normand, 
 K. Raghavachari, A. P. Rendell, J. C. Burant, S. S. Iyengar, 
 J. Tomasi, M. Cossi, J. M. Millam, M. Klene, C. Adamo, R. Cammi, 
 J. W. Ochterski, R. L. Martin, K. Morokuma, O. Farkas, 
 J. B. Foresman, and D. J. Fox, Gaussian, Inc., Wallingford CT, 2016.
 
 ******************************************
 Gaussian 16:  ES64L-G16RevB.01 20-Dec-2017
                 9-Aug-2019 
 ******************************************
 %RWF=/dev/shm/,5GB,/tmp/scratch/1142050/,-1
 %NoSave
 %OldChk=ipaegh1dts.chk
 %Chk=/dev/shm/ipaegh1dts_t.chk
 Copying data from "ipaegh1dts.chk" to current chk file "/dev/shm/ipaegh1dts_t.chk"
 IOpt=  2 FromEx=T IUOpen= 4 IOptOp= 5 NList=   0 IFRang= 0 IUIn= 4 IUOut= 2.
 Default route: CacheSize=180224 MaxDisk=256GB
 ----------------------------------------------------------------------
 # m062x/Def2TZVP nosymm scf=xqc opt=(TS,ReadFC,NoFreeze) freq=NoRaman 
 guess=read geom=allcheck CPHF=Grid=Fine SCRF=(Solvent=1,2-EthaneDiol,R
 ead)
 ----------------------------------------------------------------------
 1/4=180224,5=1,10=3,18=20,26=3,29=2007,38=1,40=2/1,3;
 2/4=180224,9=110,12=2,15=1,40=1/2;
 3/4=180224,5=44,7=101,11=2,14=-4,25=1,30=1,70=2203,71=1,72=30,74=-55,116=-2/1,2,3;
 4/4=180224,5=1/1;
 5/4=180224,5=2,8=3,13=1,38=6,53=30/2,8;
 6/4=180224,7=2,8=2,9=2,10=2,28=1/1;
 7/4=180224,30=1/1,2,3,16;
 1/4=180224,5=1,18=20,26=3/3(2);
 2/4=180224,9=110,15=1/2;
 99/4=180224/99;
 2/4=180224,9=110,15=1/2;
 3/4=180224,5=44,7=101,11=2,14=-2,25=1,30=1,70=2205,71=1,72=30,74=-55/1,2,3;
 4/4=180224,5=5,16=3,69=1/1;
 5/4=180224,5=2,8=3,13=1,38=5,53=30/2,8;
 7/4=180224,30=1/1,2,3,16;
 1/4=180224,5=1,18=20,26=3/3(-5);
 2/4=180224,9=110,15=1/2;
 6/4=180224,7=2,8=2,9=2,10=2,19=2,28=1/1;
 99/4=180224,9=1/99;
 Structure from the checkpoint file:  "/dev/shm/ipaegh1dts_t.chk"
 ---------------------------------------------------
 Last conformation from file complete/ipaegh1dts.log
 ---------------------------------------------------
 Charge =  1 Multiplicity = 1
 Redundant internal coordinates found in file.  (old form).
 H,0,3.7068558323,20.0940591766,10.1115984043
 H,0,4.2499526256,16.260762907,14.0837087702
 C,0,4.1003859459,20.1832347142,11.1238634673
 H,0,4.3759614762,18.0578097722,11.3583512891
 H,0,3.9209087928,22.337019728,11.1803056086
 C,0,5.0995510025,20.4060716208,13.7274212291
 C,0,4.9810103763,19.157147836,13.1228409512
 C,0,4.4792859131,19.0398395763,11.8215779169
 C,0,4.2177986929,21.4381733732,11.7202349453
 C,0,4.7154680297,21.5470532008,13.0212021837
 C,0,5.4440432947,17.941512224,13.8691115407
 C,0,4.8546805314,22.8682274314,13.7086235741
 H,0,5.4832837839,20.5069666073,14.742827047
 H,0,4.5793914944,24.7103575772,13.4531412677
 O,0,4.7705569054,16.7271916003,13.4010766108
 O,0,5.4225188848,18.1047077845,15.1882538222
 O,0,4.4627701864,23.8883959621,12.9489406519
 O,0,5.2761229151,22.9978455963,14.8286936983
 H,0,7.3047646712,18.3095437132,11.6405798246
 C,0,7.6816076853,18.1515663278,12.6591758824
 O,0,9.8727046094,18.137881292,11.8984703639
 H,0,7.8082345643,19.1177435406,13.1636951653
 H,0,5.9392789245,16.4692694146,13.1278136466
 O,0,6.717661903,17.3895553543,13.4186613056
 C,0,8.9782024779,17.369440779,12.6544087812
 H,0,10.7179549001,17.6765163501,11.8569966229
 H,0,8.7988316016,16.3740553115,12.2122535877
 H,0,9.3140040424,17.225735219,13.695340848
 H,0,5.983984937,17.4504570097,15.6381709934
 Recover connectivity data from disk.
 Any frozen variables have been unfrozen.

 GradGradGradGradGradGradGradGradGradGradGradGradGradGradGradGradGradGrad
 Berny optimization.
 Initialization pass.
 Force constant matrix read from checkpoint file:
 "/dev/shm/ipaegh1dts_t.chk"
                           ----------------------------
                           !    Initial Parameters    !
                           ! (Angstroms and Degrees)  !
 --------------------------                            --------------------------
 ! Name  Definition              Value          Derivative Info.                !
 --------------------------------------------------------------------------------
 ! R1    R(1,3)                  1.0897         D2E/DX2 =    0.3703             !
 ! R2    R(2,15)                 0.977          D2E/DX2 =    0.5005             !
 ! R3    R(3,8)                  1.392          D2E/DX2 =    0.422              !
 ! R4    R(3,9)                  1.3944         D2E/DX2 =    0.4168             !
 ! R5    R(4,8)                  1.0907         D2E/DX2 =    0.3692             !
 ! R6    R(5,9)                  1.0898         D2E/DX2 =    0.3717             !
 ! R7    R(6,7)                  1.3926         D2E/DX2 =    0.4224             !
 ! R8    R(6,10)                 1.3957         D2E/DX2 =    0.4161             !
 ! R9    R(6,13)                 1.0902         D2E/DX2 =    0.3717             !
 ! R10   R(7,8)                  1.3996         D2E/DX2 =    0.4074             !
 ! R11   R(7,11)                 1.4997         D2E/DX2 =    0.3401             !
 ! R12   R(9,10)                 1.3972         D2E/DX2 =    0.4127             !
 ! R13   R(10,12)                1.4958         D2E/DX2 =    0.334              !
 ! R14   R(11,15)                1.4653         D2E/DX2 =    0.172              !
 ! R15   R(11,16)                1.3294         D2E/DX2 =    0.4991             !
 ! R16   R(11,24)                1.4593         D2E/DX2 =    0.1868             !
 ! R17   R(12,17)                1.331          D2E/DX2 =    0.4679             !
 ! R18   R(12,18)                1.2037         D2E/DX2 =    0.9147             !
 ! R19   R(14,17)                0.9713         D2E/DX2 =    0.5196             !
 ! R20   R(15,23)                1.2276         D2E/DX2 =    0.0484             !
 ! R21   R(16,29)                0.9725         D2E/DX2 =    0.5117             !
 ! R22   R(19,20)                1.0975         D2E/DX2 =    0.3511             !
 ! R23   R(20,22)                1.0973         D2E/DX2 =    0.3514             !
 ! R24   R(20,24)                1.4445         D2E/DX2 =    0.3154             !
 ! R25   R(20,25)                1.5142         D2E/DX2 =    0.3131             !
 ! R26   R(21,25)                1.4007         D2E/DX2 =    0.4044             !
 ! R27   R(21,26)                0.9639         D2E/DX2 =    0.5424             !
 ! R28   R(23,24)                1.2399         D2E/DX2 =    0.0434             !
 ! R29   R(25,27)                1.1038         D2E/DX2 =    0.3324             !
 ! R30   R(25,28)                1.1032         D2E/DX2 =    0.3343             !
 ! A1    A(1,3,8)              119.7803         D2E/DX2 =    0.0803             !
 ! A2    A(1,3,9)              120.0894         D2E/DX2 =    0.0802             !
 ! A3    A(8,3,9)              120.1295         D2E/DX2 =    0.0815             !
 ! A4    A(7,6,10)             119.343          D2E/DX2 =    0.0829             !
 ! A5    A(7,6,13)             121.1527         D2E/DX2 =    0.0779             !
 ! A6    A(10,6,13)            119.5039         D2E/DX2 =    0.0785             !
 ! A7    A(6,7,8)              120.6189         D2E/DX2 =    0.0889             !
 ! A8    A(6,7,11)             118.9888         D2E/DX2 =    0.1495             !
 ! A9    A(8,7,11)             120.3583         D2E/DX2 =    0.1479             !
 ! A10   A(3,8,4)              120.0591         D2E/DX2 =    0.0824             !
 ! A11   A(3,8,7)              119.6533         D2E/DX2 =    0.0822             !
 ! A12   A(4,8,7)              120.285          D2E/DX2 =    0.0822             !
 ! A13   A(3,9,5)              120.4959         D2E/DX2 =    0.0797             !
 ! A14   A(3,9,10)             119.8928         D2E/DX2 =    0.0823             !
 ! A15   A(5,9,10)             119.611          D2E/DX2 =    0.0799             !
 ! A16   A(6,10,9)             120.3619         D2E/DX2 =    0.0875             !
 ! A17   A(6,10,12)            117.6386         D2E/DX2 =    0.1393             !
 ! A18   A(9,10,12)            121.9994         D2E/DX2 =    0.1393             !
 ! A19   A(7,11,15)            111.7703         D2E/DX2 =    0.0406             !
 ! A20   A(7,11,16)            112.9095         D2E/DX2 =    0.0605             !
 ! A21   A(7,11,24)            114.9891         D2E/DX2 =    0.035              !
 ! A22   A(15,11,16)           114.2825         D2E/DX2 =    0.0348             !
 ! A23   A(15,11,24)            89.3753         D2E/DX2 =    0.0397             !
 ! A24   A(16,11,24)           111.5217         D2E/DX2 =    0.0347             !
 ! A25   A(10,12,17)           112.786          D2E/DX2 =    0.1982             !
 ! A26   A(10,12,18)           123.7327         D2E/DX2 =    0.1799             !
 ! A27   A(17,12,18)           123.4813         D2E/DX2 =    0.2112             !
 ! A28   A(2,15,11)            114.6679         D2E/DX2 =    0.0368             !
 ! A29   A(2,15,23)            124.2286         D2E/DX2 =    0.0104             !
 ! A30   A(11,15,23)            78.91           D2E/DX2 =    0.0414             !
 ! A31   A(11,16,29)           111.5401         D2E/DX2 =    0.1729             !
 ! A32   A(12,17,14)           108.4813         D2E/DX2 =    0.1674             !
 ! A33   A(19,20,22)           109.853          D2E/DX2 =    0.0222             !
 ! A34   A(19,20,24)           109.5585         D2E/DX2 =    0.0581             !
 ! A35   A(19,20,25)           111.4347         D2E/DX2 =    0.05               !
 ! A36   A(22,20,24)           107.4424         D2E/DX2 =    0.0541             !
 ! A37   A(22,20,25)           110.9424         D2E/DX2 =    0.0484             !
 ! A38   A(24,20,25)           107.4925         D2E/DX2 =    0.1496             !
 ! A39   A(25,21,26)           108.7015         D2E/DX2 =    0.1754             !
 ! A40   A(15,23,24)           112.9228         D2E/DX2 =    0.0539             !
 ! A41   A(11,24,20)           123.0351         D2E/DX2 =    0.0496             !
 ! A42   A(11,24,23)            78.7699         D2E/DX2 =    0.0369             !
 ! A43   A(20,24,23)           133.4022         D2E/DX2 =    0.0146             !
 ! A44   A(20,25,21)           105.3758         D2E/DX2 =    0.1572             !
 ! A45   A(20,25,27)           109.1405         D2E/DX2 =    0.0729             !
 ! A46   A(20,25,28)           108.9634         D2E/DX2 =    0.0722             !
 ! A47   A(21,25,27)           112.4758         D2E/DX2 =    0.0569             !
 ! A48   A(21,25,28)           112.7248         D2E/DX2 =    0.0567             !
 ! A49   A(27,25,28)           108.057          D2E/DX2 =    0.0278             !
 ! D1    D(1,3,8,4)             -0.4126         D2E/DX2 =    0.01               !
 ! D2    D(1,3,8,7)           -179.829          D2E/DX2 =    0.0087             !
 ! D3    D(9,3,8,4)            179.2794         D2E/DX2 =    0.0088             !
 ! D4    D(9,3,8,7)             -0.137          D2E/DX2 =    0.0092             !
 ! D5    D(1,3,9,5)             -0.1743         D2E/DX2 =    0.0101             !
 ! D6    D(1,3,9,10)           179.6215         D2E/DX2 =    0.0087             !
 ! D7    D(8,3,9,5)           -179.8653         D2E/DX2 =    0.0089             !
 ! D8    D(8,3,9,10)            -0.0695         D2E/DX2 =    0.0093             !
 ! D9    D(10,6,7,8)            -0.164          D2E/DX2 =    0.0076             !
 ! D10   D(10,6,7,11)          177.7211         D2E/DX2 =    0.007              !
 ! D11   D(13,6,7,8)           179.6086         D2E/DX2 =    0.0075             !
 ! D12   D(13,6,7,11)           -2.5062         D2E/DX2 =    0.0076             !
 ! D13   D(7,6,10,9)            -0.0449         D2E/DX2 =    0.0078             !
 ! D14   D(7,6,10,12)          179.803          D2E/DX2 =    0.0071             !
 ! D15   D(13,6,10,9)         -179.8214         D2E/DX2 =    0.0075             !
 ! D16   D(13,6,10,12)           0.0265         D2E/DX2 =    0.008              !
 ! D17   D(6,7,8,3)              0.2555         D2E/DX2 =    0.0076             !
 ! D18   D(6,7,8,4)           -179.1596         D2E/DX2 =    0.0077             !
 ! D19   D(11,7,8,3)          -177.6007         D2E/DX2 =    0.007              !
 ! D20   D(11,7,8,4)             2.9842         D2E/DX2 =    0.0077             !
 ! D21   D(6,7,11,15)          155.8499         D2E/DX2 =    0.0125             !
 ! D22   D(6,7,11,16)           25.3447         D2E/DX2 =    0.0114             !
 ! D23   D(6,7,11,24)         -104.1771         D2E/DX2 =    0.0126             !
 ! D24   D(8,7,11,15)          -26.2593         D2E/DX2 =    0.0127             !
 ! D25   D(8,7,11,16)         -156.7645         D2E/DX2 =    0.0116             !
 ! D26   D(8,7,11,24)           73.7137         D2E/DX2 =    0.0128             !
 ! D27   D(3,9,10,6)             0.1616         D2E/DX2 =    0.0079             !
 ! D28   D(3,9,10,12)         -179.6795         D2E/DX2 =    0.0072             !
 ! D29   D(5,9,10,6)           179.9592         D2E/DX2 =    0.0079             !
 ! D30   D(5,9,10,12)            0.1181         D2E/DX2 =    0.0081             !
 ! D31   D(6,10,12,17)         179.9455         D2E/DX2 =    0.0138             !
 ! D32   D(6,10,12,18)          -0.0318         D2E/DX2 =    0.0151             !
 ! D33   D(9,10,12,17)          -0.2093         D2E/DX2 =    0.0142             !
 ! D34   D(9,10,12,18)         179.8135         D2E/DX2 =    0.0137             !
 ! D35   D(7,11,15,2)         -119.482          D2E/DX2 =    0.017              !
 ! D36   D(7,11,15,23)         117.7839         D2E/DX2 =    0.0264             !
 ! D37   D(16,11,15,2)          10.3122         D2E/DX2 =    0.0165             !
 ! D38   D(16,11,15,23)       -112.4219         D2E/DX2 =    0.0274             !
 ! D39   D(24,11,15,2)         123.7383         D2E/DX2 =    0.0115             !
 ! D40   D(24,11,15,23)          1.0042         D2E/DX2 =    0.005              !
 ! D41   D(7,11,16,29)        -161.1613         D2E/DX2 =    0.0142             !
 ! D42   D(15,11,16,29)         69.6122         D2E/DX2 =    0.0163             !
 ! D43   D(24,11,16,29)        -29.8881         D2E/DX2 =    0.0146             !
 ! D44   D(7,11,24,20)          20.1195         D2E/DX2 =    0.0189             !
 ! D45   D(7,11,24,23)        -114.8316         D2E/DX2 =    0.0275             !
 ! D46   D(15,11,24,20)        133.9563         D2E/DX2 =    0.013              !
 ! D47   D(15,11,24,23)         -0.9947         D2E/DX2 =    0.0049             !
 ! D48   D(16,11,24,20)       -110.0811         D2E/DX2 =    0.0181             !
 ! D49   D(16,11,24,23)        114.9678         D2E/DX2 =    0.0266             !
 ! D50   D(10,12,17,14)       -179.9771         D2E/DX2 =    0.0219             !
 ! D51   D(18,12,17,14)          0.0002         D2E/DX2 =    0.02               !
 ! D52   D(2,15,23,24)        -113.6814         D2E/DX2 =    0.0289             !
 ! D53   D(11,15,23,24)         -1.2832         D2E/DX2 =    0.0082             !
 ! D54   D(19,20,24,11)        -71.5402         D2E/DX2 =    0.0151             !
 ! D55   D(19,20,24,23)         35.6321         D2E/DX2 =    0.0144             !
 ! D56   D(22,20,24,11)         47.7607         D2E/DX2 =    0.0148             !
 ! D57   D(22,20,24,23)        154.9329         D2E/DX2 =    0.015              !
 ! D58   D(25,20,24,11)        167.2223         D2E/DX2 =    0.0123             !
 ! D59   D(25,20,24,23)        -85.6054         D2E/DX2 =    0.0123             !
 ! D60   D(19,20,25,21)         59.3562         D2E/DX2 =    0.0185             !
 ! D61   D(19,20,25,27)        -61.6497         D2E/DX2 =    0.0184             !
 ! D62   D(19,20,25,28)       -179.4369         D2E/DX2 =    0.0162             !
 ! D63   D(22,20,25,21)        -63.3886         D2E/DX2 =    0.0181             !
 ! D64   D(22,20,25,27)        175.6055         D2E/DX2 =    0.0162             !
 ! D65   D(22,20,25,28)         57.8183         D2E/DX2 =    0.0183             !
 ! D66   D(24,20,25,21)        179.4098         D2E/DX2 =    0.0197             !
 ! D67   D(24,20,25,27)         58.4039         D2E/DX2 =    0.0179             !
 ! D68   D(24,20,25,28)        -59.3833         D2E/DX2 =    0.0179             !
 ! D69   D(26,21,25,20)       -179.4558         D2E/DX2 =    0.018              !
 ! D70   D(26,21,25,27)        -60.6541         D2E/DX2 =    0.0278             !
 ! D71   D(26,21,25,28)         61.822          D2E/DX2 =    0.0276             !
 ! D72   D(15,23,24,11)          1.2891         D2E/DX2 =    0.0083             !
 ! D73   D(15,23,24,20)       -123.9649         D2E/DX2 =    0.029              !
 --------------------------------------------------------------------------------
 Trust Radius=3.00D-01 FncErr=1.00D-07 GrdErr=1.00D-06 EigMax=2.50D+02 EigMin=1.00D-04
 Number of steps in this run=    162 maximum allowed number of steps=    174.
 Search for a saddle point of order  1.
 GradGradGradGradGradGradGradGradGradGradGradGradGradGradGradGradGradGrad

                          Input orientation:                          
 ---------------------------------------------------------------------
 Center     Atomic      Atomic             Coordinates (Angstroms)
 Number     Number       Type             X           Y           Z
 ---------------------------------------------------------------------
      1          1           0        3.706856   20.094059   10.111598
      2          1           0        4.249953   16.260763   14.083709
      3          6           0        4.100386   20.183235   11.123863
      4          1           0        4.375961   18.057810   11.358351
      5          1           0        3.920909   22.337020   11.180306
      6          6           0        5.099551   20.406072   13.727421
      7          6           0        4.981010   19.157148   13.122841
      8          6           0        4.479286   19.039840   11.821578
      9          6           0        4.217799   21.438173   11.720235
     10          6           0        4.715468   21.547053   13.021202
     11          6           0        5.444043   17.941512   13.869112
     12          6           0        4.854681   22.868227   13.708624
     13          1           0        5.483284   20.506967   14.742827
     14          1           0        4.579391   24.710358   13.453141
     15          8           0        4.770557   16.727192   13.401077
     16          8           0        5.422519   18.104708   15.188254
     17          8           0        4.462770   23.888396   12.948941
     18          8           0        5.276123   22.997846   14.828694
     19          1           0        7.304765   18.309544   11.640580
     20          6           0        7.681608   18.151566   12.659176
     21          8           0        9.872705   18.137881   11.898470
     22          1           0        7.808235   19.117744   13.163695
     23          1           0        5.939279   16.469269   13.127814
     24          8           0        6.717662   17.389555   13.418661
     25          6           0        8.978202   17.369441   12.654409
     26          1           0       10.717955   17.676516   11.856997
     27          1           0        8.798832   16.374055   12.212254
     28          1           0        9.314004   17.225735   13.695341
     29          1           0        5.983985   17.450457   15.638171
 ---------------------------------------------------------------------
                    Distance matrix (angstroms):
                    1          2          3          4          5
     1  H    0.000000
     2  H    5.546781   0.000000
     3  C    1.089724   4.916181   0.000000
     4  H    2.479598   3.266930   2.156005   0.000000
     5  H    2.493757   6.742323   2.161987   4.307019   0.000000
     6  C    3.887303   4.246451   2.797588   3.413269   3.406693
     7  C    3.401302   3.137954   2.413351   2.165191   3.874125
     8  C    2.152221   3.590696   1.392021   1.090705   3.405057
     9  C    2.157642   5.691452   1.394387   3.403356   1.089767
    10  C    3.405038   5.412069   2.416241   3.880098   2.155057
    11  C    4.665853   2.072878   3.790399   2.730978   5.373091
    12  C    4.685307   6.645673   3.802516   5.375227   2.747090
    13  H    4.977396   4.470547   3.887686   4.321945   4.299031
    14  H    5.765192   8.479493   5.113690   6.977530   3.351435
    15  O    4.825756   0.977022   4.192739   2.469611   6.092938
    16  O    5.716069   2.448482   4.752639   3.970596   6.019215
    17  O    4.797803   7.714517   4.146137   6.044274   2.414219
    18  O    5.757218   6.855386   4.798975   6.103894   3.947662
    19  H    4.297351   4.415683   3.747767   2.953119   5.280426
    20  C    5.105104   4.169015   4.394316   3.553622   5.817898
    21  O    6.710979   6.317767   6.172775   5.523796   7.319317
    22  H    5.204786   4.655119   4.363981   4.020351   5.422995
    23  H    5.217314   1.952187   4.603356   2.845772   6.503622
    24  O    5.226467   2.793931   4.463281   3.189828   6.108148
    25  C    6.455736   5.062451   5.835503   4.830553   7.240583
    26  H    7.618821   6.985532   7.114305   6.372983   8.269101
    27  H    6.646758   4.920110   6.145717   4.808946   7.772772
    28  H    7.246420   5.169779   6.522355   5.526132   7.844495
    29  H    6.535821   2.615070   5.603123   4.612101   6.928733
                    6          7          8          9         10
     6  C    0.000000
     7  C    1.392616   0.000000
     8  C    2.425605   1.399562   0.000000
     9  C    2.423122   2.784398   2.414674   0.000000
    10  C    1.395745   2.406759   2.789444   1.397156   0.000000
    11  C    2.492550   1.499696   2.515845   4.283455   3.774877
    12  C    2.474374   3.759150   4.284672   2.530684   1.495804
    13  H    1.090174   2.167636   3.419674   3.406562   2.152978
    14  H    4.344269   5.577503   5.901423   3.720336   3.195557
    15  O    3.707950   2.454871   2.815670   5.032308   4.835122
    16  O    2.744925   2.359765   3.619208   4.958881   4.128653
    17  O    3.624652   4.762722   4.977923   2.751966   2.356048
    18  O    2.821572   4.212836   5.034233   3.635264   2.384567
    19  H    3.689621   2.883637   2.923940   4.395910   4.369444
    20  C    3.590398   2.918802   3.427166   4.866351   4.523094
    21  O    5.592204   5.144576   5.468858   6.549936   6.283317
    22  H    3.051974   2.827794   3.590160   4.512117   3.935360
    23  H    4.069777   2.853593   3.231975   5.443783   5.224267
    24  O    3.437002   2.495566   3.206936   5.052255   4.631581
    25  C    5.041470   4.403734   4.870738   6.331565   5.979790
    26  H    6.520385   6.058644   6.385992   7.511378   7.236455
    27  H    5.677813   4.811500   5.090924   6.846403   6.639892
    28  H    5.279885   4.778383   5.493311   6.900506   6.346242
    29  H    3.628890   3.200881   4.399618   5.862723   5.023919
                   11         12         13         14         15
    11  C    0.000000
    12  C    4.964436   0.000000
    13  H    2.710438   2.653351   0.000000
    14  H    6.836514   1.880026   4.488742   0.000000
    15  O    1.465338   6.149308   4.073693   7.985624   0.000000
    16  O    1.329373   5.020246   2.443961   6.881576   2.348746
    17  O    6.097134   1.330960   3.961507   0.971308   7.182062
    18  O    5.149321   1.203732   2.500953   2.304404   6.450953
    19  H    2.926446   5.573268   4.215495   7.189121   3.467765
    20  C    2.552403   5.598192   3.836944   7.298758   3.324677
    21  O    4.851291   7.129754   5.741946   8.581003   5.502707
    22  H    2.733228   4.804847   3.135123   6.464251   3.872799
    23  H    1.721127   6.516161   4.372551   8.358868   1.227643
    24  O    1.459338   5.794016   3.604907   7.626764   2.056758
    25  C    3.780615   6.953521   5.140040   8.595148   4.321375
    26  H    5.650927   8.047383   6.613717   9.471249   6.217471
    27  H    4.056686   7.744012   5.871764   9.425360   4.214855
    28  H    3.939433   7.191902   5.151517   8.859728   4.580180
    29  H    1.913699   5.860949   3.224065   7.710603   2.645772
                   16         17         18         19         20
    16  O    0.000000
    17  O    6.275882   0.000000
    18  O    4.908514   2.233404   0.000000
    19  H    4.021293   6.396275   6.021597   0.000000
    20  C    3.391447   6.584534   5.829201   1.097500   0.000000
    21  O    5.534251   7.964879   7.303015   2.586560   2.319432
    22  H    3.288878   5.830727   4.923312   1.796260   1.097302
    23  H    2.680879   7.566737   6.779017   2.731854   2.466871
    24  O    2.306577   6.894933   5.959794   2.086299   1.444531
    25  C    4.427626   7.935531   7.078972   2.170723   1.514233
    26  H    6.270747   8.882968   8.170744   3.478136   3.176251
    27  H    4.821952   8.706862   7.945428   2.511008   2.146503
    28  H    4.259699   8.275423   7.134860   3.071437   2.143716
    29  H    0.972478   7.140946   5.650650   4.296885   3.499698
                   21         22         23         24         25
    21  O    0.000000
    22  H    2.612080   0.000000
    23  H    4.446053   3.241712   0.000000
    24  O    3.581238   2.059367   1.239919   0.000000
    25  C    1.400742   2.164431   3.204602   2.386321   0.000000
    26  H    0.963860   3.500153   5.090006   4.303892   1.938272
    27  H    2.088719   3.068281   3.004057   2.611116   1.103842
    28  H    2.091148   2.475820   3.504725   2.616177   1.103156
    29  H    5.438755   3.497251   2.695667   2.338421   4.227853
                   26         27         28         29
    26  H    0.000000
    27  H    2.346411   0.000000
    28  H    2.356648   1.786144   0.000000
    29  H    6.062908   4.562775   3.861880   0.000000
 Symmetry turned off by external request.
 Stoichiometry    C10H13O6(1+)
 Framework group  C1[X(C10H13O6)]
 Deg. of freedom    81
 Full point group                 C1      NOp   1
 Rotational constants (GHZ):           0.7078036           0.2925567           0.2674047
 Standard basis: def2TZVP (5D, 7F)
   574 basis functions,   920 primitive gaussians,   654 cartesian basis functions
    60 alpha electrons       60 beta electrons
       nuclear repulsion energy      1144.5592933192 Hartrees.
 NAtoms=   29 NActive=   29 NUniq=   29 SFac= 1.00D+00 NAtFMM=   60 NAOKFM=F Big=F
 Integral buffers will be    131072 words long.
 Raffenetti 2 integral format.
 Two-electron integral symmetry is turned off.
 Using the following non-standard input for PCM:
 PDENS=7.0
 --- end of non-standard input.
 ------------------------------------------------------------------------------
 Polarizable Continuum Model (PCM)
 =================================
 Model                : PCM.
 Atomic radii         : UFF (Universal Force Field).
 Polarization charges : Total charges.
 Charge compensation  : None.
 Solution method      : On-the-fly selection.
 Cavity type          : Scaled VdW (van der Waals Surface) (Alpha=1.100).
 Cavity algorithm     : GePol (No added spheres)
                        Default sphere list used, NSphG=   29.
                        Lebedev-Laikov grids with approx.  7.0 points / Ang**2.
                        Smoothing algorithm: York/Karplus (Gamma=1.0000).
                        Polarization charges: spherical gaussians, with
                                              point-specific exponents (IZeta= 3).
                        Self-potential: point-specific (ISelfS= 7).
                        Self-field    : sphere-specific E.n sum rule (ISelfD= 2).
 1st derivatives      : Analytical E(r).r(x)/FMM algorithm (CHGder, D1EAlg=3).
                        Cavity 1st derivative terms included.
 Solvent              : 1,2-EthaneDiol, Eps=  40.245000 Eps(inf)=   2.050051
 ------------------------------------------------------------------------------
 One-electron integrals computed using PRISM.
   1 Symmetry operations used in ECPInt.
 ECPInt:  NShTT=   26106 NPrTT=   79792 LenC2=   23277 LenP2D=   51759.
 LDataN:  DoStor=T MaxTD1= 6 Len=  172
 NBasis=   574 RedAO= T EigKep=  7.20D-06  NBF=   574
 NBsUse=   574 1.00D-06 EigRej= -1.00D+00 NBFU=   574
 Initial guess from the checkpoint file:  "/dev/shm/ipaegh1dts_t.chk"
 B after Tr=     0.000000    0.000000    0.000000
         Rot=    1.000000    0.000000    0.000000    0.000000 Ang=   0.00 deg.
 Requested convergence on RMS density matrix=1.00D-08 within  32 cycles.
 Requested convergence on MAX density matrix=1.00D-06.
 Requested convergence on             energy=1.00D-06.
 No special actions if energy rises.
 Inv3:  Mode=1 IEnd=    33627312.
 Iteration    1 A*A^-1 deviation from unit magnitude is 3.11D-15 for    372.
 Iteration    1 A*A^-1 deviation from orthogonality  is 2.22D-15 for   2674    145.
 Iteration    1 A^-1*A deviation from unit magnitude is 3.33D-15 for   1511.
 Iteration    1 A^-1*A deviation from orthogonality  is 5.11D-15 for   2757   2674.
 Error on total polarization charges =  0.01070
 SCF Done:  E(RM062X) =  -840.030700701     A.U. after   12 cycles
            NFock= 12  Conv=0.71D-08     -V/T= 2.0048
 QCSCF skips out because SCF is already converged.

 **********************************************************************

            Population analysis using the SCF Density.

 **********************************************************************

 Alpha  occ. eigenvalues --  -19.74635 -19.74398 -19.70853 -19.68894 -19.64612
 Alpha  occ. eigenvalues --  -19.63557 -10.78501 -10.69796 -10.63172 -10.60783
 Alpha  occ. eigenvalues --  -10.59652 -10.58559 -10.58479 -10.58462 -10.57988
 Alpha  occ. eigenvalues --  -10.57320  -1.34295  -1.25873  -1.23425  -1.21564
 Alpha  occ. eigenvalues --   -1.17179  -1.16174  -1.00586  -0.92408  -0.90277
 Alpha  occ. eigenvalues --   -0.88813  -0.81637  -0.78373  -0.77707  -0.73160
 Alpha  occ. eigenvalues --   -0.71141  -0.69593  -0.68345  -0.66146  -0.64853
 Alpha  occ. eigenvalues --   -0.61140  -0.60751  -0.59805  -0.59411  -0.58055
 Alpha  occ. eigenvalues --   -0.56094  -0.55511  -0.54871  -0.54044  -0.53113
 Alpha  occ. eigenvalues --   -0.51234  -0.50718  -0.49650  -0.48871  -0.47218
 Alpha  occ. eigenvalues --   -0.46685  -0.45319  -0.44050  -0.43625  -0.42656
 Alpha  occ. eigenvalues --   -0.41941  -0.38139  -0.37358  -0.34882  -0.34262
 Alpha virt. eigenvalues --   -0.04550  -0.02324   0.02824   0.05553   0.06246
 Alpha virt. eigenvalues --    0.07016   0.07259   0.07707   0.09031   0.09298
 Alpha virt. eigenvalues --    0.11219   0.12006   0.12219   0.13446   0.13648
 Alpha virt. eigenvalues --    0.14087   0.14379   0.15270   0.16002   0.16935
 Alpha virt. eigenvalues --    0.17262   0.18101   0.20506   0.21293   0.21580
 Alpha virt. eigenvalues --    0.22168   0.22713   0.23026   0.24368   0.24582
 Alpha virt. eigenvalues --    0.25357   0.25544   0.26169   0.26859   0.27239
 Alpha virt. eigenvalues --    0.27827   0.28676   0.29925   0.30273   0.30527
 Alpha virt. eigenvalues --    0.31791   0.32438   0.33511   0.34927   0.35282
 Alpha virt. eigenvalues --    0.36088   0.36229   0.37004   0.38578   0.39054
 Alpha virt. eigenvalues --    0.39622   0.39976   0.40258   0.40756   0.40995
 Alpha virt. eigenvalues --    0.42090   0.43159   0.43354   0.44316   0.44563
 Alpha virt. eigenvalues --    0.45136   0.45605   0.46204   0.46735   0.47655
 Alpha virt. eigenvalues --    0.48625   0.49175   0.49557   0.50170   0.50855
 Alpha virt. eigenvalues --    0.51249   0.51770   0.52108   0.52162   0.53239
 Alpha virt. eigenvalues --    0.53887   0.54456   0.54846   0.55598   0.56913
 Alpha virt. eigenvalues --    0.57781   0.58852   0.59786   0.61020   0.61392
 Alpha virt. eigenvalues --    0.62693   0.63719   0.64494   0.65151   0.66354
 Alpha virt. eigenvalues --    0.67156   0.67725   0.68682   0.69950   0.70009
 Alpha virt. eigenvalues --    0.70764   0.71637   0.72669   0.73507   0.74690
 Alpha virt. eigenvalues --    0.75441   0.77016   0.77754   0.78484   0.79065
 Alpha virt. eigenvalues --    0.79308   0.80120   0.81069   0.83136   0.83612
 Alpha virt. eigenvalues --    0.85183   0.86659   0.87028   0.88114   0.88561
 Alpha virt. eigenvalues --    0.89825   0.90305   0.91370   0.92881   0.94400
 Alpha virt. eigenvalues --    0.94556   0.95907   0.96683   0.98626   0.98912
 Alpha virt. eigenvalues --    0.99987   1.01343   1.02532   1.03929   1.04496
 Alpha virt. eigenvalues --    1.06204   1.07745   1.10289   1.11050   1.12404
 Alpha virt. eigenvalues --    1.13725   1.15648   1.16607   1.18795   1.20775
 Alpha virt. eigenvalues --    1.21150   1.22815   1.23965   1.24747   1.25492
 Alpha virt. eigenvalues --    1.26896   1.28078   1.30291   1.31262   1.33074
 Alpha virt. eigenvalues --    1.35018   1.36203   1.36423   1.37647   1.38171
 Alpha virt. eigenvalues --    1.39230   1.40252   1.41284   1.44664   1.45014
 Alpha virt. eigenvalues --    1.46205   1.46529   1.47192   1.48674   1.49739
 Alpha virt. eigenvalues --    1.51615   1.53283   1.54441   1.55193   1.56673
 Alpha virt. eigenvalues --    1.57274   1.58194   1.59562   1.60297   1.60417
 Alpha virt. eigenvalues --    1.62576   1.62991   1.63645   1.64489   1.66021
 Alpha virt. eigenvalues --    1.66277   1.66806   1.67630   1.68588   1.69096
 Alpha virt. eigenvalues --    1.70385   1.70953   1.73033   1.74178   1.75088
 Alpha virt. eigenvalues --    1.78331   1.78746   1.79309   1.80244   1.80930
 Alpha virt. eigenvalues --    1.82423   1.83636   1.84824   1.85537   1.86143
 Alpha virt. eigenvalues --    1.86884   1.87566   1.89412   1.90441   1.91198
 Alpha virt. eigenvalues --    1.93097   1.95195   1.96206   1.96755   1.97332
 Alpha virt. eigenvalues --    1.98010   1.98809   2.01064   2.02471   2.03174
 Alpha virt. eigenvalues --    2.04448   2.05743   2.06470   2.08296   2.09028
 Alpha virt. eigenvalues --    2.10243   2.12085   2.13020   2.13729   2.15326
 Alpha virt. eigenvalues --    2.16910   2.17764   2.20147   2.20385   2.21366
 Alpha virt. eigenvalues --    2.22267   2.23407   2.24823   2.25124   2.25678
 Alpha virt. eigenvalues --    2.27679   2.28548   2.29786   2.30224   2.32413
 Alpha virt. eigenvalues --    2.32989   2.34713   2.35616   2.36175   2.37943
 Alpha virt. eigenvalues --    2.38700   2.40799   2.41347   2.42977   2.45090
 Alpha virt. eigenvalues --    2.45676   2.48162   2.48347   2.49145   2.52173
 Alpha virt. eigenvalues --    2.52939   2.54022   2.55081   2.55569   2.57616
 Alpha virt. eigenvalues --    2.58732   2.60111   2.61577   2.61760   2.62888
 Alpha virt. eigenvalues --    2.63097   2.63545   2.64326   2.66195   2.66852
 Alpha virt. eigenvalues --    2.68038   2.69140   2.69815   2.71987   2.72331
 Alpha virt. eigenvalues --    2.74371   2.74917   2.75900   2.77963   2.79051
 Alpha virt. eigenvalues --    2.79863   2.80357   2.81351   2.82091   2.82602
 Alpha virt. eigenvalues --    2.83971   2.84737   2.85909   2.87007   2.87176
 Alpha virt. eigenvalues --    2.87940   2.88843   2.89586   2.90620   2.91477
 Alpha virt. eigenvalues --    2.93081   2.94556   2.97055   2.97511   2.98296
 Alpha virt. eigenvalues --    2.99508   3.02471   3.03478   3.03923   3.04632
 Alpha virt. eigenvalues --    3.06615   3.07086   3.07522   3.09657   3.10741
 Alpha virt. eigenvalues --    3.11890   3.13321   3.14671   3.14844   3.16106
 Alpha virt. eigenvalues --    3.16827   3.17170   3.18027   3.19186   3.19837
 Alpha virt. eigenvalues --    3.20563   3.22121   3.23007   3.23310   3.25192
 Alpha virt. eigenvalues --    3.25809   3.27021   3.28624   3.28762   3.28814
 Alpha virt. eigenvalues --    3.31005   3.32145   3.33255   3.33675   3.34351
 Alpha virt. eigenvalues --    3.34584   3.35464   3.36438   3.37354   3.37954
 Alpha virt. eigenvalues --    3.38774   3.39711   3.42432   3.42629   3.44240
 Alpha virt. eigenvalues --    3.45560   3.46045   3.47283   3.48188   3.49502
 Alpha virt. eigenvalues --    3.50043   3.51403   3.53787   3.54750   3.55902
 Alpha virt. eigenvalues --    3.57565   3.58378   3.60555   3.62162   3.62285
 Alpha virt. eigenvalues --    3.65839   3.68132   3.68959   3.70495   3.71937
 Alpha virt. eigenvalues --    3.74484   3.75705   3.78064   3.79850   3.81244
 Alpha virt. eigenvalues --    3.83081   3.83698   3.85577   3.86981   3.89431
 Alpha virt. eigenvalues --    3.91578   3.92360   3.94705   3.96223   3.99844
 Alpha virt. eigenvalues --    4.02645   4.03464   4.05622   4.07018   4.09232
 Alpha virt. eigenvalues --    4.11952   4.12849   4.14826   4.15515   4.15859
 Alpha virt. eigenvalues --    4.18268   4.18949   4.20991   4.22790   4.24125
 Alpha virt. eigenvalues --    4.27067   4.27768   4.31645   4.34999   4.38081
 Alpha virt. eigenvalues --    4.42664   4.43532   4.47656   4.52074   4.53345
 Alpha virt. eigenvalues --    4.54518   4.56724   4.58472   4.61507   4.64258
 Alpha virt. eigenvalues --    4.67213   4.72419   4.75152   4.76798   4.79985
 Alpha virt. eigenvalues --    4.84622   4.86211   4.90496   4.92170   5.07585
 Alpha virt. eigenvalues --    5.10781   5.12237   5.14766   5.16194   5.18691
 Alpha virt. eigenvalues --    5.21396   5.22387   5.25227   5.26665   5.27865
 Alpha virt. eigenvalues --    5.30638   5.31643   5.33412   5.36580   5.36782
 Alpha virt. eigenvalues --    5.37470   5.38264   5.43086   5.44637   5.47089
 Alpha virt. eigenvalues --    5.49585   5.50184   5.52628   5.53993   5.61511
 Alpha virt. eigenvalues --    5.65204   5.68397   5.72982   5.73881   5.77496
 Alpha virt. eigenvalues --    5.82691   5.84714   5.85184   5.90017   5.91061
 Alpha virt. eigenvalues --    5.94522   5.96070   5.99470   6.03177   6.09867
 Alpha virt. eigenvalues --    6.14301   6.23302   6.23756   6.27185   6.29357
 Alpha virt. eigenvalues --    6.30138   6.31436   6.38015   6.43049   6.43104
 Alpha virt. eigenvalues --    6.46360   6.49272   6.51412   6.61745   6.62468
 Alpha virt. eigenvalues --    6.65916   6.68107   6.68684   6.70343   6.70552
 Alpha virt. eigenvalues --    6.73630   6.79959   6.80822   6.83726   6.88856
 Alpha virt. eigenvalues --    6.92915   6.93204   6.93232   6.98220   7.03133
 Alpha virt. eigenvalues --    7.08626   7.10816   7.12405   7.15971   7.19509
 Alpha virt. eigenvalues --    7.29631   7.37575   7.40647  22.33376  22.45532
 Alpha virt. eigenvalues --   22.55120  22.70459  22.77469  22.87678  22.93028
 Alpha virt. eigenvalues --   23.09795  23.28963  23.55750  43.91904  43.97365
 Alpha virt. eigenvalues --   44.01011  44.07995  44.12141  44.54386
          Condensed to atoms (all electrons):
               1          2          3          4          5          6
     1  H    0.462876  -0.000001   0.420504  -0.003041  -0.002933  -0.000139
     2  H   -0.000001   0.281131   0.000092   0.000017  -0.000000  -0.000802
     3  C    0.420504   0.000092   5.022418  -0.026544  -0.027615  -0.092752
     4  H   -0.003041   0.000017  -0.026544   0.437434  -0.000111   0.007664
     5  H   -0.002933  -0.000000  -0.027615  -0.000111   0.450979   0.008049
     6  C   -0.000139  -0.000802  -0.092752   0.007664   0.008049   5.525880
     7  C    0.005747   0.004731   0.007989  -0.046923  -0.000018   0.098862
     8  C   -0.036344   0.001279   0.423426   0.418836   0.002695  -0.015833
     9  C   -0.033758  -0.000016   0.425120   0.003524   0.406991   0.000458
    10  C    0.005697   0.000107   0.011460  -0.001137  -0.025537   0.207953
    11  C   -0.000537  -0.017034  -0.026718   0.003481   0.000218   0.043120
    12  C   -0.000054   0.000001   0.004330   0.000123  -0.011857  -0.054965
    13  H    0.000040  -0.000019  -0.001994  -0.000091  -0.000134   0.379235
    14  H   -0.000001  -0.000000   0.000020   0.000000  -0.000178  -0.001238
    15  O   -0.000081   0.301649  -0.008187   0.003708   0.000003   0.007526
    16  O    0.000001   0.002989  -0.000832   0.000194   0.000002   0.031560
    17  O   -0.000074   0.000000  -0.001249   0.000001   0.007725   0.008942
    18  O    0.000005   0.000000  -0.000098   0.000001   0.000086   0.032098
    19  H    0.000066  -0.000090   0.001243  -0.000386   0.000005   0.007024
    20  C   -0.000017  -0.000325  -0.001002   0.000028   0.000008  -0.005061
    21  O    0.000000  -0.000001   0.000018  -0.000007  -0.000000  -0.000153
    22  H   -0.000007   0.000029  -0.000130  -0.000052  -0.000003  -0.024090
    23  H    0.000001  -0.001589   0.000555  -0.000484   0.000000  -0.003376
    24  O   -0.000010   0.006375  -0.001469   0.000462  -0.000001   0.011905
    25  C   -0.000002   0.000013  -0.000022  -0.000058  -0.000000  -0.000023
    26  H   -0.000000   0.000000  -0.000001   0.000000   0.000000   0.000005
    27  H   -0.000000   0.000014   0.000001   0.000006  -0.000000  -0.000291
    28  H    0.000000  -0.000015   0.000006  -0.000004   0.000000   0.000429
    29  H   -0.000000   0.000085   0.000051  -0.000003   0.000000  -0.001812
               7          8          9         10         11         12
     1  H    0.005747  -0.036344  -0.033758   0.005697  -0.000537  -0.000054
     2  H    0.004731   0.001279  -0.000016   0.000107  -0.017034   0.000001
     3  C    0.007989   0.423426   0.425120   0.011460  -0.026718   0.004330
     4  H   -0.046923   0.418836   0.003524  -0.001137   0.003481   0.000123
     5  H   -0.000018   0.002695   0.406991  -0.025537   0.000218  -0.011857
     6  C    0.098862  -0.015833   0.000458   0.207953   0.043120  -0.054965
     7  C    5.901237   0.330159  -0.080949   0.063159   0.018563  -0.002857
     8  C    0.330159   5.131643   0.013368  -0.075431  -0.024700   0.001698
     9  C   -0.080949   0.013368   5.024589   0.399968   0.015312  -0.039891
    10  C    0.063159  -0.075431   0.399968   5.517047  -0.032975   0.233675
    11  C    0.018563  -0.024700   0.015312  -0.032975   4.845661  -0.004157
    12  C   -0.002857   0.001698  -0.039891   0.233675  -0.004157   4.415046
    13  H   -0.015507   0.006923   0.005489  -0.020815  -0.003568  -0.009428
    14  H    0.000087  -0.000019  -0.002437   0.026407   0.000002  -0.028730
    15  O   -0.064049  -0.010407   0.001170  -0.002317   0.261812  -0.000017
    16  O   -0.173742   0.002396   0.000752  -0.008799   0.469043  -0.000263
    17  O   -0.000950   0.000643   0.019682  -0.175829  -0.000024   0.435089
    18  O    0.001336   0.000402   0.003084  -0.168070  -0.000497   0.699798
    19  H    0.017781  -0.022217  -0.000300  -0.000168  -0.009261  -0.000014
    20  C    0.008763  -0.010998   0.000360  -0.001414  -0.041980   0.000063
    21  O    0.000227  -0.000189  -0.000006   0.000009   0.000268   0.000000
    22  H    0.017015   0.006758  -0.000078  -0.000288  -0.001716   0.000149
    23  H    0.023526  -0.000194  -0.000097   0.000047  -0.044402   0.000006
    24  O   -0.115387   0.006545   0.000451   0.000853   0.250296  -0.000003
    25  C   -0.001435   0.000834  -0.000043   0.000044   0.011597  -0.000001
    26  H   -0.000008   0.000008   0.000000  -0.000000  -0.000039  -0.000000
    27  H    0.000187   0.000428   0.000000   0.000004  -0.000514   0.000000
    28  H   -0.000633  -0.000334   0.000000  -0.000006   0.001057  -0.000001
    29  H    0.020367  -0.001031  -0.000025   0.000047  -0.022594   0.000008
              13         14         15         16         17         18
     1  H    0.000040  -0.000001  -0.000081   0.000001  -0.000074   0.000005
     2  H   -0.000019  -0.000000   0.301649   0.002989   0.000000   0.000000
     3  C   -0.001994   0.000020  -0.008187  -0.000832  -0.001249  -0.000098
     4  H   -0.000091   0.000000   0.003708   0.000194   0.000001   0.000001
     5  H   -0.000134  -0.000178   0.000003   0.000002   0.007725   0.000086
     6  C    0.379235  -0.001238   0.007526   0.031560   0.008942   0.032098
     7  C   -0.015507   0.000087  -0.064049  -0.173742  -0.000950   0.001336
     8  C    0.006923  -0.000019  -0.010407   0.002396   0.000643   0.000402
     9  C    0.005489  -0.002437   0.001170   0.000752   0.019682   0.003084
    10  C   -0.020815   0.026407  -0.002317  -0.008799  -0.175829  -0.168070
    11  C   -0.003568   0.000002   0.261812   0.469043  -0.000024  -0.000497
    12  C   -0.009428  -0.028730  -0.000017  -0.000263   0.435089   0.699798
    13  H    0.424672  -0.000092   0.000380   0.009254   0.000869   0.018123
    14  H   -0.000092   0.332958   0.000000  -0.000000   0.298202   0.003695
    15  O    0.000380   0.000000   7.989278  -0.063008  -0.000000   0.000000
    16  O    0.009254  -0.000000  -0.063008   7.880954  -0.000000  -0.000004
    17  O    0.000869   0.298202  -0.000000  -0.000000   7.908102  -0.086163
    18  O    0.018123   0.003695   0.000000  -0.000004  -0.086163   7.867997
    19  H   -0.000054  -0.000000   0.000057   0.000084  -0.000000   0.000000
    20  C    0.000070  -0.000000   0.008117   0.005442  -0.000000  -0.000003
    21  O   -0.000002  -0.000000   0.000003   0.000002   0.000000  -0.000000
    22  H    0.000438  -0.000000   0.000081  -0.000076   0.000001   0.000007
    23  H   -0.000024  -0.000000   0.166776   0.001082   0.000000   0.000000
    24  O    0.000132   0.000000  -0.192293  -0.054412  -0.000000   0.000000
    25  C   -0.000050  -0.000000  -0.000064  -0.000939   0.000000   0.000000
    26  H    0.000000  -0.000000  -0.000001  -0.000000   0.000000   0.000000
    27  H    0.000001  -0.000000  -0.000040  -0.000013  -0.000000  -0.000000
    28  H   -0.000006  -0.000000  -0.000074   0.000140   0.000000  -0.000000
    29  H   -0.000268  -0.000000  -0.002000   0.298532   0.000000   0.000000
              19         20         21         22         23         24
     1  H    0.000066  -0.000017   0.000000  -0.000007   0.000001  -0.000010
     2  H   -0.000090  -0.000325  -0.000001   0.000029  -0.001589   0.006375
     3  C    0.001243  -0.001002   0.000018  -0.000130   0.000555  -0.001469
     4  H   -0.000386   0.000028  -0.000007  -0.000052  -0.000484   0.000462
     5  H    0.000005   0.000008  -0.000000  -0.000003   0.000000  -0.000001
     6  C    0.007024  -0.005061  -0.000153  -0.024090  -0.003376   0.011905
     7  C    0.017781   0.008763   0.000227   0.017015   0.023526  -0.115387
     8  C   -0.022217  -0.010998  -0.000189   0.006758  -0.000194   0.006545
     9  C   -0.000300   0.000360  -0.000006  -0.000078  -0.000097   0.000451
    10  C   -0.000168  -0.001414   0.000009  -0.000288   0.000047   0.000853
    11  C   -0.009261  -0.041980   0.000268  -0.001716  -0.044402   0.250296
    12  C   -0.000014   0.000063   0.000000   0.000149   0.000006  -0.000003
    13  H   -0.000054   0.000070  -0.000002   0.000438  -0.000024   0.000132
    14  H   -0.000000  -0.000000  -0.000000  -0.000000  -0.000000   0.000000
    15  O    0.000057   0.008117   0.000003   0.000081   0.166776  -0.192293
    16  O    0.000084   0.005442   0.000002  -0.000076   0.001082  -0.054412
    17  O   -0.000000  -0.000000   0.000000   0.000001   0.000000  -0.000000
    18  O    0.000000  -0.000003  -0.000000   0.000007   0.000000   0.000000
    19  H    0.516122   0.405309   0.011380  -0.039130  -0.001768  -0.033555
    20  C    0.405309   5.121623  -0.086070   0.388831  -0.010714   0.154900
    21  O    0.011380  -0.086070   8.069224   0.010331   0.000029   0.002703
    22  H   -0.039130   0.388831   0.010331   0.505945   0.002594  -0.023845
    23  H   -0.001768  -0.010714   0.000029   0.002594   0.254270   0.162910
    24  O   -0.033555   0.154900   0.002703  -0.023845   0.162910   8.096346
    25  C   -0.025096   0.241793   0.269481  -0.020510  -0.000899  -0.025730
    26  H   -0.000531   0.014450   0.307256  -0.000533  -0.000013  -0.000307
    27  H   -0.014176  -0.052309  -0.041872   0.009439   0.002170   0.003390
    28  H    0.009715  -0.048542  -0.041083  -0.014582  -0.000418   0.003430
    29  H    0.000173  -0.000719  -0.000000  -0.000151   0.000352  -0.000565
              25         26         27         28         29
     1  H   -0.000002  -0.000000  -0.000000   0.000000  -0.000000
     2  H    0.000013   0.000000   0.000014  -0.000015   0.000085
     3  C   -0.000022  -0.000001   0.000001   0.000006   0.000051
     4  H   -0.000058   0.000000   0.000006  -0.000004  -0.000003
     5  H   -0.000000   0.000000  -0.000000   0.000000   0.000000
     6  C   -0.000023   0.000005  -0.000291   0.000429  -0.001812
     7  C   -0.001435  -0.000008   0.000187  -0.000633   0.020367
     8  C    0.000834   0.000008   0.000428  -0.000334  -0.001031
     9  C   -0.000043   0.000000   0.000000   0.000000  -0.000025
    10  C    0.000044  -0.000000   0.000004  -0.000006   0.000047
    11  C    0.011597  -0.000039  -0.000514   0.001057  -0.022594
    12  C   -0.000001  -0.000000   0.000000  -0.000001   0.000008
    13  H   -0.000050   0.000000   0.000001  -0.000006  -0.000268
    14  H   -0.000000  -0.000000  -0.000000  -0.000000  -0.000000
    15  O   -0.000064  -0.000001  -0.000040  -0.000074  -0.002000
    16  O   -0.000939  -0.000000  -0.000013   0.000140   0.298532
    17  O    0.000000   0.000000  -0.000000   0.000000   0.000000
    18  O    0.000000   0.000000  -0.000000  -0.000000   0.000000
    19  H   -0.025096  -0.000531  -0.014176   0.009715   0.000173
    20  C    0.241793   0.014450  -0.052309  -0.048542  -0.000719
    21  O    0.269481   0.307256  -0.041872  -0.041083  -0.000000
    22  H   -0.020510  -0.000533   0.009439  -0.014582  -0.000151
    23  H   -0.000899  -0.000013   0.002170  -0.000418   0.000352
    24  O   -0.025730  -0.000307   0.003390   0.003430  -0.000565
    25  C    4.800369  -0.034354   0.439290   0.436182  -0.000093
    26  H   -0.034354   0.365205  -0.004546  -0.004164  -0.000000
    27  H    0.439290  -0.004546   0.565172  -0.052770  -0.000049
    28  H    0.436182  -0.004164  -0.052770   0.564954   0.000282
    29  H   -0.000093  -0.000000  -0.000049   0.000282   0.316121
 Mulliken charges:
               1
     1  H    0.182062
     2  H    0.421380
     3  C   -0.128619
     4  H    0.203363
     5  H    0.191625
     6  C   -0.170176
     7  C   -0.017279
     8  C   -0.150346
     9  C   -0.162719
    10  C    0.046310
    11  C    0.310289
    12  C    0.362251
    13  H    0.206427
    14  H    0.371326
    15  O   -0.398023
    16  O   -0.400338
    17  O   -0.414967
    18  O   -0.371798
    19  H    0.177787
    20  C   -0.090606
    21  O   -0.501548
    22  H    0.183573
    23  H    0.449660
    24  O   -0.253122
    25  C   -0.090285
    26  H    0.357571
    27  H    0.146477
    28  H    0.146436
    29  H    0.393290
 Sum of Mulliken charges =   1.00000
 Mulliken charges with hydrogens summed into heavy atoms:
               1
     3  C    0.053443
     6  C    0.036251
     7  C   -0.017279
     8  C    0.053017
     9  C    0.028906
    10  C    0.046310
    11  C    0.310289
    12  C    0.362251
    15  O    0.473016
    16  O   -0.007048
    17  O   -0.043641
    18  O   -0.371798
    20  C    0.270754
    21  O   -0.143977
    24  O   -0.253122
    25  C    0.202629
 Electronic spatial extent (au):  <R**2>=         257116.7802
 Charge=              1.0000 electrons
 Dipole moment (field-independent basis, Debye):
    X=             28.4732    Y=             82.1225    Z=             62.9256  Tot=            107.3054
 Quadrupole moment (field-independent basis, Debye-Ang):
   XX=             97.8497   YY=           1335.2045   ZZ=            740.4089
   XY=            476.5829   XZ=            376.4045   YZ=           1061.4977
 Traceless Quadrupole moment (field-independent basis, Debye-Ang):
   XX=           -626.6380   YY=            610.7168   ZZ=             15.9212
   XY=            476.5829   XZ=            376.4045   YZ=           1061.4977
 Octapole moment (field-independent basis, Debye-Ang**2):
  XXX=           -135.9170  YYY=          19983.0587  ZZZ=           7507.9272  XYY=           7510.8990
  XXY=           1307.4377  XXZ=           1316.4908  XZZ=           4482.6358  YZZ=          12025.2703
  YYZ=          16947.9093  XYZ=           6242.2510
 Hexadecapole moment (field-independent basis, Debye-Ang**3):
 XXXX=          -7348.2876 YYYY=         251835.3808 ZZZZ=          54736.7799 XXXY=          -7138.0304
 XXXZ=          -1552.3681 YYYX=         106888.9052 YYYZ=         246227.6641 ZZZX=          46545.3554
 ZZZY=         110734.2320 XXYY=          11737.1873 XXZZ=          14421.7070 YYZZ=         180218.6184
 XXYZ=          17525.5262 YYXZ=          97102.9847 ZZXY=          71995.2471
 N-N= 1.144559293319D+03 E-N=-4.238228627431D+03  KE= 8.360458936204D+02
   1 Symmetry operations used in ECPInt.
 ECPInt:  NShTT=   26106 NPrTT=   79792 LenC2=   23277 LenP2D=   51759.
 LDataN:  DoStor=T MaxTD1= 7 Len=  274
 D1PCM: PCM CHGder 1st derivatives, ID1Alg=3 FixD1E=F DoIter=F DoCFld=F I1PDM=0.
 Calling FoFJK, ICntrl=      2127 FMM=F ISym2X=0 I1Cent= 0 IOpClX= 0 NMat=1 NMatS=1 NMatT=0.
 -------------------------------------------------------------------
 Center     Atomic                   Forces (Hartrees/Bohr)
 Number     Number              X              Y              Z
 -------------------------------------------------------------------
      1        1           0.002203583    0.000505314    0.005678901
      2        1           0.002883468    0.002057896   -0.002038241
      3        6           0.000050437   -0.000077156    0.000449534
      4        1           0.000686356    0.005611548    0.002381865
      5        1           0.001551286   -0.005264264    0.002709356
      6        6          -0.000040359   -0.000398621   -0.000601951
      7        6          -0.001871796    0.004225325   -0.001851256
      8        6           0.000104846    0.000677549    0.000393490
      9        6           0.000321291   -0.000066402    0.000753422
     10        6          -0.000310127   -0.003412863   -0.001262708
     11        6          -0.000296547    0.004314669   -0.003696884
     12        6           0.000299368   -0.005564418   -0.000688561
     13        1          -0.002058755   -0.000731585   -0.005876356
     14        1          -0.000220764   -0.001273881   -0.000902242
     15        8          -0.003832507   -0.003374117    0.001287258
     16        8           0.000714319   -0.000941184    0.004258671
     17        8          -0.000284683    0.003394773    0.000098650
     18        8          -0.000107054    0.000765571   -0.000064628
     19        1           0.001512008   -0.000953187    0.005218143
     20        6          -0.000447829    0.007856582   -0.004352508
     21        8           0.004845533    0.000367398   -0.001940914
     22        1          -0.000788866   -0.004701988   -0.002200127
     23        1           0.000262198    0.000140569   -0.000356522
     24        8           0.002259102   -0.003211497    0.000773459
     25        6          -0.006337807   -0.009384508    0.007580863
     26        1          -0.001114991    0.001316560   -0.000384545
     27        1           0.001942835    0.005449839    0.001423772
     28        1          -0.000475655    0.001380278   -0.005861140
     29        1          -0.001448889    0.001291803   -0.000928803
 -------------------------------------------------------------------
 Cartesian Forces:  Max     0.009384508 RMS     0.002998867

 GradGradGradGradGradGradGradGradGradGradGradGradGradGradGradGradGradGrad
 Berny optimization.
 FormGI is forming the generalized inverse of G from B-inverse, IUseBI=4.
 Internal  Forces:  Max     0.007111367 RMS     0.002074566
 Search for a saddle point.
 Step number   1 out of a maximum of  162
 All quantities printed in internal units (Hartrees-Bohrs-Radians)
 Swapping is turned off.
 Second derivative matrix not updated -- first step.
 ITU=  0
     Eigenvalues ---   -0.06536   0.00104   0.00213   0.00294   0.00373
     Eigenvalues ---    0.00410   0.00456   0.00646   0.00817   0.01544
     Eigenvalues ---    0.01708   0.01827   0.01905   0.01993   0.02100
     Eigenvalues ---    0.02203   0.02586   0.02791   0.02895   0.02989
     Eigenvalues ---    0.04257   0.04774   0.04934   0.05173   0.05183
     Eigenvalues ---    0.06364   0.06712   0.06982   0.07568   0.08304
     Eigenvalues ---    0.10360   0.10583   0.10843   0.11044   0.11189
     Eigenvalues ---    0.11722   0.11872   0.12272   0.13216   0.14549
     Eigenvalues ---    0.15000   0.15524   0.16351   0.18177   0.18625
     Eigenvalues ---    0.18924   0.19500   0.20294   0.21157   0.22628
     Eigenvalues ---    0.24625   0.25084   0.25724   0.27030   0.28449
     Eigenvalues ---    0.30344   0.31488   0.33073   0.33270   0.34264
     Eigenvalues ---    0.34621   0.35077   0.35730   0.36885   0.37031
     Eigenvalues ---    0.37197   0.37468   0.38972   0.44065   0.44660
     Eigenvalues ---    0.45239   0.47639   0.49466   0.49873   0.50041
     Eigenvalues ---    0.51228   0.52520   0.53352   0.53717   0.54320
     Eigenvalues ---    0.94491
 Eigenvectors required to have negative eigenvalues:
                          R28       R20       R14       R16       A30
   1                   -0.64746   0.63681  -0.16093   0.15625  -0.13481
                          A43       A42       D52       A29       D44
   1                   -0.12588   0.11426   0.10782   0.09418  -0.08402
 RFO step:  Lambda0=7.207675220D-07 Lambda=-1.85180927D-03.
 Linear search not attempted -- option 19 set.
 Iteration  1 RMS(Cart)=  0.01667660 RMS(Int)=  0.00021492
 Iteration  2 RMS(Cart)=  0.00043951 RMS(Int)=  0.00009867
 Iteration  3 RMS(Cart)=  0.00000006 RMS(Int)=  0.00009867
 Variable       Old X    -DE/DX   Delta X   Delta X   Delta X     New X
                                 (Linear)    (Quad)   (Total)
    R1        2.05928  -0.00611   0.00000  -0.01633  -0.01633   2.04295
    R2        1.84630  -0.00394   0.00000  -0.00752  -0.00752   1.83878
    R3        2.63054  -0.00691   0.00000  -0.01271  -0.01271   2.61783
    R4        2.63501  -0.00678   0.00000  -0.01229  -0.01229   2.62272
    R5        2.06113  -0.00613   0.00000  -0.01646  -0.01646   2.04468
    R6        2.05936  -0.00611   0.00000  -0.01640  -0.01640   2.04296
    R7        2.63166  -0.00711   0.00000  -0.01291  -0.01291   2.61875
    R8        2.63758  -0.00646   0.00000  -0.01197  -0.01197   2.62560
    R9        2.06013  -0.00627   0.00000  -0.01673  -0.01673   2.04340
   R10        2.64479  -0.00668   0.00000  -0.01252  -0.01252   2.63227
   R11        2.83402  -0.00200   0.00000  -0.00699  -0.00699   2.82703
   R12        2.64024  -0.00668   0.00000  -0.01246  -0.01246   2.62778
   R13        2.82666  -0.00312   0.00000  -0.01027  -0.01027   2.81639
   R14        2.76909   0.00154   0.00000   0.01102   0.01098   2.78007
   R15        2.51215   0.00336   0.00000   0.00620   0.00620   2.51835
   R16        2.75775   0.00154   0.00000   0.00642   0.00649   2.76424
   R17        2.51515   0.00224   0.00000   0.00617   0.00617   2.52132
   R18        2.27472  -0.00002   0.00000   0.00012   0.00012   2.27485
   R19        1.83551  -0.00158   0.00000  -0.00334  -0.00334   1.83216
   R20        2.31991   0.00063   0.00000   0.00031   0.00025   2.32016
   R21        1.83772  -0.00214   0.00000  -0.00425  -0.00425   1.83347
   R22        2.07397  -0.00550   0.00000  -0.01614  -0.01614   2.05783
   R23        2.07360  -0.00524   0.00000  -0.01545  -0.01545   2.05815
   R24        2.72977   0.00039   0.00000   0.00740   0.00740   2.73717
   R25        2.86149  -0.00053   0.00000  -0.00300  -0.00300   2.85849
   R26        2.64702   0.00456   0.00000   0.01715   0.01715   2.66417
   R27        1.82143  -0.00159   0.00000  -0.00316  -0.00316   1.81828
   R28        2.34311   0.00015   0.00000   0.00116   0.00118   2.34429
   R29        2.08596  -0.00580   0.00000  -0.01860  -0.01860   2.06736
   R30        2.08466  -0.00585   0.00000  -0.01878  -0.01878   2.06588
    A1        2.09056   0.00003   0.00000   0.00006   0.00006   2.09062
    A2        2.09596   0.00003   0.00000  -0.00008  -0.00008   2.09588
    A3        2.09666  -0.00005   0.00000   0.00002   0.00002   2.09668
    A4        2.08293  -0.00008   0.00000  -0.00013  -0.00013   2.08280
    A5        2.11451  -0.00013   0.00000  -0.00122  -0.00122   2.11329
    A6        2.08574   0.00021   0.00000   0.00135   0.00136   2.08709
    A7        2.10520   0.00008   0.00000   0.00032   0.00032   2.10552
    A8        2.07675  -0.00008   0.00000  -0.00190  -0.00190   2.07485
    A9        2.10065   0.00000   0.00000   0.00157   0.00157   2.10222
   A10        2.09543  -0.00023   0.00000  -0.00191  -0.00191   2.09352
   A11        2.08834   0.00008   0.00000  -0.00009  -0.00009   2.08825
   A12        2.09937   0.00015   0.00000   0.00201   0.00201   2.10138
   A13        2.10305  -0.00042   0.00000  -0.00369  -0.00369   2.09936
   A14        2.09252  -0.00000   0.00000   0.00004   0.00004   2.09257
   A15        2.08761   0.00043   0.00000   0.00365   0.00365   2.09126
   A16        2.10071  -0.00002   0.00000  -0.00015  -0.00015   2.10056
   A17        2.05318   0.00045   0.00000   0.00203   0.00203   2.05521
   A18        2.12929  -0.00044   0.00000  -0.00188  -0.00188   2.12741
   A19        1.95076   0.00032   0.00000  -0.00161  -0.00165   1.94911
   A20        1.97064  -0.00039   0.00000  -0.00067  -0.00066   1.96998
   A21        2.00694   0.00048   0.00000   0.00727   0.00720   2.01414
   A22        1.99461  -0.00009   0.00000  -0.00515  -0.00521   1.98940
   A23        1.55989  -0.00070   0.00000   0.00050   0.00062   1.56052
   A24        1.94642   0.00037   0.00000  -0.00010  -0.00012   1.94630
   A25        1.96849   0.00032   0.00000   0.00160   0.00160   1.97009
   A26        2.15954   0.00073   0.00000   0.00410   0.00410   2.16364
   A27        2.15516  -0.00105   0.00000  -0.00570  -0.00570   2.14946
   A28        2.00133  -0.00061   0.00000  -0.01826  -0.01873   1.98260
   A29        2.16820  -0.00028   0.00000  -0.03466  -0.03501   2.13319
   A30        1.37724   0.00023   0.00000  -0.00548  -0.00569   1.37155
   A31        1.94674   0.00009   0.00000   0.00052   0.00052   1.94726
   A32        1.89336   0.00021   0.00000  -0.00086  -0.00086   1.89249
   A33        1.91730  -0.00019   0.00000   0.00631   0.00628   1.92358
   A34        1.91216   0.00027   0.00000  -0.00279  -0.00279   1.90937
   A35        1.94490   0.00067   0.00000   0.00304   0.00300   1.94790
   A36        1.87522   0.00045   0.00000  -0.00107  -0.00105   1.87417
   A37        1.93631   0.00057   0.00000   0.00492   0.00489   1.94120
   A38        1.87610  -0.00181   0.00000  -0.01106  -0.01107   1.86503
   A39        1.89720   0.00140   0.00000   0.00377   0.00377   1.90097
   A40        1.97087   0.00011   0.00000   0.00934   0.00960   1.98048
   A41        2.14737  -0.00079   0.00000  -0.01383  -0.01442   2.13295
   A42        1.37479   0.00036   0.00000  -0.00398  -0.00425   1.37054
   A43        2.32831  -0.00001   0.00000  -0.02123  -0.02160   2.30671
   A44        1.83915   0.00032   0.00000  -0.00368  -0.00366   1.83549
   A45        1.90486   0.00072   0.00000   0.00878   0.00870   1.91356
   A46        1.90177   0.00081   0.00000   0.01036   0.01028   1.91205
   A47        1.96307  -0.00094   0.00000  -0.01274  -0.01273   1.95034
   A48        1.96742  -0.00098   0.00000  -0.01354  -0.01353   1.95389
   A49        1.88595   0.00017   0.00000   0.01180   0.01160   1.89755
    D1       -0.00720   0.00005   0.00000   0.00214   0.00214  -0.00506
    D2       -3.13861   0.00002   0.00000   0.00093   0.00093  -3.13767
    D3        3.12902   0.00008   0.00000   0.00301   0.00300   3.13202
    D4       -0.00239   0.00005   0.00000   0.00180   0.00180  -0.00059
    D5       -0.00304   0.00002   0.00000   0.00105   0.00105  -0.00199
    D6        3.13499   0.00005   0.00000   0.00181   0.00181   3.13680
    D7       -3.13924  -0.00002   0.00000   0.00018   0.00018  -3.13906
    D8       -0.00121   0.00002   0.00000   0.00094   0.00094  -0.00027
    D9       -0.00286   0.00011   0.00000   0.00419   0.00419   0.00133
   D10        3.10182   0.00005   0.00000   0.00411   0.00411   3.10593
   D11        3.13476   0.00012   0.00000   0.00444   0.00444   3.13921
   D12       -0.04374   0.00005   0.00000   0.00436   0.00436  -0.03938
   D13       -0.00078  -0.00004   0.00000  -0.00142  -0.00141  -0.00220
   D14        3.13815  -0.00001   0.00000  -0.00049  -0.00049   3.13766
   D15       -3.13848  -0.00005   0.00000  -0.00166  -0.00166  -3.14013
   D16        0.00046  -0.00002   0.00000  -0.00074  -0.00073  -0.00027
   D17        0.00446  -0.00012   0.00000  -0.00440  -0.00440   0.00006
   D18       -3.12693  -0.00014   0.00000  -0.00558  -0.00559  -3.13251
   D19       -3.09972  -0.00005   0.00000  -0.00424  -0.00424  -3.10396
   D20        0.05208  -0.00007   0.00000  -0.00543  -0.00543   0.04666
   D21        2.72009   0.00012   0.00000   0.00605   0.00600   2.72609
   D22        0.44235   0.00031   0.00000   0.01531   0.01532   0.45767
   D23       -1.81823  -0.00031   0.00000   0.00932   0.00936  -1.80887
   D24       -0.45831   0.00006   0.00000   0.00594   0.00589  -0.45242
   D25       -2.73606   0.00025   0.00000   0.01520   0.01521  -2.72085
   D26        1.28655  -0.00037   0.00000   0.00921   0.00925   1.29580
   D27        0.00282  -0.00003   0.00000  -0.00114  -0.00114   0.00168
   D28       -3.13600  -0.00005   0.00000  -0.00211  -0.00211  -3.13811
   D29        3.14088   0.00001   0.00000  -0.00040  -0.00040   3.14048
   D30        0.00206  -0.00002   0.00000  -0.00137  -0.00137   0.00070
   D31        3.14064  -0.00002   0.00000  -0.00112  -0.00112   3.13952
   D32       -0.00055  -0.00002   0.00000  -0.00114  -0.00114  -0.00170
   D33       -0.00365   0.00000   0.00000  -0.00018  -0.00018  -0.00383
   D34        3.13834   0.00001   0.00000  -0.00020  -0.00020   3.13813
   D35       -2.08536  -0.00009   0.00000  -0.04240  -0.04230  -2.12765
   D36        2.05572   0.00016   0.00000  -0.00076  -0.00083   2.05489
   D37        0.17998  -0.00043   0.00000  -0.04944  -0.04935   0.13063
   D38       -1.96213  -0.00018   0.00000  -0.00781  -0.00789  -1.97002
   D39        2.15964  -0.00037   0.00000  -0.05025  -0.05013   2.10951
   D40        0.01753  -0.00012   0.00000  -0.00862  -0.00866   0.00886
   D41       -2.81279  -0.00037   0.00000  -0.00252  -0.00251  -2.81531
   D42        1.21496  -0.00038   0.00000   0.00511   0.00516   1.22012
   D43       -0.52165   0.00030   0.00000   0.00701   0.00695  -0.51470
   D44        0.35115  -0.00003   0.00000  -0.02578  -0.02579   0.32536
   D45       -2.00419   0.00001   0.00000   0.00869   0.00871  -1.99548
   D46        2.33798   0.00008   0.00000  -0.02593  -0.02592   2.31206
   D47       -0.01736   0.00012   0.00000   0.00855   0.00859  -0.00877
   D48       -1.92128  -0.00026   0.00000  -0.03135  -0.03134  -1.95262
   D49        2.00657  -0.00022   0.00000   0.00313   0.00316   2.00973
   D50       -3.14119   0.00001   0.00000  -0.00005  -0.00005  -3.14124
   D51        0.00000   0.00000   0.00000  -0.00003  -0.00003  -0.00002
   D52       -1.98412   0.00075   0.00000   0.03896   0.03857  -1.94555
   D53       -0.02240   0.00014   0.00000   0.01088   0.01100  -0.01139
   D54       -1.24861   0.00011   0.00000   0.02968   0.02958  -1.21903
   D55        0.62190  -0.00023   0.00000  -0.01416  -0.01402   0.60787
   D56        0.83358   0.00029   0.00000   0.03507   0.03494   0.86852
   D57        2.70409  -0.00005   0.00000  -0.00877  -0.00866   2.69543
   D58        2.91858   0.00024   0.00000   0.03433   0.03421   2.95279
   D59       -1.49410  -0.00010   0.00000  -0.00951  -0.00940  -1.50349
   D60        1.03596   0.00032   0.00000   0.00084   0.00086   1.03682
   D61       -1.07599   0.00086   0.00000   0.01337   0.01344  -1.06255
   D62       -3.13176  -0.00022   0.00000  -0.01178  -0.01182   3.13960
   D63       -1.10634  -0.00031   0.00000  -0.01294  -0.01295  -1.11929
   D64        3.06489   0.00023   0.00000  -0.00041  -0.00037   3.06453
   D65        1.00912  -0.00085   0.00000  -0.02556  -0.02563   0.98349
   D66        3.13129  -0.00011   0.00000  -0.00781  -0.00780   3.12349
   D67        1.01934   0.00044   0.00000   0.00472   0.00478   1.02412
   D68       -1.03643  -0.00065   0.00000  -0.02043  -0.02048  -1.05691
   D69       -3.13209   0.00004   0.00000   0.00092   0.00092  -3.13117
   D70       -1.05861   0.00061   0.00000   0.00235   0.00233  -1.05628
   D71        1.07900  -0.00061   0.00000  -0.00197  -0.00195   1.07704
   D72        0.02250  -0.00014   0.00000  -0.01090  -0.01104   0.01146
   D73       -2.16360   0.00063   0.00000   0.02210   0.02196  -2.14163
         Item               Value     Threshold  Converged?
 Maximum Force            0.007111     0.000450     NO 
 RMS     Force            0.002075     0.000300     NO 
 Maximum Displacement     0.071723     0.001800     NO 
 RMS     Displacement     0.016904     0.001200     NO 
 Predicted change in Energy=-9.490462D-04
 GradGradGradGradGradGradGradGradGradGradGradGradGradGradGradGradGradGrad

                          Input orientation:                          
 ---------------------------------------------------------------------
 Center     Atomic      Atomic             Coordinates (Angstroms)
 Number     Number       Type             X           Y           Z
 ---------------------------------------------------------------------
      1          1           0        3.730699   20.095615   10.122565
      2          1           0        4.279565   16.255348   14.084183
      3          6           0        4.115905   20.183091   11.128897
      4          1           0        4.394721   18.072249   11.359032
      5          1           0        3.933361   22.321242   11.186118
      6          6           0        5.099729   20.402611   13.724449
      7          6           0        4.983385   19.160378   13.121356
      8          6           0        4.491826   19.044801   11.823173
      9          6           0        4.228196   21.431497   11.724799
     10          6           0        4.718824   21.538928   13.021488
     11          6           0        5.439544   17.948163   13.870002
     12          6           0        4.853950   22.856087   13.705621
     13          1           0        5.478320   20.500482   14.732590
     14          1           0        4.578543   24.698877   13.447851
     15          8           0        4.769981   16.729272   13.390136
     16          8           0        5.391901   18.107600   15.192223
     17          8           0        4.463881   23.879084   12.943074
     18          8           0        5.270277   22.992005   14.826928
     19          1           0        7.289452   18.316886   11.665516
     20          6           0        7.678405   18.161457   12.670697
     21          8           0        9.859800   18.134950   11.875507
     22          1           0        7.810216   19.117638   13.175213
     23          1           0        5.943912   16.479602   13.131323
     24          8           0        6.723567   17.392969   13.442520
     25          6           0        8.967015   17.369452   12.653027
     26          1           0       10.701560   17.672083   11.820706
     27          1           0        8.787257   16.384590   12.211931
     28          1           0        9.327952   17.235114   13.676161
     29          1           0        5.946031   17.456068   15.650257
 ---------------------------------------------------------------------
                    Distance matrix (angstroms):
                    1          2          3          4          5
     1  H    0.000000
     2  H    5.544666   0.000000
     3  C    1.081083   4.918095   0.000000
     4  H    2.462476   3.277321   2.141578   0.000000
     5  H    2.475002   6.731545   2.146692   4.277464   0.000000
     6  C    3.865496   4.242860   2.784418   3.394528   3.388906
     7  C    3.381811   3.140317   2.401740   2.153216   3.852111
     8  C    2.139063   3.596980   1.385294   1.081996   3.384196
     9  C    2.144583   5.688747   1.387885   3.383203   1.081088
    10  C    3.385749   5.407262   2.404933   3.858324   2.144189
    11  C    4.644888   2.063261   3.776318   2.722503   5.347489
    12  C    4.660493   6.636489   3.785383   5.348129   2.735222
    13  H    4.946759   4.458542   3.865684   4.295509   4.275456
    14  H    5.741636   8.472749   5.097441   6.950479   3.344375
    15  O    4.805143   0.973043   4.179699   2.463695   6.068588
    16  O    5.693262   2.428144   4.737768   3.960931   5.994247
    17  O    4.775716   7.710866   4.131911   6.019411   2.407326
    18  O    5.735016   6.849505   4.785186   6.082508   3.936085
    19  H    4.267235   4.377134   3.720495   2.921172   5.246717
    20  C    5.081173   4.145275   4.376705   3.537089   5.790780
    21  O    6.669549   6.288893   6.143666   5.489787   7.288550
    22  H    5.188213   4.635129   4.355517   4.007113   5.408288
    23  H    5.198701   1.930876   4.589897   2.842100   6.476952
    24  O    5.223376   2.771111   4.465146   3.197791   6.096267
    25  C    6.422943   5.026094   5.811437   4.803562   7.211776
    26  H    7.572984   6.955032   7.081992   6.336362   8.235648
    27  H    6.611047   4.882757   6.117442   4.782259   7.736694
    28  H    7.220786   5.158743   6.507269   5.514222   7.821165
    29  H    6.513853   2.582910   5.588265   4.604439   6.902847
                    6          7          8          9         10
     6  C    0.000000
     7  C    1.385785   0.000000
     8  C    2.414134   1.392935   0.000000
     9  C    2.411799   2.771041   2.403226   0.000000
    10  C    1.389410   2.395301   2.776356   1.390561   0.000000
    11  C    2.482131   1.496000   2.508046   4.266483   3.759389
    12  C    2.465828   3.743847   4.266222   2.518866   1.490371
    13  H    1.081322   2.153349   3.399541   3.387684   2.140812
    14  H    4.336594   5.562865   5.883508   3.710448   3.191668
    15  O    3.703231   2.455211   2.809701   5.017749   4.824035
    16  O    2.739854   2.358753   3.610953   4.942219   4.115718
    17  O    3.619491   4.750564   4.962383   2.744162   2.355308
    18  O    2.819488   4.203885   5.020851   3.625510   2.382257
    19  H    3.658461   2.854626   2.895070   4.367562   4.339164
    20  C    3.575294   2.909307   3.413631   4.846836   4.504385
    21  O    5.587409   5.136444   5.444788   6.527242   6.271361
    22  H    3.049516   2.827666   3.583996   4.504276   3.929756
    23  H    4.056408   2.847678   3.224913   5.426164   5.206696
    24  O    3.431366   2.501022   3.214266   5.048480   4.624417
    25  C    5.030297   4.392727   4.850028   6.310167   5.963842
    26  H    6.516174   6.050143   6.359651   7.486443   7.224091
    27  H    5.659511   4.795987   5.067405   6.818622   6.616247
    28  H    5.283298   4.784319   5.486042   6.886578   6.339990
    29  H    3.620370   3.197921   4.391510   5.845016   5.008614
                   11         12         13         14         15
    11  C    0.000000
    12  C    4.945469   0.000000
    13  H    2.694419   2.644500   0.000000
    14  H    6.818480   1.881002   4.481816   0.000000
    15  O    1.471150   6.135508   4.065212   7.972113   0.000000
    16  O    1.332652   5.004748   2.438157   6.866536   2.352466
    17  O    6.081689   1.334224   3.955554   0.969540   7.170312
    18  O    5.136604   1.203798   2.501973   2.300817   6.444882
    19  H    2.901357   5.540582   4.177945   7.159298   3.441303
    20  C    2.548789   5.575676   3.816125   7.276741   3.320795
    21  O    4.852995   7.120182   5.740734   8.570243   5.493295
    22  H    2.733220   4.795502   3.126566   6.455096   3.872146
    23  H    1.719508   6.494414   4.352965   8.337920   1.227776
    24  O    1.462770   5.780169   3.587695   7.614292   2.063913
    25  C    3.776107   6.937465   5.128247   8.579679   4.309089
    26  H    5.653728   8.038740   6.615220   9.461224   6.207707
    27  H    4.049833   7.718957   5.851781   9.400433   4.200652
    28  H    3.957996   7.184212   5.157357   8.849676   4.594865
    29  H    1.915201   5.842471   3.213926   7.692782   2.649429
                   16         17         18         19         20
    16  O    0.000000
    17  O    6.263379   0.000000
    18  O    4.899555   2.232955   0.000000
    19  H    4.010257   6.368206   5.994024   0.000000
    20  C    3.404276   6.564953   5.812280   1.088958   0.000000
    21  O    5.564484   7.953031   7.305175   2.585321   2.321963
    22  H    3.307076   5.824363   4.918350   1.786500   1.089125
    23  H    2.683730   7.548395   6.763155   2.708262   2.459529
    24  O    2.312033   6.886604   5.947927   2.081247   1.448447
    25  C    4.446776   7.920710   7.071408   2.164953   1.512647
    26  H    6.304703   8.871032   8.175437   3.475965   3.178276
[...]
 6,-0.00013948,-0.00000228,-0.00005309,-0.00008766,-0.00011498,0.001534
 68,0.00044199,-0.00167578,-0.01780044,0.00246405,0.01864630,0.00305877
 ,0.00021888,-0.00106432,0.00520672,0.00347440,-0.00401501,-0.05746153,
 -0.00002076,0.00004719,-0.00004580,-0.00879866,0.00152727,0.00177494,0
 .00003023,0.00014846,-0.00000692,0.00036884,0.00009235,-0.00006701,-0.
 00001376,0.00000294,0.00000170,-0.00037419,-0.00046726,-0.00008060,-0.
 00257989,-0.00138627,0.00044690,0.00022827,0.00022318,0.00030100,-0.00
 005752,0.00011024,-0.00011326,0.00022477,0.00021840,-0.00015245,0.0445
 7046,-0.03754221,-0.03504274,0.00001139,-0.00051650,-0.00030030,-0.000
 07522,-0.00006625,-0.00003018,-0.00000327,-0.00002457,-0.00000142,0.05
 811775,-0.04874872,-0.01086169,-0.00379476,-0.00220341,0.00152764,-0.0
 0003966,0.00027150,0.00000637,0.00004912,0.00020965,0.00020230,0.00065
 482,0.00024234,-0.00098456,-0.00827651,-0.00359015,0.01099027,0.002092
 97,-0.00033377,-0.00073396,0.00238679,0.00178228,-0.00119883,-0.077948
 09,0.11235593,0.00000284,0.00001743,-0.00001500,0.00850985,-0.00784278
 ,-0.00380726,0.00001651,-0.00006531,-0.00017855,-0.00046753,0.00028826
 ,-0.00042006,-0.00001210,-0.00001467,-0.00000860,0.00000333,0.00006810
 ,-0.00019111,0.00022873,0.00029650,0.00001652,0.00006712,0.00050998,0.
 00032753,-0.00002420,0.00001011,0.00002892,-0.00003745,0.00001867,0.00
 000859,0.00542565,-0.03345476,-0.00078256,-0.00001404,-0.00004049,-0.0
 0003003,-0.00000610,-0.00005398,-0.00002583,0.00000020,-0.00000112,-0.
 00000176,0.00038454,0.01640799,-0.02512187,0.00066829,0.00127472,0.000
 47185,-0.00000148,0.00004550,-0.00000087,0.00000227,0.00002551,0.00001
 264,0.00003877,0.00075027,-0.00008677,-0.00029871,0.00823416,0.0065915
 1,0.00031416,-0.00020120,-0.00014511,0.00157885,0.00106058,-0.00132338
 ,-0.00772410,0.04447142,0.07380267,-0.00011415,0.00011160,-0.00017907,
 -0.00934447,0.00655917,-0.00817396,0.00077462,0.00102032,-0.00002906,-
 0.00055457,-0.00025664,0.00037962,-0.00013751,-0.00003058,0.00004241,-
 0.00281492,-0.00243865,-0.00256036,-0.01681539,0.01931219,0.00381835,0
 .00143572,0.00051764,0.00254637,-0.00015718,0.00100694,0.00021624,0.00
 040846,0.00186811,-0.00161503,-0.10095262,0.00362243,-0.00502317,-0.00
 018255,-0.00183127,-0.00139995,-0.00052174,-0.00034338,0.00013423,-0.0
 0003501,-0.00007765,-0.00000879,-0.16145202,-0.03931321,0.02754937,-0.
 01348344,0.01298969,0.03531697,-0.00009344,0.00114601,0.00008661,0.000
 26856,0.00080481,0.00082517,-0.00159875,-0.00214457,0.00584384,-0.0924
 1565,-0.03285053,0.04562385,-0.01756266,0.00680795,0.00296383,-0.01315
 907,-0.01005696,0.00905393,0.01034671,-0.00589512,-0.00782540,0.436603
 96,0.00003704,-0.00008681,0.00014138,-0.00410692,0.00811748,-0.0042085
 0,-0.00117964,-0.00154449,0.00061978,0.00094531,0.00003021,0.00041426,
 0.00022161,0.00009680,-0.00007456,0.00095690,0.00202673,0.00150687,0.0
 3183493,-0.01144177,-0.00509757,-0.00125818,-0.00100976,-0.00304371,0.
 00038116,-0.00037168,0.00019588,-0.00132665,-0.00083880,0.00179259,0.0
 0520074,-0.11470290,0.01616164,0.00003905,0.00117354,0.00084498,0.0009
 1153,0.00008826,-0.00032309,0.00001841,0.00006025,-0.00000038,-0.11653
 884,0.00119941,0.02031038,0.01629363,0.00869822,-0.01347527,0.00009835
 ,-0.00072493,-0.00006752,-0.00015769,-0.00052250,-0.00052484,-0.010748
 55,-0.00649165,0.00904510,-0.01929676,-0.13885131,0.03161196,0.0042933
 5,-0.00066880,-0.00089293,-0.03203239,-0.01949780,0.02826101,0.0491295
 4,-0.02485550,-0.03092919,0.07209371,0.28831841,-0.00002695,-0.0000408
 9,0.00001687,-0.00135343,0.00304623,0.00099336,0.00030564,-0.00092909,
 0.00030631,0.00006124,-0.00007030,-0.00012894,0.00000223,0.00000589,0.
 00002378,-0.00048207,-0.00031572,-0.00063459,-0.00545253,0.00270728,0.
 00847418,0.00088598,-0.00037396,-0.00084248,0.00014217,0.00053745,0.00
 071617,0.00020754,0.00082427,-0.00051840,-0.00588340,0.00194414,-0.062
 76839,0.00002056,-0.00007536,-0.00028396,-0.00013717,0.00024210,0.0001
 3234,-0.00001048,-0.00000111,-0.00000346,0.00557414,0.00275782,0.02956
 097,0.04885385,-0.01707948,-0.03516581,-0.00001900,0.00007451,0.000045
 85,0.00002925,0.00000715,0.00010632,0.03296574,0.02375335,-0.01592846,
 0.03953672,0.03362382,-0.10410148,0.00483299,-0.00243913,0.00022691,-0
 .00478685,-0.00208007,0.00874892,0.00903721,-0.00902374,-0.04789400,-0
 .12982930,-0.04258788,0.21784106,0.00001561,-0.00003083,0.00003340,-0.
 00012191,-0.00029301,0.00018089,-0.00000441,-0.00017607,0.00000311,-0.
 00006536,0.00000395,-0.00005618,0.00000741,-0.00000355,0.00000529,0.00
 015597,0.00025728,0.00026929,0.00063747,-0.00007817,-0.00019876,-0.000
 13805,-0.00004957,-0.00042083,0.00003150,-0.00003264,0.00015118,-0.000
 01257,-0.00012338,-0.00007931,-0.00192669,0.00077777,0.00099530,0.0000
 4449,0.00045223,0.00024134,-0.00002053,0.00005960,0.00006888,0.0000025
 4,0.00001862,0.00000244,0.00290709,-0.00025614,-0.00072967,0.00061405,
 -0.00027241,-0.00113901,0.00001871,-0.00023854,0.,-0.00005233,-0.00018
 788,-0.00017440,-0.01015532,0.00896636,0.00035672,-0.16713716,0.074778
 51,-0.01336882,-0.15291730,-0.03218603,0.05292114,0.00423427,-0.000444
 18,-0.00119052,-0.00447768,-0.00194937,-0.00052797,-0.02111908,0.00666
 032,0.00723870,0.52052901,-0.00000164,0.00001781,-0.00001517,-0.000182
 21,0.00015972,-0.00034464,-0.00001105,-0.00011611,-0.00000050,0.000011
 93,-0.00001911,0.00006639,-0.00000266,0.00000374,0.00000416,0.00013633
 ,0.00010952,-0.00010587,0.00031954,-0.00034121,0.00035670,0.00002098,0
 .00021868,-0.00030433,-0.00000021,0.00008653,0.00010784,0.00000500,0.0
 0018357,-0.00013671,0.00205924,-0.00458625,-0.00068204,-0.00001803,-0.
 00005162,-0.00005607,-0.00005508,-0.00002414,0.00004600,0.00000106,-0.
 00000279,-0.00000161,-0.00364640,-0.00175669,0.00025827,-0.00104282,0.
 00035993,0.00196746,-0.00000531,0.00004276,0.00000546,0.00000735,0.000
 02411,0.00002774,0.00321648,-0.00216617,-0.00027631,0.07976292,-0.1308
 8083,-0.00487372,-0.06803180,-0.14052614,0.07118341,0.02778855,-0.0153
 8749,0.00136973,0.00031851,0.00204033,0.00060248,-0.03183377,0.0099877
 1,0.00847142,-0.00456415,0.58121346,0.00000670,0.00000191,-0.00000852,
 0.00005308,0.00000553,0.00016859,-0.00003540,-0.00029370,0.00013880,0.
 00010983,0.00006709,0.00002195,0.00000167,0.00000966,0.00000478,0.0000
 1590,-0.00044335,0.00003376,-0.00034341,0.00028593,0.00004272,-0.00019
 689,0.00012173,0.00005471,0.00007727,0.00010669,0.00013775,-0.00003287
 ,0.00022413,-0.00016048,-0.00056552,0.00242787,-0.00055964,-0.00002948
 ,-0.00016449,-0.00007174,0.00000690,0.00002761,0.00001646,0.00000034,-
 0.00000782,0.00000006,0.00090935,0.00079783,-0.00000119,0.00042970,-0.
 00029544,-0.00084707,-0.00000594,0.00007209,-0.00000940,0.00001884,0.0
 0004825,0.00005417,-0.02739953,0.01753094,0.00267425,-0.01548113,-0.00
 094432,-0.07903361,0.07332916,0.05786956,-0.12402729,0.01448093,-0.008
 26166,0.00079927,0.00032659,0.00017261,0.00021107,0.02565694,-0.009052
 02,-0.00659139,0.03757546,0.01878694,0.59067574,-0.00000065,-0.0000005
 5,0.00000130,-0.00000783,-0.00000395,-0.00000693,0.00000031,-0.0000037
 1,-0.00000339,-0.00000591,-0.00000229,-0.00000073,0.,-0.00000020,0.000
 00028,0.00000402,0.00001837,0.00000797,0.00002785,-0.00000611,-0.00000
 577,0.00000365,-0.00000017,-0.00002243,0.00000017,-0.00000025,0.000006
 14,-0.00000215,-0.00000550,-0.00000562,0.00005901,-0.00016676,0.000076
 75,0.00000166,0.00002760,0.00001393,-0.00000365,0.00000164,0.00000377,
 -0.00000023,0.00000165,0.00000034,0.00003052,-0.00004896,-0.00002640,-
 0.00001986,0.00001286,0.00002084,0.00000173,-0.00001313,-0.00000006,-0
 .00000213,-0.00001063,-0.00001057,0.00035721,-0.00019621,-0.00001551,-
 0.00114055,-0.00372966,0.00226669,-0.40312655,0.19614906,0.04048408,0.
 00021940,0.00001536,-0.00001561,-0.00019195,-0.00003939,0.00000357,-0.
 00073304,0.00082819,0.00026738,-0.02488334,0.01283538,0.00133810,0.426
 20623,-0.00000153,0.00000412,-0.00000338,0.00000311,0.00002336,-0.0000
 3271,-0.00000019,0.00000650,-0.00000189,0.00000437,-0.00000237,0.00000
 710,-0.00000055,0.00000040,-0.00000017,-0.00001181,-0.00001061,-0.0000
 2475,-0.00002810,-0.00002484,0.00003686,0.00001507,0.00001866,0.000013
 58,-0.00000258,0.00000842,-0.00000593,-0.00000213,0.00001861,-0.000002
 06,0.00033479,-0.00031536,-0.00011502,-0.00000020,-0.00003294,-0.00001
 638,-0.00000114,-0.00000625,-0.00000199,0.00000079,-0.00000164,-0.0000
 0034,-0.00032421,-0.00013312,0.00003817,-0.00013164,0.00003711,0.00023
 994,-0.00000305,0.00001956,-0.00000066,0.00000130,0.00001357,0.0000111
 1,-0.00003284,-0.00012625,-0.00007629,-0.00143562,-0.00288255,0.001752
 78,0.23988684,-0.15362283,-0.00326843,-0.00009825,0.00024591,0.0001717
 4,0.00022504,0.00015930,-0.00000181,-0.00197414,0.00085388,0.00078168,
 -0.02832673,0.00871417,0.00474523,-0.20746542,0.14659657,-0.00000063,-
 0.00000053,0.00000127,0.00001923,-0.00000890,0.00002919,0.00000251,-0.
 00001063,0.00000300,0.00000115,0.00000199,-0.00000312,0.00000065,0.000
 00010,0.00000011,-0.00000802,-0.00000476,0.00001236,0.00001797,0.00001
 026,-0.00002263,-0.00000017,-0.00000225,-0.00000590,0.00000209,-0.0000
 0122,0.00000562,-0.00000430,-0.00000480,-0.00000353,-0.00015351,0.0002
 6887,0.00024558,0.00000695,0.00000902,0.00001573,0.00000231,0.00000171
 ,0.00000074,0.00000081,-0.00000030,0.00000047,0.00028469,0.00011316,-0
 .00005052,0.00001680,-0.00000272,-0.00009932,-0.00000138,-0.00000286,-
 0.00000366,-0.00000541,-0.00000515,-0.00001008,0.00017611,-0.00013766,
 0.00025974,0.00076517,0.00256040,-0.00258349,0.01536583,0.01329333,-0.
 01407110,-0.00026087,0.00024136,-0.00004876,-0.00007722,-0.00010811,-0
 .00004731,0.00159379,-0.00030583,0.00000812,0.02524168,-0.01081937,-0.
 00509781,-0.04248064,-0.00466140,0.02022283,-0.00000130,0.00000327,-0.
 00000383,0.00000290,0.00000319,-0.00000680,-0.00000466,0.00010293,-0.0
 0001077,0.00000297,-0.00000252,-0.00000204,-0.00000036,-0.00000098,-0.
 00000287,-0.00007593,-0.00003147,-0.00003463,-0.00013910,0.00003656,-0
 .00008172,0.00003226,-0.00004690,0.00016372,-0.00001751,-0.00003529,-0
 .00008468,0.00001065,-0.00004650,0.00007999,0.00013642,0.00000741,-0.0
 0010688,-0.00000327,-0.00007424,-0.00003094,0.00002033,-0.00000805,-0.
 00002679,-0.00000002,-0.00000287,-0.00000030,-0.00019713,-0.00000502,0
 .00003904,0.00007107,-0.00001655,-0.00010785,-0.00000300,0.00003574,-0
 .00000093,0.00000712,0.00003144,0.00002698,0.00151784,-0.00087302,-0.0
 0030172,0.00357302,0.02893098,0.01441419,-0.01046025,-0.02973802,-0.00
 060493,-0.00534323,0.00232709,0.00031945,-0.00046485,0.00005177,0.0002
 2515,0.00249194,-0.00045639,-0.00114154,-0.05836874,-0.02872875,-0.019
 73238,0.00132749,-0.00074906,-0.00063765,0.06514260,0.00000274,-0.0000
 0336,0.00000292,0.00000596,-0.00001214,0.00002434,0.00000251,-0.000000
 27,-0.00000185,-0.00000711,-0.00000092,-0.00000163,-0.00000065,-0.0000
 0048,0.00000152,0.00001656,0.00004539,0.00003029,0.00000141,0.00001650
 ,-0.00003989,-0.00000471,-0.00001620,-0.00005235,-0.00000181,-0.000004
 35,0.00000887,0.00000733,-0.00000855,-0.00001261,0.00006432,0.00018524
 ,0.00015923,-0.00000160,0.00004979,0.00002326,-0.00000820,0.00000683,0
 .00001455,-0.00000110,0.00000250,0.00000060,0.00032373,0.00007302,-0.0
 0004145,-0.00003868,0.00000214,-0.00000422,0.00000468,-0.00002667,0.00
 000095,-0.00000157,-0.00002003,-0.00001690,-0.00038934,0.00075343,0.00
 021780,-0.00130992,-0.01650036,-0.00861116,-0.01313404,-0.01849312,0.0
 0261566,0.00235521,-0.00041585,0.00050578,0.00007898,-0.00016489,-0.00
 029797,0.00002956,0.00130855,0.00027362,-0.03021969,-0.25095846,-0.099
 26498,0.00096484,0.00038223,0.00053049,0.04006071,0.27943271,-0.000000
 23,-0.00000093,0.00000095,0.00000732,-0.00000518,0.00000558,0.00000603
 ,-0.00001560,-0.00000064,-0.00000367,-0.00000257,-0.00000291,0.0000002
 0,-0.00000025,0.00000037,0.00000541,0.00000669,0.00000762,-0.00001185,
 0.00000962,0.00000920,-0.00001490,0.00000568,-0.00001399,0.00000244,0.
 00000933,0.00001267,-0.00000239,0.00000034,-0.00001226,-0.00011881,0.0
 0008215,-0.00001690,-0.00000035,0.00001947,0.00000508,-0.00000377,0.00
 000180,0.00000274,-0.00000038,0.00000114,0.00000008,0.00007521,0.00006
 574,0.00000305,0.00002648,0.00000279,-0.00002183,0.00000163,-0.0000100
 1,0.00000161,-0.00000004,-0.00000720,-0.00000483,0.00055255,0.00035972
 ,0.00062752,-0.00119153,0.00071779,0.00014233,0.00904323,0.02619115,0.
 00869904,0.00037447,0.00041893,0.00105056,0.00029922,-0.00019461,-0.00
 014539,-0.00014089,-0.00009114,0.00000446,-0.01835869,-0.10450601,-0.1
 0578820,-0.00132039,-0.00017055,0.00076062,0.01451574,0.10338880,0.105
 80462,0.00000070,0.00000388,-0.00000659,0.00001909,0.00002518,-0.00001
 179,-0.00001180,-0.00007981,0.00004431,0.00004481,0.00002141,0.0000121
 0,0.00000097,0.00000365,0.00000043,-0.00001176,-0.00015609,-0.00001940
 ,-0.00007705,0.00004573,0.00002284,-0.00005782,0.00005674,0.00005661,0
 .00002111,0.00003803,0.00002946,-0.00001513,0.00009026,-0.00003368,0.0
 0020830,0.00000514,0.00006906,-0.00001643,-0.00011241,-0.00006801,0.00
 000248,0.00000200,-0.00000601,0.00000007,-0.00000450,-0.00000104,-0.00
 013818,0.00002600,-0.00000892,-0.00005632,0.00001154,0.00014910,-0.000
 00387,0.00005040,0.00000184,0.00001590,0.00004073,0.00004894,-0.004500
 41,0.00275918,0.00132701,-0.01226266,0.00333264,-0.02902120,0.00492101
 ,-0.00993616,0.03158681,0.00157393,-0.00046453,0.00051461,0.00019891,0
 .00014321,-0.00003053,0.00158964,-0.00042034,-0.00012647,-0.08770549,0
 .01156466,-0.09061929,0.00188529,0.00010200,0.00012867,0.00075665,0.00
 119744,-0.00373020,0.09365097,-0.00000095,-0.00000260,0.00000354,-0.00
 001621,-0.00000794,-0.00000372,0.00000838,0.00003020,-0.00002004,-0.00
 002074,-0.00001126,-0.00000746,-0.00000053,-0.00000160,-0.00000035,0.0
 0000968,0.00006584,0.00001300,0.00005385,-0.00000085,-0.00001365,0.000
 02231,-0.00002820,-0.00002752,-0.00000793,-0.00001441,-0.00000653,0.00
 000300,-0.00003606,0.00000974,-0.00004316,-0.00005586,-0.00004804,0.00
 001038,0.00004807,0.00003268,0.00000009,-0.00000292,0.00000178,0.00000
 001,0.00000169,0.00000064,0.00003960,-0.00002806,0.00003153,0.00002877
 ,-0.00001072,-0.00006347,0.00000097,-0.00002147,-0.00000205,-0.0000087
 4,-0.00001832,-0.00002330,0.00281887,-0.00097184,-0.00000038,0.0094901
 8,-0.00291898,0.01809373,0.00027582,-0.00434602,0.02450624,-0.00085963
 ,0.00077938,0.00051517,-0.00005205,-0.00006206,-0.00008144,-0.00095741
 ,0.00055162,-0.00037709,0.00749459,-0.05654330,0.01555836,0.00083190,0
 .00003132,-0.00094668,-0.01076897,0.00437062,-0.02626778,-0.00834447,0
 .05919462,0.00000141,0.00000157,-0.00000100,-0.00000112,0.00000778,-0.
 00001022,-0.00000250,0.00004025,-0.00000972,-0.00000508,-0.00000222,0.
 00000068,-0.00000019,-0.00000049,-0.00000058,0.00000842,0.00004159,-0.
 00001685,0.00001927,-0.00007863,-0.00002347,0.00003499,-0.00001642,0.0
 0001569,-0.00001011,-0.00001937,-0.00002750,0.00000651,-0.00002298,0.0
 0003070,0.00002599,-0.00009229,0.00003873,-0.00000200,-0.00000245,-0.0
 0000204,0.00000264,-0.00000155,-0.00000274,0.00000050,-0.00000006,-0.0
 0000047,-0.00010792,-0.00004048,0.00000715,-0.00004806,0.00001128,0.00
 008973,0.,0.00000122,0.00000155,0.00000063,0.00000302,0.00000292,0.001
 27053,0.00001156,0.00079409,0.00068823,-0.00029158,0.00163100,0.006402
 07,0.01089995,-0.02015540,-0.00023680,0.00019123,0.00072549,0.00011145
 ,0.00003840,-0.00001987,-0.00089905,-0.00029512,0.00109799,-0.08950019
 ,0.01931824,-0.27293609,-0.00058192,0.00064551,0.00045724,-0.00686440,
 0.00052816,-0.01114055,0.08970862,-0.03089426,0.29946563,-0.00001250,-
 0.00007618,0.00006345,-0.00038670,-0.00113426,-0.00108793,0.00000206,0
 .00029464,0.00027316,0.00000309,0.00001181,-0.00007254,0.00001280,-0.0
 0001255,0.00000668,-0.00007445,-0.00009057,-0.00000482,0.00182383,0.00
 114401,0.00249678,0.00066168,-0.00095352,0.00054920,-0.00000199,-0.000
 13265,-0.00011268,0.00001782,-0.00017437,0.00011607,0.00001237,-0.0064
 0488,0.00286467,0.00003684,0.00020839,0.00011964,-0.00000035,0.0001465
 3,0.00013034,0.00000251,0.00000694,0.00000279,-0.00066270,0.00249488,0
 .00251533,-0.17301460,0.19900752,-0.13799652,0.00000756,-0.00010890,-0
 .00000085,-0.00003035,-0.00009272,-0.00008111,0.00009172,0.00007742,-0
 .00006348,-0.00033046,-0.00029852,0.00034548,0.00011372,0.00001058,-0.
 00007880,0.00003192,-0.00002398,0.00000505,0.00316218,0.00093576,-0.00
 050024,-0.00067233,-0.00242140,-0.00071214,-0.00009215,0.00007595,0.00
 010507,-0.00000672,0.00001588,0.00000337,-0.00001393,0.00000246,-0.000
 01182,-0.00003289,-0.00000762,-0.00002191,0.16935202,0.00001671,-0.000
 01025,-0.00001801,-0.00162440,-0.00015528,-0.00173892,-0.00010373,0.00
 016237,0.00014969,0.00007168,0.00000793,0.00000484,0.00005464,0.000001
 40,-0.00001047,-0.00001844,0.00011422,0.00000724,0.00141763,0.00110862
 ,-0.00021376,-0.00008086,-0.00009146,0.00012770,-0.00000711,0.00000943
 ,-0.00004710,-0.00024468,0.00003180,0.00012616,-0.00825866,0.00485046,
 -0.00095021,0.00000021,-0.00004296,-0.00002564,0.00029235,0.00013265,0
 .00008862,0.00000194,-0.00000387,0.00000107,0.00035832,-0.00131674,-0.
 00055467,0.19769042,-0.23880469,0.15559759,-0.00000406,0.00003430,-0.0
 0000110,-0.00000250,0.00001220,0.00001476,0.00001100,-0.00000281,-0.00
 005274,-0.00014390,-0.00091497,0.00039643,0.00017393,-0.00004455,-0.00
 003531,-0.00007304,-0.00000648,0.00015328,0.00089832,0.00053020,-0.001
 09696,0.00211375,-0.00090240,-0.00365692,-0.00003691,0.00019829,-0.000
 13218,0.00000602,0.00002507,-0.00000756,-0.00000649,-0.00000329,-0.000
 00930,-0.00000151,0.00000910,0.00001815,-0.19250063,0.23507172,-0.0000
 3312,0.00006459,-0.00000252,-0.00102189,-0.00179005,0.00019910,-0.0001
 9259,-0.00045189,-0.00018929,-0.00000852,-0.00000880,-0.00006372,0.000
 03348,0.00001055,0.00002070,-0.00011095,-0.00078570,0.00031611,0.00048
 856,-0.00250233,-0.00375806,-0.00000293,0.00118392,-0.00040503,0.00014
 173,0.00001106,0.00022876,-0.00013330,0.00012161,-0.00001712,-0.025829
 98,0.03162799,-0.03981606,0.00000541,0.00027576,0.00011692,0.00015404,
 0.00043554,0.00016628,0.00000064,0.00000970,0.00000346,0.00203389,0.00
 151486,0.00301493,-0.10333446,0.11849270,-0.13026112,0.00001497,-0.000
 14323,0.00000220,-0.00002271,-0.00013364,-0.00009431,-0.00045164,-0.00
 031093,0.00034704,0.00218774,0.00199074,-0.00086299,-0.00058454,0.0000
 6250,0.00017280,-0.00008058,-0.00014224,-0.00003465,-0.00088000,-0.000
 98736,-0.00122595,-0.00396751,0.00006371,0.00655776,0.00045954,-0.0004
 4988,0.00009833,0.00000484,-0.00005996,0.00002462,-0.00000061,0.000018
 16,0.00000939,-0.00001727,0.00001733,-0.00001209,0.13114776,-0.1481347
 1,0.16546454\\0.00000555,0.00000174,-0.00000501,0.00000134,-0.00000166
 ,-0.00001005,0.00000452,0.00000003,-0.00000308,0.00000445,-0.00000031,
 -0.00000531,0.00000220,0.00000132,-0.00000195,-0.00000225,-0.00000087,
 -0.00000173,-0.00000060,0.00000069,-0.00000042,0.00000187,0.00000045,-
 0.00000331,0.00000174,0.00000088,-0.00000049,-0.00000103,0.00000036,-0
 .00000135,-0.00000018,0.00000058,-0.00000481,-0.00000205,-0.00000566,0
 .00000373,-0.00000410,-0.00000173,0.00000093,-0.00000384,-0.00000132,0
 .00000270,-0.00000779,-0.00000158,-0.00001071,-0.00000666,-0.00000765,
 0.00000377,-0.00000305,0.00000313,-0.00000121,-0.00000628,-0.00000181,
 0.00000175,0.00000409,0.00000173,0.00000278,0.00000155,0.00000077,0.00
 000038,0.00000720,0.00000573,0.00000374,0.00000037,-0.00000009,0.00000
 272,0.00000027,-0.00000233,0.00000002,-0.00000092,0.00000321,0.0000005
 4,-0.00000288,-0.00000214,0.00000804,0.00000337,0.00000356,0.00000899,
 0.00000224,0.00000129,0.00000281,0.00000105,0.00000054,0.00000600,-0.0
 0000019,0.00000114,0.00000054\\\@


 THE RED LIGHT IS ALWAYS LONGER THAN THE GREEN LIGHT.

                     -- PETER'S THEORY OF RELATIVITY
 Job cpu time:       0 days 10 hours 50 minutes  9.3 seconds.
 Elapsed time:       0 days  0 hours 18 minutes  5.6 seconds.
 File lengths (MBytes):  RWF=    954 Int=      0 D2E=      0 Chk=     38 Scr=      1
 Normal termination of Gaussian 16 at Fri Aug  9 19:10:03 2019.
