 Entering Gaussian System, Link 0=g16
 Initial command:
 /nopt/nrel/apps/gaussian/g16B/g16/l1.exe "/dev/shm/Gau-366604.inp" -scrdir="/dev/shm/"
 Default is to use a total of  36 processors:
                               36 via shared-memory
                                1 via Linda
 Entering Link 1 = /nopt/nrel/apps/gaussian/g16B/g16/l1.exe PID=    366606.
  
 Copyright (c) 1988-2017, Gaussian, Inc.  All Rights Reserved.
  
 This is part of the Gaussian(R) 16 program.  It is based on
 the Gaussian(R) 09 system (copyright 2009, Gaussian, Inc.),
 the Gaussian(R) 03 system (copyright 2003, Gaussian, Inc.),
 the Gaussian(R) 98 system (copyright 1998, Gaussian, Inc.),
 the Gaussian(R) 94 system (copyright 1995, Gaussian, Inc.),
 the Gaussian 92(TM) system (copyright 1992, Gaussian, Inc.),
 the Gaussian 90(TM) system (copyright 1990, Gaussian, Inc.),
 the Gaussian 88(TM) system (copyright 1988, Gaussian, Inc.),
 the Gaussian 86(TM) system (copyright 1986, Carnegie Mellon
 University), and the Gaussian 82(TM) system (copyright 1983,
 Carnegie Mellon University). Gaussian is a federally registered
 trademark of Gaussian, Inc.
  
 This software contains proprietary and confidential information,
 including trade secrets, belonging to Gaussian, Inc.
  
 This software is provided under written license and may be
 used, copied, transmitted, or stored only in accord with that
 written license.
  
 The following legend is applicable only to US Government
 contracts under FAR:
  
                    RESTRICTED RIGHTS LEGEND
  
 Use, reproduction and disclosure by the US Government is
 subject to restrictions as set forth in subparagraphs (a)
 and (c) of the Commercial Computer Software - Restricted
 Rights clause in FAR 52.227-19.
  
 Gaussian, Inc.
 340 Quinnipiac St., Bldg. 40, Wallingford CT 06492
  
  
 ---------------------------------------------------------------
 Warning -- This program may not be used in any manner that
 competes with the business of Gaussian, Inc. or will provide
 assistance to any competitor of Gaussian, Inc.  The licensee
 of this program is prohibited from giving any competitor of
 Gaussian, Inc. access to this program.  By using this program,
 the user acknowledges that Gaussian, Inc. is engaged in the
 business of creating and licensing software in the field of
 computational chemistry and represents and warrants to the
 licensee that it is not a competitor of Gaussian, Inc. and that
 it will not use this program in any manner prohibited above.
 ---------------------------------------------------------------
  

 Cite this work as:
 Gaussian 16, Revision B.01,
 M. J. Frisch, G. W. Trucks, H. B. Schlegel, G. E. Scuseria, 
 M. A. Robb, J. R. Cheeseman, G. Scalmani, V. Barone, 
 G. A. Petersson, H. Nakatsuji, X. Li, M. Caricato, A. V. Marenich, 
 J. Bloino, B. G. Janesko, R. Gomperts, B. Mennucci, H. P. Hratchian, 
 J. V. Ortiz, A. F. Izmaylov, J. L. Sonnenberg, D. Williams-Young, 
 F. Ding, F. Lipparini, F. Egidi, J. Goings, B. Peng, A. Petrone, 
 T. Henderson, D. Ranasinghe, V. G. Zakrzewski, J. Gao, N. Rega, 
 G. Zheng, W. Liang, M. Hada, M. Ehara, K. Toyota, R. Fukuda, 
 J. Hasegawa, M. Ishida, T. Nakajima, Y. Honda, O. Kitao, H. Nakai, 
 T. Vreven, K. Throssell, J. A. Montgomery, Jr., J. E. Peralta, 
 F. Ogliaro, M. J. Bearpark, J. J. Heyd, E. N. Brothers, K. N. Kudin, 
 V. N. Staroverov, T. A. Keith, R. Kobayashi, J. Normand, 
 K. Raghavachari, A. P. Rendell, J. C. Burant, S. S. Iyengar, 
 J. Tomasi, M. Cossi, J. M. Millam, M. Klene, C. Adamo, R. Cammi, 
 J. W. Ochterski, R. L. Martin, K. Morokuma, O. Farkas, 
 J. B. Foresman, and D. J. Fox, Gaussian, Inc., Wallingford CT, 2016.
 
 ******************************************
 Gaussian 16:  ES64L-G16RevB.01 20-Dec-2017
                14-Aug-2019 
 ******************************************
 %RWF=/dev/shm/,5GB,/tmp/scratch/1148495/,-1
 %NoSave
 %Chk=/dev/shm/ipah_d.chk
 Default route: CacheSize=180224 MaxDisk=256GB
 ----------------------------------------------------------------------
 # m062x/Def2TZVP nosymm scf=xqc opt freq=NoRaman guess=mix CPHF=Grid=F
 ine SCRF=(Solvent=1,2-EthaneDiol,Read)
 ----------------------------------------------------------------------
 1/4=180224,18=20,19=15,26=3,38=1,40=2/1,3;
 2/4=180224,9=110,12=2,15=1,17=6,18=5,40=1/2;
 3/4=180224,5=44,7=101,11=2,25=1,30=1,70=2203,71=1,72=30,74=-55/1,2,3;
 4/4=180224,13=-1/1;
 5/4=180224,5=2,8=3,13=1,38=5,53=30/2,8;
 6/4=180224,7=2,8=2,9=2,10=2,28=1/1;
 7/4=180224,30=1/1,2,3,16;
 1/4=180224,18=20,19=15,26=3/3(2);
 2/4=180224,9=110,15=1/2;
 99/4=180224/99;
 2/4=180224,9=110,15=1/2;
 3/4=180224,5=44,7=101,11=2,25=1,30=1,70=2205,71=1,72=30,74=-55/1,2,3;
 4/4=180224,5=5,16=3,69=1/1;
 5/4=180224,5=2,8=3,13=1,38=5,53=30/2,8;
 7/4=180224,30=1/1,2,3,16;
 1/4=180224,18=20,19=15,26=3/3(-5);
 2/4=180224,9=110,15=1/2;
 6/4=180224,7=2,8=2,9=2,10=2,19=2,28=1/1;
 99/4=180224,9=1/99;
 -------------------------------
 rotate to make sure have lowest
 -------------------------------
 Symbolic Z-matrix:
 Charge =  1 Multiplicity = 1
 1                     3.4132    20.14716   10.26251 
 1                     4.91582   15.90327   13.82323 
 6                     3.90245   20.17373   11.22514 
 1                     3.882     18.04357   11.47442 
 1                     4.04282   22.28909   11.22641 
 6                     5.15786   20.22882   13.71714 
 6                     4.79196   19.02163   13.15087 
 6                     4.16495   18.99276   11.90778 
 6                     4.26661   21.38514   11.77821 
 6                     4.89658   21.41281   13.02742 
 6                     5.09463   17.77463   13.91438 
 6                     5.29455   22.66377   13.63838 
 1                     5.64497   20.23946   14.68215 
 1                     6.03888   23.52084   15.14207 
 8                     4.69269   16.67498   13.27984 
 8                     5.64163   17.76601   14.9848 
 8                     5.78685   22.63621   14.81711 
 8                     5.19606   23.81759   13.09303 
 1                     5.50968   24.55548   13.64127 
 

 GradGradGradGradGradGradGradGradGradGradGradGradGradGradGradGradGradGrad
 Berny optimization.
 Initialization pass.
                           ----------------------------
                           !    Initial Parameters    !
                           ! (Angstroms and Degrees)  !
 --------------------------                            --------------------------
 ! Name  Definition              Value          Derivative Info.                !
 --------------------------------------------------------------------------------
 ! R1    R(1,3)                  1.0802         estimate D2E/DX2                !
 ! R2    R(2,15)                 0.9698         estimate D2E/DX2                !
 ! R3    R(3,8)                  1.3891         estimate D2E/DX2                !
 ! R4    R(3,9)                  1.3806         estimate D2E/DX2                !
 ! R5    R(4,8)                  1.0811         estimate D2E/DX2                !
 ! R6    R(5,9)                  1.0824         estimate D2E/DX2                !
 ! R7    R(6,7)                  1.3827         estimate D2E/DX2                !
 ! R8    R(6,10)                 1.3949         estimate D2E/DX2                !
 ! R9    R(6,13)                 1.081          estimate D2E/DX2                !
 ! R10   R(7,8)                  1.3926         estimate D2E/DX2                !
 ! R11   R(7,11)                 1.4932         estimate D2E/DX2                !
 ! R12   R(9,10)                 1.3993         estimate D2E/DX2                !
 ! R13   R(10,12)                1.4479         estimate D2E/DX2                !
 ! R14   R(11,15)                1.3317         estimate D2E/DX2                !
 ! R15   R(11,16)                1.2021         estimate D2E/DX2                !
 ! R16   R(12,17)                1.2777         estimate D2E/DX2                !
 ! R17   R(12,18)                1.28           estimate D2E/DX2                !
 ! R18   R(14,17)                0.9755         estimate D2E/DX2                !
 ! R19   R(18,19)                0.9713         estimate D2E/DX2                !
 ! A1    A(1,3,8)              120.1746         estimate D2E/DX2                !
 ! A2    A(1,3,9)              119.8731         estimate D2E/DX2                !
 ! A3    A(8,3,9)              119.9523         estimate D2E/DX2                !
 ! A4    A(7,6,10)             119.2741         estimate D2E/DX2                !
 ! A5    A(7,6,13)             119.5656         estimate D2E/DX2                !
 ! A6    A(10,6,13)            121.1595         estimate D2E/DX2                !
 ! A7    A(6,7,8)              120.1874         estimate D2E/DX2                !
 ! A8    A(6,7,11)             117.7801         estimate D2E/DX2                !
 ! A9    A(8,7,11)             122.0324         estimate D2E/DX2                !
 ! A10   A(3,8,4)              119.9986         estimate D2E/DX2                !
 ! A11   A(3,8,7)              120.4067         estimate D2E/DX2                !
 ! A12   A(4,8,7)              119.5947         estimate D2E/DX2                !
 ! A13   A(3,9,5)              118.2955         estimate D2E/DX2                !
 ! A14   A(3,9,10)             119.586          estimate D2E/DX2                !
 ! A15   A(5,9,10)             122.1159         estimate D2E/DX2                !
 ! A16   A(6,10,9)             120.5929         estimate D2E/DX2                !
 ! A17   A(6,10,12)            118.2422         estimate D2E/DX2                !
 ! A18   A(9,10,12)            121.1649         estimate D2E/DX2                !
 ! A19   A(7,11,15)            112.6305         estimate D2E/DX2                !
 ! A20   A(7,11,16)            123.6099         estimate D2E/DX2                !
 ! A21   A(15,11,16)           123.7596         estimate D2E/DX2                !
 ! A22   A(10,12,17)           118.4592         estimate D2E/DX2                !
 ! A23   A(10,12,18)           125.3003         estimate D2E/DX2                !
 ! A24   A(17,12,18)           116.2405         estimate D2E/DX2                !
 ! A25   A(2,15,11)            108.7016         estimate D2E/DX2                !
 ! A26   A(12,17,14)           112.7857         estimate D2E/DX2                !
 ! A27   A(12,18,19)           114.8018         estimate D2E/DX2                !
 ! D1    D(1,3,8,4)              0.1779         estimate D2E/DX2                !
 ! D2    D(1,3,8,7)           -179.8132         estimate D2E/DX2                !
 ! D3    D(9,3,8,4)           -179.8703         estimate D2E/DX2                !
 ! D4    D(9,3,8,7)              0.1386         estimate D2E/DX2                !
 ! D5    D(1,3,9,5)              0.3834         estimate D2E/DX2                !
 ! D6    D(1,3,9,10)           179.8134         estimate D2E/DX2                !
 ! D7    D(8,3,9,5)           -179.5686         estimate D2E/DX2                !
 ! D8    D(8,3,9,10)            -0.1386         estimate D2E/DX2                !
 ! D9    D(10,6,7,8)            -0.2494         estimate D2E/DX2                !
 ! D10   D(10,6,7,11)          179.6506         estimate D2E/DX2                !
 ! D11   D(13,6,7,8)          -179.9374         estimate D2E/DX2                !
 ! D12   D(13,6,7,11)           -0.0374         estimate D2E/DX2                !
 ! D13   D(7,6,10,9)             0.2493         estimate D2E/DX2                !
 ! D14   D(7,6,10,12)         -179.7281         estimate D2E/DX2                !
 ! D15   D(13,6,10,9)          179.9322         estimate D2E/DX2                !
 ! D16   D(13,6,10,12)          -0.0453         estimate D2E/DX2                !
 ! D17   D(6,7,8,3)              0.0581         estimate D2E/DX2                !
 ! D18   D(6,7,8,4)           -179.933          estimate D2E/DX2                !
 ! D19   D(11,7,8,3)          -179.8376         estimate D2E/DX2                !
 ! D20   D(11,7,8,4)             0.1713         estimate D2E/DX2                !
 ! D21   D(6,7,11,15)          179.6379         estimate D2E/DX2                !
 ! D22   D(6,7,11,16)           -0.3711         estimate D2E/DX2                !
 ! D23   D(8,7,11,15)           -0.464          estimate D2E/DX2                !
 ! D24   D(8,7,11,16)          179.527          estimate D2E/DX2                !
 ! D25   D(3,9,10,6)            -0.0554         estimate D2E/DX2                !
 ! D26   D(3,9,10,12)          179.9214         estimate D2E/DX2                !
 ! D27   D(5,9,10,6)           179.3521         estimate D2E/DX2                !
 ! D28   D(5,9,10,12)           -0.6711         estimate D2E/DX2                !
 ! D29   D(6,10,12,17)          -4.4952         estimate D2E/DX2                !
 ! D30   D(6,10,12,18)         175.4813         estimate D2E/DX2                !
 ! D31   D(9,10,12,17)         175.5275         estimate D2E/DX2                !
 ! D32   D(9,10,12,18)          -4.4961         estimate D2E/DX2                !
 ! D33   D(7,11,15,2)         -179.9762         estimate D2E/DX2                !
 ! D34   D(16,11,15,2)           0.0328         estimate D2E/DX2                !
 ! D35   D(10,12,17,14)        179.0881         estimate D2E/DX2                !
 ! D36   D(18,12,17,14)         -0.8904         estimate D2E/DX2                !
 ! D37   D(10,12,18,19)        180.0            estimate D2E/DX2                !
 ! D38   D(17,12,18,19)         -0.0231         estimate D2E/DX2                !
 --------------------------------------------------------------------------------
 Trust Radius=3.00D-01 FncErr=1.00D-07 GrdErr=1.00D-06 EigMax=2.50D+02 EigMin=1.00D-04
 Number of steps in this run=     94 maximum allowed number of steps=    114.
 GradGradGradGradGradGradGradGradGradGradGradGradGradGradGradGradGradGrad

                          Input orientation:                          
 ---------------------------------------------------------------------
 Center     Atomic      Atomic             Coordinates (Angstroms)
 Number     Number       Type             X           Y           Z
 ---------------------------------------------------------------------
      1          1           0        3.413202   20.147162   10.262507
      2          1           0        4.915820   15.903267   13.823226
      3          6           0        3.902452   20.173734   11.225139
      4          1           0        3.881995   18.043571   11.474417
      5          1           0        4.042825   22.289088   11.226413
      6          6           0        5.157857   20.228821   13.717136
      7          6           0        4.791959   19.021633   13.150867
      8          6           0        4.164950   18.992762   11.907779
      9          6           0        4.266606   21.385139   11.778211
     10          6           0        4.896583   21.412814   13.027421
     11          6           0        5.094629   17.774629   13.914377
     12          6           0        5.294555   22.663768   13.638380
     13          1           0        5.644968   20.239463   14.682152
     14          1           0        6.038879   23.520838   15.142070
     15          8           0        4.692687   16.674977   13.279835
     16          8           0        5.641631   17.766013   14.984799
     17          8           0        5.786847   22.636212   14.817114
     18          8           0        5.196056   23.817592   13.093031
     19          1           0        5.509676   24.555478   13.641266
 ---------------------------------------------------------------------
                    Distance matrix (angstroms):
                    1          2          3          4          5
     1  H    0.000000
     2  H    5.739967   0.000000
     3  C    1.080154   5.100378   0.000000
     4  H    2.472567   3.341646   2.144797   0.000000
     5  H    2.431746   6.948688   2.120007   4.255795   0.000000
     6  C    3.871040   4.333619   2.790900   3.381262   3.419312
     7  C    3.392699   3.192431   2.413915   2.143624   3.865357
     8  C    2.145853   3.711835   1.389100   1.081124   3.368225
     9  C    2.135004   5.886806   1.380579   3.377320   1.082443
    10  C    3.383348   5.566757   2.402465   3.846168   2.177243
    11  C    4.668219   1.882094   3.795918   2.737922   5.358338
    12  C    4.611867   6.773624   3.736570   5.293797   2.743137
    13  H    4.952026   4.480179   3.871901   4.268440   4.325501
    14  H    6.487373   7.812042   5.577614   6.935725   4.564407
    15  O    4.774664   0.969845   4.133709   2.406201   6.013078
    16  O    5.738973   2.312115   4.791337   3.936514   6.094248
    17  O    5.707364   6.861417   4.745211   5.991197   4.006899
    18  O    4.966134   7.952877   4.294198   6.138891   2.674047
    19  H    5.936705   8.674476   5.255523   7.053333   3.622111
                    6          7          8          9         10
     6  C    0.000000
     7  C    1.382695   0.000000
     8  C    2.405718   1.392567   0.000000
     9  C    2.427103   2.783225   2.398039   0.000000
    10  C    1.394923   2.396650   2.765056   1.399344   0.000000
    11  C    2.462917   1.493176   2.524794   4.276051   3.749974
    12  C    2.440052   3.708830   4.212751   2.480282   1.447943
    13  H    1.081039   2.134378   3.382582   3.412525   2.162167
    14  H    3.693780   5.075682   5.871603   4.360930   3.196928
    15  O    3.610737   2.352293   2.744662   4.962061   4.748935
    16  O    2.811837   2.379460   3.626783   5.027024   4.205423
    17  O    2.720498   4.102604   4.936548   3.620946   2.343560
    18  O    3.642835   4.813301   5.074149   2.917097   2.424241
    19  H    4.341600   5.601701   5.979722   3.881655   3.260219
                   11         12         13         14         15
    11  C    0.000000
    12  C    4.901002   0.000000
    13  H    2.639651   2.662612   0.000000
    14  H    5.951282   1.884057   3.336782   0.000000
    15  O    1.331704   6.029628   3.947011   7.221216   0.000000
    16  O    1.202118   5.091297   2.491899   5.770663   2.235566
    17  O    4.992904   1.277703   2.404735   0.975541   6.252738
    18  O    6.099369   1.280007   3.940791   2.235391   7.162767
    19  H    6.799027   1.903905   4.441817   1.898144   7.930977
                   16         17         18         19
    16  O    0.000000
    17  O    4.875248   0.000000
    18  O    6.356015   2.171901   0.000000
    19  H    6.922379   2.267824   0.971285   0.000000
 Symmetry turned off by external request.
 Stoichiometry    C8H7O4(1+)
 Framework group  C1[X(C8H7O4)]
 Deg. of freedom    51
 Full point group                 C1      NOp   1
 Rotational constants (GHZ):           1.8732426           0.5799610           0.4430341
 Standard basis: def2TZVP (5D, 7F)
   414 basis functions,   668 primitive gaussians,   474 cartesian basis functions
    43 alpha electrons       43 beta electrons
       nuclear repulsion energy       667.7428792824 Hartrees.
 NAtoms=   19 NActive=   19 NUniq=   19 SFac= 1.00D+00 NAtFMM=   60 NAOKFM=F Big=F
 Integral buffers will be    131072 words long.
 Raffenetti 2 integral format.
 Two-electron integral symmetry is turned off.
 Using the following non-standard input for PCM:
 PDENS=7.0
 --- end of non-standard input.
 ------------------------------------------------------------------------------
 Polarizable Continuum Model (PCM)
 =================================
 Model                : PCM.
 Atomic radii         : UFF (Universal Force Field).
 Polarization charges : Total charges.
 Charge compensation  : None.
 Solution method      : On-the-fly selection.
 Cavity type          : Scaled VdW (van der Waals Surface) (Alpha=1.100).
 Cavity algorithm     : GePol (No added spheres)
                        Default sphere list used, NSphG=   19.
                        Lebedev-Laikov grids with approx.  7.0 points / Ang**2.
                        Smoothing algorithm: York/Karplus (Gamma=1.0000).
                        Polarization charges: spherical gaussians, with
                                              point-specific exponents (IZeta= 3).
                        Self-potential: point-specific (ISelfS= 7).
                        Self-field    : sphere-specific E.n sum rule (ISelfD= 2).
 1st derivatives      : Analytical E(r).r(x)/FMM algorithm (CHGder, D1EAlg=3).
                        Cavity 1st derivative terms included.
 Solvent              : 1,2-EthaneDiol, Eps=  40.245000 Eps(inf)=   2.050051
 ------------------------------------------------------------------------------
 Spheres list:
 ISph  on   Nord     Re0    Alpha      Xe            Ye            Ze
    1   H      1    1.4430  1.100      3.413202     20.147162     10.262507
    2   H      2    1.4430  1.100      4.915820     15.903267     13.823226
    3   C      3    1.9255  1.100      3.902452     20.173734     11.225139
    4   H      4    1.4430  1.100      3.881995     18.043571     11.474417
    5   H      5    1.4430  1.100      4.042825     22.289088     11.226413
    6   C      6    1.9255  1.100      5.157857     20.228821     13.717136
    7   C      7    1.9255  1.100      4.791959     19.021633     13.150867
    8   C      8    1.9255  1.100      4.164950     18.992762     11.907779
    9   C      9    1.9255  1.100      4.266606     21.385139     11.778211
   10   C     10    1.9255  1.100      4.896583     21.412814     13.027421
   11   C     11    1.9255  1.100      5.094629     17.774629     13.914377
   12   C     12    1.9255  1.100      5.294555     22.663768     13.638380
   13   H     13    1.4430  1.100      5.644968     20.239463     14.682152
   14   H     14    1.4430  1.100      6.038879     23.520838     15.142070
   15   O     15    1.7500  1.100      4.692687     16.674977     13.279835
   16   O     16    1.7500  1.100      5.641631     17.766013     14.984799
   17   O     17    1.7500  1.100      5.786847     22.636212     14.817114
   18   O     18    1.7500  1.100      5.196056     23.817592     13.093031
   19   H     19    1.4430  1.100      5.509676     24.555478     13.641266
 ------------------------------------------------------------------------------
 One-electron integrals computed using PRISM.
   1 Symmetry operations used in ECPInt.
 ECPInt:  NShTT=   12880 NPrTT=   40188 LenC2=   11949 LenP2D=   28217.
 LDataN:  DoStor=T MaxTD1= 6 Len=  172
 NBasis=   414 RedAO= T EigKep=  7.71D-06  NBF=   414
 NBsUse=   414 1.00D-06 EigRej= -1.00D+00 NBFU=   414
 ExpMin= 9.52D-02 ExpMax= 2.70D+04 ExpMxC= 9.22D+02 IAcc=3 IRadAn=         5 AccDes= 0.00D+00
 Harris functional with IExCor= 1009 and IRadAn=       5 diagonalized for initial guess.
 HarFok:  IExCor= 1009 AccDes= 0.00D+00 IRadAn=         5 IDoV= 1 UseB2=F ITyADJ=14
 ICtDFT=  3500011 ScaDFX=  1.000000  1.000000  1.000000  1.000000
 FoFCou: FMM=F IPFlag=           0 FMFlag=      100000 FMFlg1=           0
         NFxFlg=           0 DoJE=T BraDBF=F KetDBF=T FulRan=T
         wScrn=  0.000000 ICntrl=       500 IOpCl=  0 I1Cent=   200000004 NGrid=           0
         NMat0=    1 NMatS0=      1 NMatT0=    0 NMatD0=    1 NMtDS0=    0 NMtDT0=    0
 Symmetry not used in FoFCou.
 Mixing orbitals, IMix= 1 IMixAn=  0 NRI=1 NE=   43 Coef=  7.07106781D-01  7.07106781D-01
 Requested convergence on RMS density matrix=1.00D-08 within  32 cycles.
 Requested convergence on MAX density matrix=1.00D-06.
 Requested convergence on             energy=1.00D-06.
 No special actions if energy rises.
 Inv3:  Mode=1 IEnd=    17323227.
 Iteration    1 A*A^-1 deviation from unit magnitude is 3.11D-15 for    297.
 Iteration    1 A*A^-1 deviation from orthogonality  is 2.39D-15 for   2222   1888.
 Iteration    1 A^-1*A deviation from unit magnitude is 3.11D-15 for    297.
 Iteration    1 A^-1*A deviation from orthogonality  is 1.57D-13 for   2350   2336.
 Error on total polarization charges =  0.00848
 SCF Done:  E(RM062X) =  -609.812383791     A.U. after   15 cycles
            NFock= 15  Conv=0.22D-08     -V/T= 2.0045
 QCSCF skips out because SCF is already converged.

 **********************************************************************

            Population analysis using the SCF Density.

 **********************************************************************

 Alpha  occ. eigenvalues --  -19.76353 -19.76114 -19.69275 -19.64057 -10.78922
 Alpha  occ. eigenvalues --  -10.70340 -10.61580 -10.60249 -10.60059 -10.59508
 Alpha  occ. eigenvalues --  -10.59429 -10.58017  -1.36641  -1.26309  -1.26239
 Alpha  occ. eigenvalues --   -1.16718  -1.02678  -0.94304  -0.90627  -0.84653
 Alpha  occ. eigenvalues --   -0.79713  -0.77147  -0.74551  -0.70621  -0.68076
 Alpha  occ. eigenvalues --   -0.64235  -0.63352  -0.61368  -0.59115  -0.57704
 Alpha  occ. eigenvalues --   -0.56621  -0.56074  -0.54256  -0.52714  -0.50934
 Alpha  occ. eigenvalues --   -0.50494  -0.48788  -0.46892  -0.45458  -0.42393
 Alpha  occ. eigenvalues --   -0.38712  -0.36845  -0.35638
 Alpha virt. eigenvalues --   -0.09418  -0.04523   0.01721   0.02121   0.06913
 Alpha virt. eigenvalues --    0.08249   0.08815   0.09046   0.10767   0.12166
 Alpha virt. eigenvalues --    0.12754   0.14148   0.14830   0.16092   0.18831
 Alpha virt. eigenvalues --    0.20988   0.21140   0.21985   0.22358   0.22924
 Alpha virt. eigenvalues --    0.23429   0.24427   0.25112   0.25789   0.26847
 Alpha virt. eigenvalues --    0.27702   0.28006   0.29425   0.29669   0.31257
 Alpha virt. eigenvalues --    0.31792   0.33587   0.33858   0.35198   0.36022
 Alpha virt. eigenvalues --    0.38019   0.38730   0.39716   0.40110   0.40653
 Alpha virt. eigenvalues --    0.40692   0.41601   0.43144   0.44172   0.45310
 Alpha virt. eigenvalues --    0.46541   0.46816   0.47583   0.47772   0.48393
 Alpha virt. eigenvalues --    0.49695   0.51050   0.51699   0.52191   0.52325
 Alpha virt. eigenvalues --    0.53615   0.54519   0.55954   0.58645   0.59864
 Alpha virt. eigenvalues --    0.60391   0.62443   0.63869   0.64059   0.64722
 Alpha virt. eigenvalues --    0.67154   0.68904   0.69955   0.70843   0.71629
 Alpha virt. eigenvalues --    0.72191   0.72978   0.73397   0.74937   0.76050
 Alpha virt. eigenvalues --    0.76907   0.78585   0.79923   0.81224   0.81760
 Alpha virt. eigenvalues --    0.82977   0.84702   0.87352   0.87887   0.88766
 Alpha virt. eigenvalues --    0.90490   0.91531   0.92271   0.93823   0.95585
 Alpha virt. eigenvalues --    0.96337   0.97142   0.99600   1.00629   1.02472
 Alpha virt. eigenvalues --    1.06398   1.08390   1.08871   1.12253   1.13344
 Alpha virt. eigenvalues --    1.16210   1.17127   1.20293   1.22017   1.22489
 Alpha virt. eigenvalues --    1.23820   1.25229   1.26587   1.29798   1.31393
 Alpha virt. eigenvalues --    1.32422   1.33299   1.35120   1.36357   1.36676
 Alpha virt. eigenvalues --    1.39185   1.40134   1.42458   1.44493   1.44912
 Alpha virt. eigenvalues --    1.46610   1.49962   1.50496   1.52388   1.53969
 Alpha virt. eigenvalues --    1.56225   1.57437   1.60067   1.61125   1.62139
 Alpha virt. eigenvalues --    1.62817   1.63270   1.64103   1.66045   1.66332
 Alpha virt. eigenvalues --    1.67339   1.70975   1.71485   1.76057   1.76674
 Alpha virt. eigenvalues --    1.78897   1.80577   1.82416   1.83824   1.85452
 Alpha virt. eigenvalues --    1.86756   1.87586   1.88628   1.90254   1.90901
 Alpha virt. eigenvalues --    1.94816   1.96577   1.97209   1.98453   2.01182
 Alpha virt. eigenvalues --    2.02786   2.03516   2.04140   2.05619   2.08532
 Alpha virt. eigenvalues --    2.10494   2.12199   2.12758   2.13991   2.15146
 Alpha virt. eigenvalues --    2.16212   2.19169   2.21094   2.21923   2.24197
 Alpha virt. eigenvalues --    2.25419   2.28695   2.29579   2.31772   2.34393
 Alpha virt. eigenvalues --    2.36121   2.36157   2.39316   2.41565   2.44357
 Alpha virt. eigenvalues --    2.45461   2.53590   2.55411   2.56706   2.57336
 Alpha virt. eigenvalues --    2.58002   2.60200   2.60500   2.62259   2.64556
 Alpha virt. eigenvalues --    2.65050   2.65757   2.66980   2.69425   2.70037
 Alpha virt. eigenvalues --    2.71580   2.72801   2.74472   2.75928   2.77729
 Alpha virt. eigenvalues --    2.79121   2.79235   2.80378   2.80879   2.81674
 Alpha virt. eigenvalues --    2.82968   2.85051   2.85657   2.86390   2.87401
 Alpha virt. eigenvalues --    2.89575   2.91637   2.92595   2.93583   2.93884
 Alpha virt. eigenvalues --    2.94997   2.95620   2.98296   2.98713   3.00524
 Alpha virt. eigenvalues --    3.03159   3.03657   3.09337   3.10212   3.10302
 Alpha virt. eigenvalues --    3.13660   3.14502   3.15506   3.16292   3.16762
 Alpha virt. eigenvalues --    3.18073   3.18608   3.19333   3.19569   3.22473
 Alpha virt. eigenvalues --    3.24614   3.26490   3.26583   3.27542   3.27827
 Alpha virt. eigenvalues --    3.30059   3.31025   3.33091   3.33218   3.33500
 Alpha virt. eigenvalues --    3.35049   3.36460   3.36626   3.39014   3.40366
 Alpha virt. eigenvalues --    3.40977   3.45704   3.47405   3.47971   3.49555
 Alpha virt. eigenvalues --    3.52264   3.55970   3.56288   3.57633   3.58676
 Alpha virt. eigenvalues --    3.62010   3.66288   3.67630   3.69139   3.70418
 Alpha virt. eigenvalues --    3.75027   3.77416   3.80893   3.81643   3.85001
 Alpha virt. eigenvalues --    3.86084   3.89884   3.94660   3.97385   3.99655
 Alpha virt. eigenvalues --    4.02557   4.03375   4.05146   4.09733   4.12561
 Alpha virt. eigenvalues --    4.14487   4.15126   4.17834   4.18953   4.20089
 Alpha virt. eigenvalues --    4.23106   4.23937   4.26975   4.31874   4.36135
 Alpha virt. eigenvalues --    4.40061   4.46922   4.51152   4.53315   4.54331
 Alpha virt. eigenvalues --    4.57175   4.57724   4.60514   4.69353   4.74568
 Alpha virt. eigenvalues --    4.80477   4.85934   4.87728   4.91783   5.05246
 Alpha virt. eigenvalues --    5.06513   5.12359   5.14323   5.16498   5.19785
 Alpha virt. eigenvalues --    5.21062   5.22449   5.24610   5.29594   5.31417
 Alpha virt. eigenvalues --    5.32983   5.37971   5.38136   5.44837   5.48070
 Alpha virt. eigenvalues --    5.49519   5.52514   5.54075   5.65107   5.72955
 Alpha virt. eigenvalues --    5.79049   5.82423   5.86055   5.89963   5.94028
 Alpha virt. eigenvalues --    5.95498   6.01293   6.14234   6.24420   6.25046
 Alpha virt. eigenvalues --    6.28712   6.29461   6.29689   6.36629   6.38108
 Alpha virt. eigenvalues --    6.42734   6.50147   6.58804   6.63698   6.68213
 Alpha virt. eigenvalues --    6.69264   6.70154   6.75715   6.77691   6.79639
 Alpha virt. eigenvalues --    6.80592   6.86755   6.92551   6.94996   7.08469
 Alpha virt. eigenvalues --    7.15545   7.23221   7.29179   7.37940  22.30978
 Alpha virt. eigenvalues --   22.71551  22.80786  22.90454  23.09857  23.23692
 Alpha virt. eigenvalues --   23.53239  23.57148  43.91866  43.93991  43.98119
 Alpha virt. eigenvalues --   44.08621
          Condensed to atoms (all electrons):
               1          2          3          4          5          6
     1  H    0.455075  -0.000001   0.420634  -0.002965  -0.002882  -0.000627
     2  H   -0.000001   0.329721   0.000028  -0.000176   0.000000  -0.001072
     3  C    0.420634   0.000028   4.929276  -0.026499  -0.023948  -0.059735
     4  H   -0.002965  -0.000176  -0.026499   0.443227  -0.000153   0.005361
     5  H   -0.002882   0.000000  -0.023948  -0.000153   0.445392   0.006229
     6  C   -0.000627  -0.001072  -0.059735   0.005361   0.006229   5.079678
     7  C    0.005087   0.025354  -0.029234  -0.022843   0.000446   0.383676
     8  C   -0.031384  -0.002400   0.470519   0.407074   0.001381  -0.018428
     9  C   -0.033070  -0.000019   0.489562   0.001618   0.406182  -0.013007
    10  C    0.004494   0.000061  -0.035866   0.000767  -0.020469   0.438659
    11  C   -0.000090  -0.027798   0.000493  -0.011696   0.000154  -0.053606
    12  C   -0.000419   0.000002   0.001955   0.000207  -0.014826  -0.040843
    13  H    0.000046  -0.000087  -0.000982  -0.000143  -0.000092   0.380331
    14  H   -0.000000   0.000000   0.000034   0.000000  -0.000009  -0.001200
    15  O   -0.000076   0.299132  -0.001296   0.007852   0.000001   0.008265
    16  O    0.000004   0.003679  -0.000245   0.000094   0.000000   0.030907
    17  O    0.000001   0.000000  -0.000434   0.000000   0.000053   0.008535
    18  O   -0.000031   0.000000  -0.000553  -0.000000   0.003175   0.002141
    19  H    0.000000  -0.000000   0.000019   0.000000   0.000014  -0.000761
               7          8          9         10         11         12
     1  H    0.005087  -0.031384  -0.033070   0.004494  -0.000090  -0.000419
     2  H    0.025354  -0.002400  -0.000019   0.000061  -0.027798   0.000002
     3  C   -0.029234   0.470519   0.489562  -0.035866   0.000493   0.001955
     4  H   -0.022843   0.407074   0.001618   0.000767  -0.011696   0.000207
     5  H    0.000446   0.001381   0.406182  -0.020469   0.000154  -0.014826
     6  C    0.383676  -0.018428  -0.013007   0.438659  -0.053606  -0.040843
     7  C    5.363381   0.439898  -0.053582  -0.027417   0.240925  -0.006718
     8  C    0.439898   4.918668  -0.010301  -0.048814  -0.030671   0.002125
     9  C   -0.053582  -0.010301   4.946026   0.448629   0.003115  -0.066137
    10  C   -0.027417  -0.048814   0.448629   5.049406  -0.003194   0.306705
    11  C    0.240925  -0.030671   0.003115  -0.003194   4.408332  -0.004045
    12  C   -0.006718   0.002125  -0.066137   0.306705  -0.004045   4.441094
    13  H   -0.021724   0.004108   0.005617  -0.002961  -0.008631  -0.014958
    14  H    0.000053  -0.000008  -0.000579   0.018688  -0.000001  -0.018578
    15  O   -0.169795   0.019653   0.000625  -0.000823   0.432518  -0.000018
    16  O   -0.161046   0.003556   0.000537   0.001822   0.692626  -0.000446
    17  O   -0.003777   0.000501   0.002842  -0.120754  -0.000219   0.481334
    18  O   -0.000372   0.000242   0.009854  -0.105456  -0.000002   0.493623
    19  H    0.000026  -0.000007  -0.000784   0.017859  -0.000000  -0.017599
              13         14         15         16         17         18
     1  H    0.000046  -0.000000  -0.000076   0.000004   0.000001  -0.000031
     2  H   -0.000087   0.000000   0.299132   0.003679   0.000000   0.000000
     3  C   -0.000982   0.000034  -0.001296  -0.000245  -0.000434  -0.000553
     4  H   -0.000143   0.000000   0.007852   0.000094   0.000000  -0.000000
     5  H   -0.000092  -0.000009   0.000001   0.000000   0.000053   0.003175
     6  C    0.380331  -0.001200   0.008265   0.030907   0.008535   0.002141
     7  C   -0.021724   0.000053  -0.169795  -0.161046  -0.003777  -0.000372
     8  C    0.004108  -0.000008   0.019653   0.003556   0.000501   0.000242
     9  C    0.005617  -0.000579   0.000625   0.000537   0.002842   0.009854
    10  C   -0.002961   0.018688  -0.000823   0.001822  -0.120754  -0.105456
    11  C   -0.008631  -0.000001   0.432518   0.692626  -0.000219  -0.000002
    12  C   -0.014958  -0.018578  -0.000018  -0.000446   0.481334   0.493623
    13  H    0.426384   0.000054   0.000893   0.018473   0.005011   0.000128
    14  H    0.000054   0.307716   0.000000  -0.000001   0.299145  -0.005114
    15  O    0.000893   0.000000   7.900249  -0.084134  -0.000000  -0.000000
    16  O    0.018473  -0.000001  -0.084134   7.856805  -0.000012  -0.000000
    17  O    0.005011   0.299145  -0.000000  -0.000012   7.686271  -0.067592
    18  O    0.000128  -0.005114  -0.000000  -0.000000  -0.067592   7.654482
    19  H    0.000003   0.005461   0.000000   0.000000  -0.005205   0.298393
              19
     1  H    0.000000
     2  H   -0.000000
     3  C    0.000019
     4  H    0.000000
     5  H    0.000014
     6  C   -0.000761
     7  C    0.000026
     8  C   -0.000007
     9  C   -0.000784
    10  C    0.017859
    11  C   -0.000000
    12  C   -0.017599
    13  H    0.000003
    14  H    0.005461
    15  O    0.000000
    16  O    0.000000
    17  O   -0.005205
    18  O    0.298393
    19  H    0.303164
 Mulliken charges:
               1
     1  H    0.186204
     2  H    0.373576
     3  C   -0.133728
     4  H    0.198275
     5  H    0.199352
     6  C   -0.154500
     7  C    0.037663
     8  C   -0.125712
     9  C   -0.137127
    10  C    0.078664
    11  C    0.361791
    12  C    0.457543
    13  H    0.208529
    14  H    0.394340
    15  O   -0.413046
    16  O   -0.362620
    17  O   -0.285702
    18  O   -0.282918
    19  H    0.399416
 Sum of Mulliken charges =   1.00000
 Mulliken charges with hydrogens summed into heavy atoms:
               1
     3  C    0.052476
     6  C    0.054029
     7  C    0.037663
     8  C    0.072563
     9  C    0.062225
    10  C    0.078664
    11  C    0.361791
    12  C    0.457543
    15  O   -0.039470
    16  O   -0.362620
    17  O    0.108638
    18  O    0.116498
 Electronic spatial extent (au):  <R**2>=         189380.0560
 Charge=              1.0000 electrons
 Dipole moment (field-independent basis, Debye):
    X=             24.3570    Y=            108.5543    Z=             63.4208  Tot=            128.0605
 Quadrupole moment (field-independent basis, Debye-Ang):
   XX=             59.7458   YY=           2423.4907   ZZ=            779.2762
   XY=            561.4376   XZ=            327.6193   YZ=           1449.7706
 Traceless Quadrupole moment (field-independent basis, Debye-Ang):
   XX=          -1027.7584   YY=           1335.9864   ZZ=           -308.2280
   XY=            561.4376   XZ=            327.6193   YZ=           1449.7706
 Octapole moment (field-independent basis, Debye-Ang**2):
  XXX=           -307.1997  YYY=          53706.0064  ZZZ=           8737.2877  XYY=          12772.3974
  XXY=           1624.8518  XXZ=            846.8114  XZZ=           4109.9440  YZZ=          18220.3416
  YYZ=          32722.8957  XYZ=           7636.5934
 Hexadecapole moment (field-independent basis, Debye-Ang**3):
 XXXX=          -6135.1479 YYYY=        1184733.6592 ZZZZ=          83737.6437 XXXY=          -3742.7671
 XXXZ=          -3760.0974 YYYX=         288293.8838 YYYZ=         733054.8017 ZZZX=          47341.4106
 ZZZY=         213109.1683 XXYY=          41283.1956 XXZZ=          10334.0031 YYZZ=         418963.9151
 XXYZ=          23262.9063 YYXZ=         175517.2077 ZZXY=          98011.2610
 N-N= 6.677428792824D+02 E-N=-2.747874971854D+03  KE= 6.071034510811D+02
   1 Symmetry operations used in ECPInt.
 ECPInt:  NShTT=   12880 NPrTT=   40188 LenC2=   11949 LenP2D=   28217.
 LDataN:  DoStor=T MaxTD1= 7 Len=  274
 D1PCM: PCM CHGder 1st derivatives, ID1Alg=3 FixD1E=F DoIter=F DoCFld=F I1PDM=0.
 Calling FoFJK, ICntrl=      2127 FMM=F ISym2X=0 I1Cent= 0 IOpClX= 0 NMat=1 NMatS=1 NMatT=0.
 -------------------------------------------------------------------
 Center     Atomic                   Forces (Hartrees/Bohr)
 Number     Number              X              Y              Z
 -------------------------------------------------------------------
      1        1          -0.000009783   -0.000000659   -0.000021619
      2        1          -0.000003389    0.000038524    0.000007040
      3        6           0.000519273   -0.001406234    0.001369827
      4        1           0.000054763   -0.000157934    0.000122590
      5        1           0.002384160    0.002332403    0.003519201
      6        6           0.000699801    0.000348527    0.001314354
      7        6           0.000238482    0.000127525    0.000506019
      8        6          -0.000364622   -0.000022161   -0.000831605
      9        6          -0.001765080    0.002733574   -0.003846961
     10        6          -0.001044465    0.006936028   -0.003935497
     11        6          -0.000106425    0.000718951   -0.000265361
     12        6           0.006703297    0.012862103    0.012671230
     13        1           0.000020520   -0.000217314    0.000063363
     14        1           0.001681638   -0.007030070    0.005502031
     15        8          -0.000021007   -0.000217701    0.000005200
     16        8           0.000124720   -0.000213765    0.000291358
     17        8           0.004643685   -0.009726842    0.012287869
     18        8          -0.011989266   -0.009192618   -0.025575369
     19        1          -0.001766301    0.002087663   -0.003183669
 -------------------------------------------------------------------
 Cartesian Forces:  Max     0.025575369 RMS     0.005529295

 GradGradGradGradGradGradGradGradGradGradGradGradGradGradGradGradGradGrad
 Berny optimization.
 FormGI is forming the generalized inverse of G from B-inverse, IUseBI=4.
 Internal  Forces:  Max     0.046364707 RMS     0.007423782
 Search for a local minimum.
 Step number   1 out of a maximum of   94
 All quantities printed in internal units (Hartrees-Bohrs-Radians)
 Mixed Optimization -- RFO/linear search
 Second derivative matrix not updated -- first step.
 ITU=  0
     Eigenvalues ---    0.00856   0.01437   0.01455   0.01817   0.01933
     Eigenvalues ---    0.02142   0.02205   0.02213   0.02223   0.02257
     Eigenvalues ---    0.02275   0.02295   0.02323   0.02595   0.03279
     Eigenvalues ---    0.03310   0.15999   0.16000   0.16000   0.16000
     Eigenvalues ---    0.16000   0.16000   0.16000   0.22000   0.23479
     Eigenvalues ---    0.23496   0.25000   0.25000   0.25000   0.25000
     Eigenvalues ---    0.25000   0.25000   0.33104   0.35701   0.35859
     Eigenvalues ---    0.35869   0.35976   0.38516   0.42335   0.43394
     Eigenvalues ---    0.46304   0.46930   0.47704   0.48823   0.52261
     Eigenvalues ---    0.53115   0.53409   0.59105   0.73066   0.73786
     Eigenvalues ---    1.03766
 RFO step:  Lambda=-1.68815636D-02 EMin= 8.56211277D-03
 Linear search not attempted -- first point.
 Iteration  1 RMS(Cart)=  0.08455894 RMS(Int)=  0.00490241
 Iteration  2 RMS(Cart)=  0.00695996 RMS(Int)=  0.00006170
 Iteration  3 RMS(Cart)=  0.00003686 RMS(Int)=  0.00005919
 Iteration  4 RMS(Cart)=  0.00000000 RMS(Int)=  0.00005919
 Variable       Old X    -DE/DX   Delta X   Delta X   Delta X     New X
                                 (Linear)    (Quad)   (Total)
    R1        2.04119   0.00002   0.00000   0.00006   0.00006   2.04126
    R2        1.83274  -0.00004   0.00000  -0.00007  -0.00007   1.83267
    R3        2.62502   0.00068   0.00000   0.00148   0.00147   2.62649
    R4        2.60892   0.00062   0.00000   0.00120   0.00120   2.61011
    R5        2.04303   0.00007   0.00000   0.00019   0.00019   2.04322
    R6        2.04552  -0.00034   0.00000  -0.00090  -0.00090   2.04462
    R7        2.61291  -0.00018   0.00000  -0.00033  -0.00033   2.61258
    R8        2.63602  -0.00034   0.00000  -0.00080  -0.00079   2.63523
    R9        2.04287   0.00006   0.00000   0.00017   0.00017   2.04304
   R10        2.63157   0.00139   0.00000   0.00299   0.00299   2.63456
   R11        2.82169  -0.00027   0.00000  -0.00079  -0.00079   2.82091
   R12        2.64438  -0.00210   0.00000  -0.00456  -0.00456   2.63982
   R13        2.73622  -0.00897   0.00000  -0.02232  -0.02232   2.71390
   R14        2.51656   0.00017   0.00000   0.00029   0.00029   2.51684
   R15        2.27167   0.00031   0.00000   0.00029   0.00029   2.27196
   R16        2.41451   0.01924   0.00000   0.02549   0.02549   2.43999
   R17        2.41886   0.00689   0.00000   0.00921   0.00921   2.42808
   R18        1.84350  -0.00411   0.00000  -0.00762  -0.00762   1.83588
   R19        1.83546  -0.00077   0.00000  -0.00141  -0.00141   1.83406
    A1        2.09744   0.00015   0.00000   0.00044   0.00044   2.09789
    A2        2.09218   0.00012   0.00000   0.00027   0.00027   2.09245
    A3        2.09356  -0.00027   0.00000  -0.00071  -0.00071   2.09285
    A4        2.08173  -0.00204   0.00000  -0.00845  -0.00844   2.07329
    A5        2.08681   0.00079   0.00000   0.00293   0.00292   2.08973
    A6        2.11463   0.00125   0.00000   0.00554   0.00553   2.12017
    A7        2.09767   0.00000   0.00000   0.00056   0.00056   2.09822
    A8        2.05565  -0.00005   0.00000  -0.00045  -0.00045   2.05520
    A9        2.12987   0.00004   0.00000  -0.00011  -0.00011   2.12976
   A10        2.09437   0.00000   0.00000  -0.00010  -0.00010   2.09428
   A11        2.10149   0.00036   0.00000   0.00227   0.00226   2.10376
   A12        2.08732  -0.00036   0.00000  -0.00217  -0.00217   2.08515
   A13        2.06465   0.00573   0.00000   0.03131   0.03131   2.09596
   A14        2.08717  -0.00158   0.00000  -0.00671  -0.00671   2.08046
   A15        2.13133  -0.00415   0.00000  -0.02457  -0.02457   2.10675
   A16        2.10474   0.00352   0.00000   0.01304   0.01305   2.11779
   A17        2.06372   0.00416   0.00000   0.01568   0.01567   2.07939
   A18        2.11473  -0.00769   0.00000  -0.02872  -0.02872   2.08601
   A19        1.96577  -0.00004   0.00000  -0.00015  -0.00015   1.96563
   A20        2.15740   0.00027   0.00000   0.00102   0.00102   2.15842
   A21        2.16001  -0.00023   0.00000  -0.00087  -0.00087   2.15914
   A22        2.06750  -0.00816   0.00000  -0.03056  -0.03056   2.03694
   A23        2.18690  -0.03821   0.00000  -0.14317  -0.14317   2.04373
   A24        2.02878   0.04636   0.00000   0.17373   0.17372   2.20250
   A25        1.89720  -0.00001   0.00000  -0.00008  -0.00008   1.89712
   A26        1.96848   0.01496   0.00000   0.08459   0.08459   2.05307
   A27        2.00367   0.00745   0.00000   0.04214   0.04214   2.04581
    D1        0.00310  -0.00005   0.00000  -0.00152  -0.00153   0.00157
    D2       -3.13833  -0.00005   0.00000  -0.00153  -0.00154  -3.13988
    D3       -3.13933  -0.00005   0.00000  -0.00141  -0.00142  -3.14075
    D4        0.00242  -0.00005   0.00000  -0.00142  -0.00143   0.00099
    D5        0.00669  -0.00010   0.00000  -0.00300  -0.00305   0.00364
    D6        3.13834   0.00004   0.00000   0.00114   0.00116   3.13950
    D7       -3.13406  -0.00010   0.00000  -0.00310  -0.00316  -3.13723
    D8       -0.00242   0.00004   0.00000   0.00104   0.00105  -0.00137
    D9       -0.00435   0.00014   0.00000   0.00357   0.00356  -0.00079
   D10        3.13549   0.00020   0.00000   0.00505   0.00504   3.14054
   D11       -3.14050  -0.00002   0.00000  -0.00074  -0.00075  -3.14125
   D12       -0.00065   0.00003   0.00000   0.00074   0.00073   0.00008
   D13        0.00435  -0.00015   0.00000  -0.00394  -0.00396   0.00040
   D14       -3.13685  -0.00016   0.00000  -0.00437  -0.00439  -3.14124
   D15        3.14041   0.00002   0.00000   0.00043   0.00042   3.14083
   D16       -0.00079   0.00001   0.00000   0.00000  -0.00001  -0.00080
   D17        0.00101  -0.00004   0.00000  -0.00089  -0.00090   0.00011
   D18       -3.14042  -0.00003   0.00000  -0.00090  -0.00091  -3.14134
   D19       -3.13876  -0.00009   0.00000  -0.00244  -0.00245  -3.14120
   D20        0.00299  -0.00009   0.00000  -0.00245  -0.00246   0.00053
   D21        3.13527  -0.00008   0.00000  -0.00272  -0.00272   3.13256
   D22       -0.00648   0.00000   0.00000  -0.00000  -0.00000  -0.00648
   D23       -0.00810  -0.00003   0.00000  -0.00120  -0.00121  -0.00930
   D24        3.13334   0.00005   0.00000   0.00151   0.00151   3.13484
   D25       -0.00097   0.00006   0.00000   0.00164   0.00166   0.00069
   D26        3.14022   0.00007   0.00000   0.00209   0.00210  -3.14086
   D27        3.13028   0.00026   0.00000   0.00628   0.00622   3.13651
   D28       -0.01171   0.00028   0.00000   0.00673   0.00667  -0.00504
   D29       -0.07846   0.00053   0.00000   0.01773   0.01791  -0.06054
   D30        3.06273   0.00073   0.00000   0.02247   0.02228   3.08501
   D31        3.06353   0.00052   0.00000   0.01729   0.01748   3.08101
   D32       -0.07847   0.00072   0.00000   0.02203   0.02185  -0.05662
   D33       -3.14118   0.00007   0.00000   0.00203   0.00203  -3.13915
   D34        0.00057  -0.00001   0.00000  -0.00068  -0.00068  -0.00011
   D35        3.12568  -0.00014   0.00000  -0.00223  -0.00198   3.12370
   D36       -0.01554  -0.00030   0.00000  -0.00647  -0.00672  -0.02226
   D37        3.14159  -0.00059   0.00000  -0.01232  -0.01241   3.12919
   D38       -0.00040  -0.00041   0.00000  -0.00771  -0.00762  -0.00802
         Item               Value     Threshold  Converged?
 Maximum Force            0.046365     0.000450     NO 
 RMS     Force            0.007424     0.000300     NO 
 Maximum Displacement     0.498135     0.001800     NO 
 RMS     Displacement     0.087023     0.001200     NO 
 Predicted change in Energy=-9.005850D-03
 GradGradGradGradGradGradGradGradGradGradGradGradGradGradGradGradGradGrad

                          Input orientation:                          
 ---------------------------------------------------------------------
 Center     Atomic      Atomic             Coordinates (Angstroms)
 Number     Number       Type             X           Y           Z
 ---------------------------------------------------------------------
      1          1           0        3.434601   20.197333   10.282332
      2          1           0        4.891224   15.901946   13.800384
      3          6           0        3.921362   20.210224   11.246543
      4          1           0        3.887108   18.077012   11.473486
      5          1           0        4.091324   22.342229   11.296855
      6          6           0        5.176598   20.225014   13.745080
      7          6           0        4.801510   19.028387   13.163058
      8          6           0        4.175532   19.019787   11.917376
      9          6           0        4.291433   21.413549   11.814701
     10          6           0        4.917766   21.413666   13.063350
     11          6           0        5.090889   17.770122   13.912298
     12          6           0        5.304626   22.661002   13.660819
     13          1           0        5.661818   20.222500   14.711202
     14          1           0        6.096789   23.437798   15.255696
     15          8           0        4.678001   16.681895   13.264900
     16          8           0        5.634709   17.742725   14.984196
     17          8           0        5.816256   22.603301   14.844912
     18          8           0        5.105801   23.726805   12.971285
     19          1           0        5.356830   24.571665   13.377664
 ---------------------------------------------------------------------
                    Distance matrix (angstroms):
                    1          2          3          4          5
     1  H    0.000000
     2  H    5.740104   0.000000
     3  C    1.080188   5.101371   0.000000
     4  H    2.473737   3.339703   2.145523   0.000000
     5  H    2.461934   6.955914   2.139361   4.273754   0.000000
     6  C    3.876331   4.332830   2.796161   3.381839   3.413828
     7  C    3.396095   3.192000   2.417525   2.143804   3.868931
     8  C    2.146849   3.711990   1.389877   1.081227   3.380940
     9  C    2.135766   5.889011   1.381212   3.378223   1.081967
    10  C    3.378358   5.560844   2.396222   3.837080   2.160032
    11  C    4.670257   1.882146   3.798439   2.736982   5.361327
    12  C    4.580484   6.773124   3.707892   5.273210   2.676200
    13  H    4.957421   4.482253   3.877267   4.270307   4.314796
    14  H    6.505552   7.769194   5.587756   6.922848   4.571059
    15  O    4.774941   0.969808   4.134654   2.404376   6.021359
    16  O    5.742221   2.311417   4.795222   3.935853   6.093764
    17  O    5.681382   6.845062   4.718654   5.964513   3.953765
    18  O    4.741366   7.871586   4.091940   5.970659   2.397901
    19  H    5.693051   8.692497   5.062057   6.925785   3.301766
                    6          7          8          9         10
     6  C    0.000000
     7  C    1.382519   0.000000
     8  C    2.407324   1.394147   0.000000
     9  C    2.433618   2.786978   2.398765   0.000000
    10  C    1.394505   2.390192   2.755871   1.396932   0.000000
    11  C    2.462073   1.492759   2.525719   4.279440   3.745143
    12  C    2.440805   3.700917   4.192004   2.447622   1.436132
    13  H    1.081128   2.136068   3.385415   3.418519   2.165158
    14  H    3.667518   5.049732   5.861265   4.381477   3.208361
    15  O    3.610106   2.351946   2.744819   4.963976   4.742127
    16  O    2.811945   2.379851   3.628426   5.032399   4.204696
    17  O    2.697229   4.079014   4.909584   3.594826   2.323032
    18  O    3.586964   4.712166   4.912448   2.711463   2.322594
    19  H    4.365874   5.575157   5.860995   3.681253   3.203830
                   11         12         13         14         15
    11  C    0.000000
    12  C    4.902003   0.000000
    13  H    2.641660   2.679026   0.000000
    14  H    5.910931   1.942824   3.289956   0.000000
    15  O    1.331856   6.024876   3.949123   7.184598   0.000000
    16  O    1.202272   5.103894   2.494904   5.720235   2.235315
    17  O    4.975494   1.291190   2.389548   0.971508   6.233387
    18  O    6.030572   1.284883   3.951787   2.506814   7.063992
    19  H    6.827705   1.932236   4.559230   2.315210   7.919722
                   16         17         18         19
    16  O    0.000000
    17  O    4.865959   0.000000
    18  O    6.335674   2.297278   0.000000
    19  H    7.020868   2.497669   0.970540   0.000000
 Symmetry turned off by external request.
 Stoichiometry    C8H7O4(1+)
 Framework group  C1[X(C8H7O4)]
 Deg. of freedom    51
 Full point group                 C1      NOp   1
 Rotational constants (GHZ):           1.8806946           0.5882320           0.4481927
 Standard basis: def2TZVP (5D, 7F)
   414 basis functions,   668 primitive gaussians,   474 cartesian basis functions
    43 alpha electrons       43 beta electrons
       nuclear repulsion energy       669.0998958751 Hartrees.
 NAtoms=   19 NActive=   19 NUniq=   19 SFac= 1.00D+00 NAtFMM=   60 NAOKFM=F Big=F
 Integral buffers will be    131072 words long.
 Raffenetti 2 integral format.
 Two-electron integral symmetry is turned off.
 ------------------------------------------------------------------------------
 Polarizable Continuum Model (PCM)
 =================================
 Model                : PCM.
 Atomic radii         : UFF (Universal Force Field).
 Polarization charges : Total charges.
 Charge compensation  : None.
 Solution method      : On-the-fly selection.
 Cavity type          : Scaled VdW (van der Waals Surface) (Alpha=1.100).
 Cavity algorithm     : GePol (No added spheres)
                        Default sphere list used, NSphG=   19.
                        Lebedev-Laikov grids with approx.  7.0 points / Ang**2.
                        Smoothing algorithm: York/Karplus (Gamma=1.0000).
                        Polarization charges: spherical gaussians, with
                                              point-specific exponents (IZeta= 3).
                        Self-potential: point-specific (ISelfS= 7).
                        Self-field    : sphere-specific E.n sum rule (ISelfD= 2).
 1st derivatives      : Analytical E(r).r(x)/FMM algorithm (CHGder, D1EAlg=3).
                        Cavity 1st derivative terms included.
 Solvent              : 1,2-EthaneDiol, Eps=  40.245000 Eps(inf)=   2.050051
 ------------------------------------------------------------------------------
 Spheres list:
 ISph  on   Nord     Re0    Alpha      Xe            Ye            Ze
    1   H      1    1.4430  1.100      3.434601     20.197333     10.282332
    2   H      2    1.4430  1.100      4.891224     15.901946     13.800384
    3   C      3    1.9255  1.100      3.921362     20.210224     11.246543
    4   H      4    1.4430  1.100      3.887108     18.077012     11.473486
    5   H      5    1.4430  1.100      4.091324     22.342229     11.296855
    6   C      6    1.9255  1.100      5.176598     20.225014     13.745080
    7   C      7    1.9255  1.100      4.801510     19.028387     13.163058
    8   C      8    1.9255  1.100      4.175532     19.019787     11.917376
    9   C      9    1.9255  1.100      4.291433     21.413549     11.814701
   10   C     10    1.9255  1.100      4.917766     21.413666     13.063350
   11   C     11    1.9255  1.100      5.090889     17.770122     13.912298
   12   C     12    1.9255  1.100      5.304626     22.661002     13.660819
   13   H     13    1.4430  1.100      5.661818     20.222500     14.711202
   14   H     14    1.4430  1.100      6.096789     23.437798     15.255696
   15   O     15    1.7500  1.100      4.678001     16.681895     13.264900
   16   O     16    1.7500  1.100      5.634709     17.742725     14.984196
   17   O     17    1.7500  1.100      5.816256     22.603301     14.844912
   18   O     18    1.7500  1.100      5.105801     23.726805     12.971285
   19   H     19    1.4430  1.100      5.356830     24.571665     13.377664
 ------------------------------------------------------------------------------
 One-electron integrals computed using PRISM.
   1 Symmetry operations used in ECPInt.
 ECPInt:  NShTT=   12880 NPrTT=   40188 LenC2=   11964 LenP2D=   28262.
 LDataN:  DoStor=T MaxTD1= 6 Len=  172
 NBasis=   414 RedAO= T EigKep=  7.77D-06  NBF=   414
 NBsUse=   414 1.00D-06 EigRej= -1.00D+00 NBFU=   414
 Initial guess from the checkpoint file:  "/dev/shm/ipah_d.chk"
 B after Tr=    -0.021579   -0.023581    0.027153
         Rot=    1.000000    0.000221   -0.000485   -0.000043 Ang=   0.06 deg.
 ExpMin= 9.52D-02 ExpMax= 2.70D+04 ExpMxC= 9.22D+02 IAcc=3 IRadAn=         5 AccDes= 0.00D+00
 Harris functional with IExCor= 1009 and IRadAn=       5 diagonalized for initial guess.
 HarFok:  IExCor= 1009 AccDes= 0.00D+00 IRadAn=         5 IDoV= 1 UseB2=F ITyADJ=14
 ICtDFT=  3500011 ScaDFX=  1.000000  1.000000  1.000000  1.000000
 FoFCou: FMM=F IPFlag=           0 FMFlag=      100000 FMFlg1=           0
         NFxFlg=           0 DoJE=T BraDBF=F KetDBF=T FulRan=T
         wScrn=  0.000000 ICntrl=       500 IOpCl=  0 I1Cent=   200000004 NGrid=           0
         NMat0=    1 NMatS0=      1 NMatT0=    0 NMatD0=    1 NMtDS0=    0 NMtDT0=    0
 Symmetry not used in FoFCou.
 Requested convergence on RMS density matrix=1.00D-08 within  32 cycles.
 Requested convergence on MAX density matrix=1.00D-06.
 Requested convergence on             energy=1.00D-06.
 No special actions if energy rises.
 Inv3:  Mode=1 IEnd=    17380947.
 Iteration    1 A*A^-1 deviation from unit magnitude is 3.33D-15 for    368.
 Iteration    1 A*A^-1 deviation from orthogonality  is 2.44D-15 for   2339   1896.
 Iteration    1 A^-1*A deviation from unit magnitude is 2.89D-15 for    368.
 Iteration    1 A^-1*A deviation from orthogonality  is 1.59D-14 for   2353   2339.
 Error on total polarization charges =  0.00853
 SCF Done:  E(RM062X) =  -609.817777260     A.U. after   11 cycles
            NFock= 11  Conv=0.88D-08     -V/T= 2.0045
 QCSCF skips out because SCF is already converged.
   1 Symmetry operations used in ECPInt.
 ECPInt:  NShTT=   12880 NPrTT=   40188 LenC2=   11964 LenP2D=   28262.
 LDataN:  DoStor=T MaxTD1= 7 Len=  274
 D1PCM: PCM CHGder 1st derivatives, ID1Alg=3 FixD1E=F DoIter=F DoCFld=F I1PDM=0.
 Calling FoFJK, ICntrl=      2127 FMM=F ISym2X=0 I1Cent= 0 IOpClX= 0 NMat=1 NMatS=1 NMatT=0.
 -------------------------------------------------------------------
 Center     Atomic                   Forces (Hartrees/Bohr)
 Number     Number              X              Y              Z
 -------------------------------------------------------------------
      1        1          -0.000077694   -0.000330876   -0.000105363
      2        1           0.000016022    0.000051058    0.000009420
      3        6           0.000168383   -0.000606921    0.000459325
      4        1           0.000012875   -0.000012966    0.000041869
      5        1           0.000707871   -0.000342833    0.001143597
      6        6          -0.001070912   -0.000869335   -0.001410204
      7        6           0.000194536   -0.000577766    0.000164324
      8        6          -0.000104376    0.000399129   -0.000290263
      9        6          -0.001513926   -0.001564170   -0.002956930
     10        6          -0.000525099   -0.004308153   -0.000750989
     11        6          -0.000529501    0.000789296   -0.000574475
     12        6           0.002739892    0.002648866    0.007099417
     13        1          -0.000113614    0.000006323   -0.000309592
     14        1          -0.000449876    0.002631102   -0.001372915
     15        8           0.000042513   -0.000630502   -0.000001614
     16        8           0.000262918   -0.000272405    0.000310646
     17        8          -0.004442124    0.006190090   -0.012629605
     18        8           0.003448387   -0.004885109    0.008601797
     19        1           0.001233726    0.001685172    0.002571555
 -------------------------------------------------------------------
 Cartesian Forces:  Max     0.012629605 RMS     0.002823108

 GradGradGradGradGradGradGradGradGradGradGradGradGradGradGradGradGradGrad
 Berny optimization.
 Using GEDIIS/GDIIS optimizer.
 FormGI is forming the generalized inverse of G from B-inverse, IUseBI=4.
 Internal  Forces:  Max     0.015999432 RMS     0.003208155
 Search for a local minimum.
 Step number   2 out of a maximum of   94
 All quantities printed in internal units (Hartrees-Bohrs-Radians)
 Mixed Optimization -- RFO/linear search
 Update second derivatives using D2CorX and points    1    2
 DE= -5.39D-03 DEPred=-9.01D-03 R= 5.99D-01
 TightC=F SS=  1.41D+00  RLast= 2.59D-01 DXNew= 5.0454D-01 7.7624D-01
 Trust test= 5.99D-01 RLast= 2.59D-01 DXMaxT set to 5.05D-01
 ITU=  1  0
 Use linear search instead of GDIIS.
     Eigenvalues ---    0.00856   0.01436   0.01456   0.01817   0.01937
     Eigenvalues ---    0.02141   0.02206   0.02215   0.02224   0.02257
     Eigenvalues ---    0.02275   0.02295   0.02466   0.02595   0.03280
     Eigenvalues ---    0.03310   0.15860   0.16000   0.16000   0.16000
     Eigenvalues ---    0.16000   0.16000   0.16370   0.22000   0.23461
     Eigenvalues ---    0.23492   0.24196   0.25000   0.25000   0.25000
     Eigenvalues ---    0.25000   0.31432   0.33104   0.35712   0.35859
     Eigenvalues ---    0.35871   0.35976   0.40594   0.42609   0.43432
     Eigenvalues ---    0.46327   0.46931   0.47702   0.48826   0.52307
     Eigenvalues ---    0.53220   0.53409   0.59106   0.73186   0.78927
     Eigenvalues ---    1.03766
 RFO step:  Lambda=-3.98756653D-04 EMin= 8.56212237D-03
 Quartic linear search produced a step of -0.25957.
 Iteration  1 RMS(Cart)=  0.02313923 RMS(Int)=  0.00028030
 Iteration  2 RMS(Cart)=  0.00034849 RMS(Int)=  0.00000678
 Iteration  3 RMS(Cart)=  0.00000006 RMS(Int)=  0.00000678
 Variable       Old X    -DE/DX   Delta X   Delta X   Delta X     New X
                                 (Linear)    (Quad)   (Total)
    R1        2.04126   0.00013  -0.00002   0.00029   0.00027   2.04153
    R2        1.83267  -0.00003   0.00002  -0.00007  -0.00005   1.83262
    R3        2.62649  -0.00091  -0.00038  -0.00110  -0.00148   2.62500
    R4        2.61011   0.00048  -0.00031   0.00108   0.00077   2.61088
    R5        2.04322  -0.00001  -0.00005   0.00003  -0.00002   2.04321
    R6        2.04462  -0.00097   0.00023  -0.00226  -0.00203   2.04259
    R7        2.61258   0.00055   0.00009   0.00072   0.00081   2.61339
    R8        2.63523   0.00061   0.00021   0.00085   0.00106   2.63629
    R9        2.04304  -0.00033  -0.00004  -0.00063  -0.00067   2.04236
   R10        2.63456  -0.00048  -0.00078  -0.00006  -0.00083   2.63372
   R11        2.82091  -0.00012   0.00020  -0.00048  -0.00028   2.82063
   R12        2.63982   0.00237   0.00118   0.00270   0.00389   2.64370
   R13        2.71390   0.00964   0.00579   0.01234   0.01813   2.73203
   R14        2.51684   0.00045  -0.00007   0.00065   0.00057   2.51742
   R15        2.27196   0.00040  -0.00008   0.00037   0.00029   2.27226
   R16        2.43999  -0.01517  -0.00662  -0.00809  -0.01470   2.42529
   R17        2.42808  -0.00938  -0.00239  -0.00692  -0.00931   2.41876
   R18        1.83588   0.00155   0.00198   0.00007   0.00205   1.83793
   R19        1.83406   0.00286   0.00037   0.00360   0.00396   1.83802
    A1        2.09789  -0.00044  -0.00012  -0.00163  -0.00175   2.09614
    A2        2.09245   0.00023  -0.00007   0.00141   0.00134   2.09379
    A3        2.09285   0.00022   0.00019   0.00022   0.00041   2.09325
    A4        2.07329   0.00130   0.00219   0.00206   0.00425   2.07754
    A5        2.08973  -0.00064  -0.00076  -0.00135  -0.00211   2.08763
    A6        2.12017  -0.00066  -0.00144  -0.00071  -0.00215   2.11802
    A7        2.09822   0.00014  -0.00014   0.00013  -0.00002   2.09821
    A8        2.05520   0.00019   0.00012   0.00065   0.00077   2.05597
    A9        2.12976  -0.00033   0.00003  -0.00078  -0.00075   2.12901
   A10        2.09428   0.00010   0.00002   0.00067   0.00070   2.09497
   A11        2.10376  -0.00011  -0.00059  -0.00039  -0.00098   2.10277
   A12        2.08515   0.00001   0.00056  -0.00028   0.00028   2.08544
   A13        2.09596   0.00052  -0.00813   0.01132   0.00319   2.09914
   A14        2.08046   0.00098   0.00174   0.00164   0.00338   2.08384
   A15        2.10675  -0.00149   0.00638  -0.01294  -0.00656   2.10019
   A16        2.11779  -0.00254  -0.00339  -0.00365  -0.00704   2.11075
   A17        2.07939   0.00168  -0.00407   0.00911   0.00504   2.08442
   A18        2.08601   0.00086   0.00746  -0.00545   0.00200   2.08801
   A19        1.96563   0.00045   0.00004   0.00129   0.00132   1.96694
   A20        2.15842   0.00007  -0.00026   0.00049   0.00021   2.15863
   A21        2.15914  -0.00052   0.00023  -0.00176  -0.00154   2.15760
   A22        2.03694   0.00875   0.00793   0.01751   0.02544   2.06238
   A23        2.04373   0.00725   0.03716  -0.01769   0.01946   2.06320
   A24        2.20250  -0.01600  -0.04509   0.00020  -0.04490   2.15761
   A25        1.89712  -0.00007   0.00002  -0.00037  -0.00034   1.89677
   A26        2.05307  -0.00471  -0.02196   0.00095  -0.02100   2.03207
   A27        2.04581  -0.00306  -0.01094  -0.00283  -0.01377   2.03204
    D1        0.00157  -0.00001   0.00040  -0.00045  -0.00005   0.00152
    D2       -3.13988  -0.00002   0.00040  -0.00102  -0.00061  -3.14049
    D3       -3.14075   0.00002   0.00037   0.00042   0.00078  -3.13996
    D4        0.00099   0.00000   0.00037  -0.00014   0.00023   0.00122
    D5        0.00364  -0.00004   0.00079  -0.00196  -0.00115   0.00249
    D6        3.13950  -0.00001  -0.00030  -0.00005  -0.00036   3.13914
    D7       -3.13723  -0.00007   0.00082  -0.00282  -0.00199  -3.13921
    D8       -0.00137  -0.00003  -0.00027  -0.00092  -0.00119  -0.00256
    D9       -0.00079  -0.00004  -0.00092  -0.00072  -0.00164  -0.00243
   D10        3.14054  -0.00005  -0.00131  -0.00061  -0.00191   3.13862
   D11       -3.14125   0.00001   0.00019   0.00013   0.00033  -3.14092
   D12        0.00008   0.00000  -0.00019   0.00025   0.00006   0.00014
   D13        0.00040   0.00001   0.00103  -0.00036   0.00067   0.00107
   D14       -3.14124   0.00002   0.00114  -0.00004   0.00111  -3.14013
   D15        3.14083  -0.00004  -0.00011  -0.00123  -0.00134   3.13949
   D16       -0.00080  -0.00003   0.00000  -0.00091  -0.00090  -0.00170
   D17        0.00011   0.00003   0.00023   0.00098   0.00121   0.00132
   D18       -3.14134   0.00002   0.00024   0.00042   0.00066  -3.14068
   D19       -3.14120   0.00004   0.00063   0.00086   0.00150  -3.13971
   D20        0.00053   0.00002   0.00064   0.00030   0.00094   0.00147
   D21        3.13256   0.00007   0.00070   0.00327   0.00398   3.13654
   D22       -0.00648  -0.00008   0.00000  -0.00404  -0.00404  -0.01052
   D23       -0.00930   0.00007   0.00031   0.00338   0.00370  -0.00561
   D24        3.13484  -0.00008  -0.00039  -0.00393  -0.00432   3.13052
   D25        0.00069   0.00003  -0.00043   0.00118   0.00075   0.00144
   D26       -3.14086   0.00001  -0.00055   0.00086   0.00031  -3.14055
   D27        3.13651   0.00007  -0.00162   0.00318   0.00158   3.13809
   D28       -0.00504   0.00005  -0.00173   0.00286   0.00114  -0.00390
   D29       -0.06054   0.00023  -0.00465   0.01276   0.00812  -0.05242
   D30        3.08501   0.00010  -0.00578   0.00870   0.00290   3.08791
   D31        3.08101   0.00024  -0.00454   0.01307   0.00855   3.08956
   D32       -0.05662   0.00011  -0.00567   0.00901   0.00333  -0.05329
   D33       -3.13915  -0.00009  -0.00053  -0.00377  -0.00430   3.13974
   D34       -0.00011   0.00007   0.00018   0.00354   0.00372   0.00361
   D35        3.12370   0.00001   0.00051  -0.00061  -0.00011   3.12359
   D36       -0.02226   0.00022   0.00174   0.00383   0.00559  -0.01667
   D37        3.12919   0.00009   0.00322  -0.00020   0.00299   3.13217
   D38       -0.00802  -0.00012   0.00198  -0.00474  -0.00273  -0.01075
         Item               Value     Threshold  Converged?
 Maximum Force            0.015999     0.000450     NO 
 RMS     Force            0.003208     0.000300     NO 
 Maximum Displacement     0.115850     0.001800     NO 
 RMS     Displacement     0.023080     0.001200     NO 
 Predicted change in Energy=-8.539537D-04
 GradGradGradGradGradGradGradGradGradGradGradGradGradGradGradGradGradGrad

                          Input orientation:                          
 ---------------------------------------------------------------------
 Center     Atomic      Atomic             Coordinates (Angstroms)
 Number     Number       Type             X           Y           Z
 ---------------------------------------------------------------------
      1          1           0        3.434897   20.187650   10.279488
      2          1           0        4.894890   15.892708   13.794520
      3          6           0        3.920105   20.201643   11.244629
      4          1           0        3.883915   18.068677   11.470841
      5          1           0        4.095506   22.334554   11.297381
      6          6           0        5.170256   20.217496   13.743674
      7          6           0        4.796315   19.020305   13.161059
      8          6           0        4.172029   19.011398   11.915023
      9          6           0        4.290874   21.405009   11.813237
     10          6           0        4.915793   21.409428   13.064886
     11          6           0        5.085222   17.761688   13.909596
     12          6           0        5.304768   22.665770   13.665246
     13          1           0        5.654312   20.212950   14.709974
     14          1           0        6.089513   23.499103   15.212486
     15          8           0        4.678100   16.672263   13.259940
     16          8           0        5.631617   17.733115   14.980327
     17          8           0        5.822946   22.641492   14.839146
     18          8           0        5.114785   23.740464   12.996497
     19          1           0        5.378336   24.571249   13.428190
 ---------------------------------------------------------------------
                    Distance matrix (angstroms):
                    1          2          3          4          5
     1  H    0.000000
     2  H    5.738777   0.000000
     3  C    1.080333   5.100889   0.000000
     4  H    2.472041   3.340119   2.145233   0.000000
     5  H    2.466112   6.955005   2.140761   4.274642   0.000000
     6  C    3.874654   4.333844   2.794343   3.381992   3.409013
     7  C    3.394055   3.192625   2.415783   2.143574   3.866352
     8  C    2.145206   3.712313   1.389092   1.081218   3.380932
     9  C    2.137065   5.888614   1.381620   3.378456   1.080894
    10  C    3.382933   5.564800   2.400723   3.842703   2.157036
    11  C    4.667607   1.882168   3.796436   2.735856   5.358573
    12  C    4.593567   6.786684   3.721371   5.288431   2.679329
    13  H    4.955366   4.480989   3.875077   4.268981   4.310090
    14  H    6.507471   7.829112   5.596737   6.953711   4.545359
    15  O    4.773531   0.969783   4.134315   2.404491   6.021013
    16  O    5.740053   2.309979   4.793573   3.934915   6.090728
    17  O    5.702158   6.891924   4.742807   6.001330   3.952513
    18  O    4.777724   7.891290   4.125477   6.000986   2.429508
    19  H    5.736482   8.699713   5.097827   6.953270   3.344968
                    6          7          8          9         10
     6  C    0.000000
     7  C    1.382946   0.000000
     8  C    2.407300   1.393706   0.000000
     9  C    2.431066   2.785481   2.398719   0.000000
    10  C    1.395065   2.394041   2.761505   1.398988   0.000000
    11  C    2.462875   1.492612   2.524682   4.277790   3.748099
    12  C    2.453220   3.715124   4.207233   2.459153   1.445728
    13  H    1.080772   2.134877   3.384175   3.416292   2.164090
    14  H    3.710982   5.093167   5.889779   4.378952   3.218159
    15  O    3.611772   2.353095   2.745262   4.964048   4.747133
    16  O    2.813239   2.379984   3.627739   5.030989   4.206732
    17  O    2.738945   4.121037   4.945059   3.610022   2.342842
    18  O    3.601756   4.733751   4.941906   2.744683   2.340514
    19  H    4.370125   5.587763   5.887002   3.716951   3.216062
                   11         12         13         14         15
    11  C    0.000000
    12  C    4.915071   0.000000
    13  H    2.640672   2.688860   0.000000
    14  H    5.968589   1.924635   3.352718   0.000000
    15  O    1.332160   6.039794   3.948678   7.239494   0.000000
    16  O    1.202426   5.115404   2.494631   5.788798   2.234800
    17  O    5.022030   1.283409   2.437815   0.972593   6.279830
    18  O    6.048172   1.279955   3.958592   2.432890   7.086576
    19  H    6.832846   1.921577   4.551254   2.199769   7.931748
                   16         17         18         19
    16  O    0.000000
    17  O    4.914134   0.000000
    18  O    6.347514   2.259332   0.000000
    19  H    7.016649   2.431550   0.972637   0.000000
 Symmetry turned off by external request.
 Stoichiometry    C8H7O4(1+)
 Framework group  C1[X(C8H7O4)]
 Deg. of freedom    51
 Full point group                 C1      NOp   1
 Rotational constants (GHZ):           1.8835622           0.5830497           0.4453218
 Standard basis: def2TZVP (5D, 7F)
   414 basis functions,   668 primitive gaussians,   474 cartesian basis functions
    43 alpha electrons       43 beta electrons
       nuclear repulsion energy       668.2828635423 Hartrees.
 NAtoms=   19 NActive=   19 NUniq=   19 SFac= 1.00D+00 NAtFMM=   60 NAOKFM=F Big=F
 Integral buffers will be    131072 words long.
 Raffenetti 2 integral format.
 Two-electron integral symmetry is turned off.
 ------------------------------------------------------------------------------
 Polarizable Continuum Model (PCM)
 =================================
 Model                : PCM.
 Atomic radii         : UFF (Universal Force Field).
 Polarization charges : Total charges.
 Charge compensation  : None.
 Solution method      : On-the-fly selection.
 Cavity type          : Scaled VdW (van der Waals Surface) (Alpha=1.100).
 Cavity algorithm     : GePol (No added spheres)
                        Default sphere list used, NSphG=   19.
                        Lebedev-Laikov grids with approx.  7.0 points / Ang**2.
                        Smoothing algorithm: York/Karplus (Gamma=1.0000).
                        Polarization charges: spherical gaussians, with
                                              point-specific exponents (IZeta= 3).
                        Self-potential: point-specific (ISelfS= 7).
                        Self-field    : sphere-specific E.n sum rule (ISelfD= 2).
 1st derivatives      : Analytical E(r).r(x)/FMM algorithm (CHGder, D1EAlg=3).
                        Cavity 1st derivative terms included.
 Solvent              : 1,2-EthaneDiol, Eps=  40.245000 Eps(inf)=   2.050051
 ------------------------------------------------------------------------------
 Spheres list:
 ISph  on   Nord     Re0    Alpha      Xe            Ye            Ze
    1   H      1    1.4430  1.100      3.434897     20.187650     10.279488
    2   H      2    1.4430  1.100      4.894890     15.892708     13.794520
    3   C      3    1.9255  1.100      3.920105     20.201643     11.244629
    4   H      4    1.4430  1.100      3.883915     18.068677     11.470841
    5   H      5    1.4430  1.100      4.095506     22.334554     11.297381
    6   C      6    1.9255  1.100      5.170256     20.217496     13.743674
    7   C      7    1.9255  1.100      4.796315     19.020305     13.161059
    8   C      8    1.9255  1.100      4.172029     19.011398     11.915023
    9   C      9    1.9255  1.100      4.290874     21.405009     11.813237
   10   C     10    1.9255  1.100      4.915793     21.409428     13.064886
   11   C     11    1.9255  1.100      5.085222     17.761688     13.909596
   12   C     12    1.9255  1.100      5.304768     22.665770     13.665246
   13   H     13    1.4430  1.100      5.654312     20.212950     14.709974
   14   H     14    1.4430  1.100      6.089513     23.499103     15.212486
   15   O     15    1.7500  1.100      4.678100     16.672263     13.259940
   16   O     16    1.7500  1.100      5.631617     17.733115     14.980327
   17   O     17    1.7500  1.100      5.822946     22.641492     14.839146
   18   O     18    1.7500  1.100      5.114785     23.740464     12.996497
   19   H     19    1.4430  1.100      5.378336     24.571249     13.428190
 ------------------------------------------------------------------------------
 One-electron integrals computed using PRISM.
   1 Symmetry operations used in ECPInt.
 ECPInt:  NShTT=   12880 NPrTT=   40188 LenC2=   11955 LenP2D=   28235.
 LDataN:  DoStor=T MaxTD1= 6 Len=  172
 NBasis=   414 RedAO= T EigKep=  7.75D-06  NBF=   414
 NBsUse=   414 1.00D-06 EigRej= -1.00D+00 NBFU=   414
 Initial guess from the checkpoint file:  "/dev/shm/ipah_d.chk"
 B after Tr=    -0.017348    0.017818   -0.020569
         Rot=    1.000000   -0.000311   -0.000121    0.000138 Ang=  -0.04 deg.
 ExpMin= 9.52D-02 ExpMax= 2.70D+04 ExpMxC= 9.22D+02 IAcc=3 IRadAn=         5 AccDes= 0.00D+00
 Harris functional with IExCor= 1009 and IRadAn=       5 diagonalized for initial guess.
 HarFok:  IExCor= 1009 AccDes= 0.00D+00 IRadAn=         5 IDoV= 1 UseB2=F ITyADJ=14
 ICtDFT=  3500011 ScaDFX=  1.000000  1.000000  1.000000  1.000000
 FoFCou: FMM=F IPFlag=           0 FMFlag=      100000 FMFlg1=           0
         NFxFlg=           0 DoJE=T BraDBF=F KetDBF=T FulRan=T
         wScrn=  0.000000 ICntrl=       500 IOpCl=  0 I1Cent=   200000004 NGrid=           0
         NMat0=    1 NMatS0=      1 NMatT0=    0 NMatD0=    1 NMtDS0=    0 NMtDT0=    0
 Symmetry not used in FoFCou.
 Requested convergence on RMS density matrix=1.00D-08 within  32 cycles.
 Requested convergence on MAX density matrix=1.00D-06.
 Requested convergence on             energy=1.00D-06.
 No special actions if energy rises.
 Inv3:  Mode=1 IEnd=    17352075.
 Iteration    1 A*A^-1 deviation from unit magnitude is 3.22D-15 for    808.
 Iteration    1 A*A^-1 deviation from orthogonality  is 1.78D-15 for   2276     99.
 Iteration    1 A^-1*A deviation from unit magnitude is 3.22D-15 for    638.
 Iteration    1 A^-1*A deviation from orthogonality  is 1.33D-14 for   2363   2337.
 Error on total polarization charges =  0.00852
 SCF Done:  E(RM062X) =  -609.818677193     A.U. after   11 cycles
            NFock= 11  Conv=0.32D-08     -V/T= 2.0045
 QCSCF skips out because SCF is already converged.
   1 Symmetry operations used in ECPInt.
 ECPInt:  NShTT=   12880 NPrTT=   40188 LenC2=   11955 LenP2D=   28235.
 LDataN:  DoStor=T MaxTD1= 7 Len=  274
 D1PCM: PCM CHGder 1st derivatives, ID1Alg=3 FixD1E=F DoIter=F DoCFld=F I1PDM=0.
 Calling FoFJK, ICntrl=      2127 FMM=F ISym2X=0 I1Cent= 0 IOpClX= 0 NMat=1 NMatS=1 NMatT=0.
 -------------------------------------------------------------------
 Center     Atomic                   Forces (Hartrees/Bohr)
 Number     Number              X              Y              Z
 -------------------------------------------------------------------
      1        1           0.000000169   -0.000005697   -0.000018625
[...]
 8324,-0.00739879,-0.01584447,-0.01153717,0.07426270,0.29494552,0.00192
 353,-0.00069541,-0.00024183,0.00029486,0.00033847,0.00033262,0.0030228
 2,0.01479072,0.01153164,0.04680760,0.11064990,0.10560948,-0.00349176,0
 .00056522,0.00207167,-0.00001934,0.00001261,0.00001973,0.00830738,-0.0
 0812151,0.00328643,-0.00055633,-0.00030693,0.00056424,0.04285859,0.000
 36139,0.00110064,-0.00008637,0.00001145,0.00001827,0.00001623,0.005180
 98,-0.01587041,0.01373241,0.00034363,-0.00066496,0.00067126,-0.0449248
 5,0.29043058,0.00209969,0.00032437,-0.00037146,0.00002032,0.00001693,0
 .00000784,0.00135968,-0.01295344,0.01184517,0.00046920,-0.00063962,0.0
 0022492,0.03886635,-0.12842119,0.12356347,-0.00055085,-0.00001887,0.00
 057842,0.00060722,0.00024028,-0.00001595,-0.00548173,-0.00351190,0.002
 92720,0.00420920,0.00019311,-0.00493907,0.00355342,-0.00086797,-0.0045
 6850,0.27489514,0.00008801,-0.00130512,0.00024790,-0.00037073,-0.00091
 990,-0.00047644,-0.00492274,-0.07815985,0.00042557,0.00001830,0.001079
 43,0.00085045,-0.00107686,0.00139457,-0.00149111,0.03340005,0.68551988
 ,0.00056019,0.00003472,0.00029601,0.00008129,0.00072035,0.00063292,0.0
 0312763,0.00330473,-0.00090411,-0.00491054,0.00120564,-0.00341189,-0.0
 0453576,-0.00110391,-0.00310578,0.24381563,-0.01102000,0.64365368,0.00
 602737,0.00029080,-0.00261646,0.00320250,-0.00233344,-0.00299441,0.005
 69135,0.03820170,-0.01276962,0.00243111,0.00026215,-0.00761960,-0.0007
 5583,-0.00048176,0.00021552,-0.09804973,-0.03899743,-0.05185903,0.2606
 7077,0.00040465,-0.00434635,0.00251146,-0.00196865,-0.00141048,-0.0029
 8954,0.01545891,0.04177943,0.02646369,-0.01219407,0.00445492,-0.024326
 08,-0.00025441,-0.00003193,-0.00064485,-0.07067681,-0.28600677,-0.1102
 5733,0.04544152,0.68084406,-0.00262761,0.00228707,0.00167519,-0.003052
 75,-0.00368150,-0.00059510,-0.00954771,0.07211598,-0.02030341,-0.00581
 837,0.00078955,-0.00560922,0.00020199,-0.00108866,-0.00031155,-0.04717
 275,-0.04639795,-0.15755519,0.22206403,0.01266770,0.59076544,0.0020823
 4,0.01280334,-0.00610031,-0.00027901,-0.00032416,-0.00012696,-0.089163
 97,0.00994729,-0.04307057,-0.06993882,-0.06954552,-0.03822310,0.005901
 20,-0.00187967,-0.00389047,-0.00211887,-0.03656028,-0.01476256,-0.1199
 8878,0.00973655,-0.10460165,0.26423062,-0.00088233,0.00390516,-0.00175
 680,0.00002958,0.00077324,-0.00010705,0.04561029,-0.28269248,0.1232632
 3,-0.06885651,-0.28003034,-0.10441290,-0.00215157,-0.00326470,-0.00271
 250,-0.01200134,0.04146210,-0.02909971,-0.02301435,-0.13414730,-0.0366
 4054,0.04891249,0.74268067,-0.00412908,0.02579393,-0.00784985,-0.00018
 453,-0.00080334,-0.00043449,-0.04822107,0.05146496,-0.17307372,-0.0382
 9546,-0.10585623,-0.10734223,-0.00386535,-0.00216041,0.00054453,-0.018
 34394,-0.07849751,-0.01764192,-0.09982905,0.02924225,-0.27305437,0.212
 08998,0.01263842,0.57915992,0.00068291,-0.01310063,-0.00491586,0.00002
 794,-0.00003632,-0.00008986,-0.09834770,-0.03931739,-0.05511669,0.0060
 2386,0.00057890,-0.00335672,-0.05521802,0.04378831,-0.03166637,0.00417
 790,0.03712923,-0.01431799,-0.01838280,-0.01700676,-0.01922647,0.02044
 064,-0.01494944,0.02935296,0.25642260,0.00060895,0.00292615,0.00138288
 ,0.00001402,0.00019016,-0.00000350,-0.07398902,-0.30071589,-0.11466298
 ,0.00100548,-0.00316548,0.00360242,0.04332792,-0.27637202,0.12083361,0
 .01485766,0.03825922,0.02566710,-0.01403580,-0.02154382,-0.02620723,0.
 00913683,-0.06109137,0.02826674,0.02206933,0.75947692,-0.00690176,-0.0
 2622993,-0.00599348,-0.00009120,-0.00008739,-0.00010585,-0.05008041,-0
 .04484847,-0.16222422,-0.00341406,0.00274165,0.00037123,-0.03158707,0.
 12186196,-0.12387995,-0.01104694,0.07048700,-0.02392876,-0.01970351,-0
 .03226242,-0.04255231,0.02590649,-0.02026278,0.06200876,0.20944531,-0.
 04386429,0.57760860,0.00618137,-0.00154152,-0.00287571,-0.00043309,-0.
 00013173,0.00017848,-0.00003839,-0.03536319,-0.01348379,-0.00039480,0.
 00056952,-0.00002425,0.00205171,-0.00057761,-0.00425494,-0.08526477,0.
 02079001,-0.04355395,0.01784646,0.00649866,0.01544517,-0.01554769,0.01
 174554,-0.01604976,-0.11462469,0.01631763,-0.10027374,0.25735346,-0.00
 178279,-0.00420179,-0.00186665,-0.00006049,0.00020025,-0.00023877,-0.0
 1181022,0.02412475,-0.02593869,0.00050668,0.00059413,0.00083724,0.0118
 6875,0.00502402,0.02371232,0.04483572,-0.25485816,0.11794481,-0.017880
 51,-0.06107909,-0.02573124,0.01309922,-0.01939890,0.02799523,-0.008206
 30,-0.12094528,-0.00846907,0.01771945,0.68209036,-0.00284362,-0.001372
 63,0.00219993,0.00015185,-0.00037564,-0.00012540,-0.01687207,-0.073447
 78,-0.01416162,-0.00000847,0.00100043,-0.00059984,-0.00605126,-0.00127
 660,-0.00778752,-0.04705881,0.06971765,-0.16986311,0.01904046,0.023381
 03,0.04461780,-0.01626632,0.02527661,-0.04489114,-0.09676897,0.0409191
 1,-0.26580848,0.22341244,-0.04189389,0.60041535,0.00014366,0.00039830,
 -0.00012024,0.00652251,0.00529608,0.00646077,0.00558966,-0.00088388,-0
 .00550805,-0.00351187,0.00004305,0.00127781,-0.00095188,0.00004242,0.0
 0037888,0.00542692,-0.00157523,0.00736933,-0.08982292,0.01124396,-0.01
 203802,-0.00115579,0.01208517,-0.00623140,-0.00166370,-0.00107917,-0.0
 0080109,0.00654404,-0.00514051,-0.00356353,0.37510842,-0.00037439,0.00
 117025,-0.00089903,-0.01425628,-0.05061989,-0.02004544,-0.00187767,0.0
 0611404,-0.00342886,-0.00092500,-0.00034059,-0.00236909,0.00009232,-0.
 00022112,0.00003711,0.00225266,-0.03675490,0.01016407,0.01601484,-0.17
 818957,0.04574190,0.00733443,0.00803190,0.01359441,-0.00118430,0.00101
 288,-0.00269020,-0.00200810,0.00295733,-0.00318254,0.01622566,0.616459
 45,-0.00000901,0.00066336,0.00006057,0.00948025,0.01866070,0.01862395,
 -0.00536620,-0.00145784,-0.00220184,0.00142264,-0.00046222,-0.00120311
 ,0.00037215,-0.00004386,-0.00038220,0.00682262,0.00231492,0.01523716,-
 0.01282939,0.03636112,-0.11633385,-0.00556115,0.02334237,-0.01343631,-
 0.00077119,-0.00248081,-0.00240375,-0.00400361,-0.00944114,0.00197061,
 0.31203764,-0.02821272,0.83959062,0.00048503,-0.00049940,-0.00017600,-
 0.00008719,-0.00011617,0.00009423,0.00534460,0.00235571,-0.00652555,-0
 .00116334,-0.00003277,0.00047290,-0.00311149,0.00032656,0.00136638,0.0
 0110885,-0.00653737,0.00922017,0.00930732,0.00483545,-0.00036980,-0.00
 175277,0.00187877,-0.00129674,-0.00877013,-0.01540481,-0.01036730,-0.0
 9391061,-0.02842071,-0.02297618,0.00185266,-0.00258097,0.00211353,0.33
 563768,0.00040115,0.00076167,0.00078811,-0.00002899,-0.00050725,0.0000
 1800,0.00083137,0.01605366,0.00050415,0.00001570,-0.00057535,-0.000051
 07,0.00144565,-0.00027551,0.00248212,-0.00593597,-0.05288512,-0.004715
 23,0.00565711,0.00362961,0.01221541,0.00149621,0.00054840,0.00271736,-
 0.01595140,-0.00490775,-0.03215155,-0.02906525,-0.19210768,-0.04261539
 ,0.00165444,-0.00848054,0.00463980,0.01361684,0.77618324,-0.00030595,-
 0.00102034,0.00014434,0.00007454,-0.00018461,0.00006483,-0.00627807,0.
 00369519,-0.00479238,0.00045421,-0.00018655,-0.00043380,0.00118315,0.0
 0014951,-0.00143524,0.00909607,-0.00624329,0.01613983,-0.00048787,0.01
 059449,0.00664052,-0.00122803,0.00352263,-0.00424485,-0.01022526,-0.03
 092628,-0.01887112,-0.02299688,-0.04156168,-0.12043147,0.00154076,-0.0
 0387190,0.00459508,0.23890034,-0.05005986,0.71028896,-0.00076002,0.000
 06483,0.00035121,0.00015119,-0.00005382,-0.00006706,-0.00063939,-0.000
 24299,0.00056468,-0.00035692,0.00012273,-0.00007829,0.00050000,-0.0001
 1402,-0.00029718,-0.10359400,-0.00108109,-0.12302156,0.00277660,0.0000
 0439,-0.00801744,0.00537157,-0.00152151,-0.00275503,0.00525741,0.00032
 697,-0.00185653,0.00235306,-0.00045922,-0.00388597,-0.00412763,0.00060
 478,0.00095278,-0.00360352,0.00033737,0.00121924,0.09542201,0.00006112
 ,0.00012347,-0.00003039,-0.00001427,-0.00013673,0.00002132,0.00000786,
 -0.00059723,-0.00003317,-0.00058522,0.00026321,-0.00126348,0.00053054,
 0.00028665,0.00112519,-0.00111458,-0.05850681,0.00023682,-0.01193057,0
 .00640135,-0.02398252,-0.00155228,-0.00523961,-0.00137218,0.00011015,-
 0.00491264,0.00181755,0.01154710,0.00515163,0.02312946,-0.00085071,-0.
 00054748,-0.00228219,0.00118655,0.00061195,0.00171137,0.00248217,0.057
 64287,0.00035176,-0.00002498,-0.00022674,-0.00007164,-0.00006157,0.000
 05671,0.00052822,-0.00055978,0.00024416,0.00002333,0.00016315,-0.00030
 382,-0.00038953,-0.00017423,-0.00010402,-0.12307154,0.00018118,-0.2902
 0377,-0.00628437,0.00018810,-0.00591058,-0.00276006,-0.00131014,0.0014
 7975,-0.00181244,0.00225835,0.00218208,-0.00563014,-0.00099030,-0.0068
 8160,0.00116560,0.00055484,-0.00235614,0.00108129,0.00000004,-0.002075
 46,0.13663309,0.00048376,0.30246970,-0.00009696,-0.00001298,0.00006466
 ,0.00000163,-0.00001429,0.00000357,-0.00059245,0.00045773,0.00010811,0
 .00000595,-0.00001036,0.00001288,0.00012356,-0.00001666,-0.00012430,-0
 .00038633,-0.00005652,0.00048829,0.00018974,0.00010557,0.00021467,0.00
 014825,0.00006636,0.00002222,0.00080766,-0.00060171,-0.00095896,0.0047
 9862,0.00227139,-0.00286538,0.00006951,-0.00029693,0.00018318,-0.00995
 556,-0.02009560,-0.01456542,-0.00009311,-0.00020092,0.00022138,0.04658
 016,0.00003278,0.00003152,0.00004508,-0.00000089,-0.00002344,0.0000027
 9,0.00005632,0.00087829,-0.00011150,-0.00000709,-0.00001808,-0.0000094
 5,-0.00005155,-0.00002016,-0.00007205,0.00026169,-0.00087127,0.0005791
 9,0.00013596,0.00028029,0.00024698,0.00008487,-0.00005151,0.00019407,-
 0.00051889,-0.00002499,-0.00086705,0.00150222,0.00377910,0.00334349,0.
 00011641,-0.00041556,0.00029065,-0.00175881,0.00580783,-0.00432065,-0.
 00004397,0.00013101,-0.00012901,0.10405292,0.39331252,0.00005754,-0.00
 004937,-0.00000246,0.00000086,-0.00002635,0.00000819,0.00016179,0.0007
 3938,-0.00045317,0.00001192,-0.00001903,0.00002845,-0.00012028,-0.0000
 0374,-0.00005720,0.00043422,-0.00008923,0.00031904,0.00021217,0.000188
 52,0.00048199,0.00002904,0.00015896,0.00016280,-0.00098332,-0.00104616
 ,-0.00052607,-0.00270229,0.00503422,-0.00018481,0.00012998,-0.00056179
 ,0.00033954,-0.01687918,-0.04173868,-0.03098073,0.00019472,-0.00046133
 ,0.00027956,0.06112592,0.15982474,0.11618896,0.00003083,-0.00004634,0.
 00000906,-0.04458586,0.06967499,-0.07065683,-0.00035769,-0.00020951,0.
 00070881,0.00050990,0.00108543,-0.00019249,0.00007836,0.00003936,0.000
 00308,0.00077716,0.00074818,-0.00102711,0.01182940,0.00152225,-0.00023
 288,-0.00065550,0.00062569,-0.00183560,0.00012991,0.00010426,0.0001156
 3,-0.00020450,0.00046857,0.00054159,-0.09011850,-0.03818939,-0.0434026
 6,-0.00021436,0.00009854,0.00000033,0.00018718,0.00047607,-0.00001678,
 0.00000655,0.00000076,0.00000538,0.12025341,0.00011215,-0.00023138,0.0
 0026624,0.09061005,-0.32056333,0.22690513,-0.00016725,-0.00113703,-0.0
 0030477,0.00041012,-0.00224621,0.00109747,-0.00000285,-0.00000123,0.00
 001643,0.00318871,-0.00069109,0.00675638,-0.01211497,-0.04929020,-0.01
 464367,-0.00097620,-0.00401279,-0.00121682,0.00006583,-0.00106605,0.00
 028353,-0.00060887,-0.00458800,-0.00070899,-0.04680178,-0.25299473,-0.
 06413833,0.00173013,0.00426007,0.00285638,0.00001405,0.00113168,-0.000
 05557,0.00016732,0.00023892,0.00031673,-0.00289082,0.63439905,-0.00001
 431,-0.00005531,0.00000766,-0.07388217,0.18533543,-0.18905743,0.000709
 81,-0.00033089,0.00077922,-0.00010805,0.00252233,0.00000754,0.00000787
 ,0.00008937,0.00007759,-0.00141009,0.00179411,-0.00186860,0.00185151,0
 .01227411,0.01361134,-0.00155342,0.00186946,-0.00322810,0.00011464,0.0
 0038052,0.00024575,0.00070235,0.00155302,0.00069496,-0.04204236,-0.046
 83705,-0.14148117,-0.00024850,-0.00048133,-0.00065314,0.00004032,0.000
 79050,0.00014066,-0.00002071,-0.00003403,-0.00003372,0.16434827,-0.097
 49008,0.37802872,-0.00024107,0.00030610,-0.00009273,-0.00447609,0.0035
 5317,0.00025480,-0.00169034,0.00094952,0.00004571,0.00069908,-0.000148
 51,0.00013443,0.00017879,0.00001253,0.00000796,-0.00103282,-0.00389295
 ,-0.00134195,0.00938247,0.00822169,-0.02554677,0.00254614,0.00253596,0
 .00024583,0.00005585,0.00007821,-0.00022965,-0.00059701,0.00162369,0.0
 0043449,-0.20898396,0.01728067,-0.26014255,-0.00064062,-0.00160634,-0.
 00110513,0.00035912,0.00070728,0.00034731,-0.00005677,-0.00008681,-0.0
 0009963,0.00227522,-0.03162140,-0.04865353,0.20178162,0.00013909,-0.00
 063162,0.00034386,0.00201460,0.00945865,0.00168052,0.00100832,-0.00200
 871,0.00207917,0.00016101,0.00019246,0.00037753,0.00003984,0.00004972,
 0.00010048,0.00071818,-0.00217427,0.00169052,0.01681889,0.00409063,0.0
 3603451,-0.00160259,-0.00628244,-0.00200680,0.00100307,0.00001461,0.00
 204061,0.00002934,0.00025674,-0.00010393,0.01104802,-0.11319174,0.0267
 9874,0.00093013,0.00332409,0.00140606,0.00094089,0.00022806,0.00180078
 ,0.00012820,0.00016080,0.00024386,-0.03347985,0.00057891,-0.06190865,0
 .00084175,0.10842359,-0.00006644,0.00066599,-0.00045075,0.00050330,0.0
 0483223,-0.00461866,0.00007766,0.00194695,-0.00196806,0.00006660,-0.00
 022273,0.00085031,0.00000248,0.00004157,0.00017480,-0.00199708,-0.0074
 4791,-0.00299572,-0.02682940,0.01895607,-0.03435871,0.00082462,0.00623
 700,0.00302070,-0.00037257,0.00018418,-0.00059753,0.00067445,0.0030728
 5,-0.00003998,-0.25926295,0.03904617,-0.59820809,-0.00145480,-0.003695
 90,-0.00239625,0.00030854,0.00134730,0.00055760,-0.00012657,-0.0001979
 3,-0.00023864,-0.04835742,-0.05820644,-0.05757968,0.33505544,-0.009416
 63,0.69728977,-0.00029020,-0.00026655,-0.00008365,-0.00000041,0.000096
 49,-0.00001695,-0.00088856,-0.00333670,0.00004441,0.00017734,0.0000535
 5,-0.00004849,0.00013469,0.00019683,0.00027067,-0.00078207,0.00502941,
 -0.00278979,-0.00153311,-0.00105710,-0.00107065,-0.00030720,0.00020350
 ,-0.00074975,0.00455571,-0.00102337,0.00418198,-0.00357853,-0.01524353
 ,-0.02637610,-0.00049503,0.00185997,-0.00132758,-0.14136630,0.00609808
 ,-0.15010364,0.00056782,-0.00066237,-0.00031032,-0.04136921,-0.1086622
 9,-0.04673733,0.00000284,-0.00103295,0.00016361,0.00040669,-0.00073359
 ,0.00092346,0.17325584,-0.00016568,-0.00064009,-0.00027073,0.00000021,
 0.00009324,-0.00001696,-0.00111027,-0.00260217,-0.00193024,-0.00003651
 ,0.00005060,-0.00006062,-0.00006838,0.00017783,-0.00017805,-0.00153833
 ,-0.00195327,-0.00288305,-0.00006269,0.00058680,-0.00035729,-0.0008327
 9,0.00042151,-0.00171946,0.00127730,-0.00592944,0.00377675,-0.02028840
 ,0.00115766,-0.03980656,-0.00040699,0.00203156,-0.00109985,-0.01595243
 ,-0.13781676,-0.02500071,-0.00136987,-0.00269506,-0.00224524,-0.088752
 10,-0.40330915,-0.12408052,-0.00003228,-0.00110019,0.00010369,0.000367
 11,-0.00087436,0.00086283,0.10323826,0.54722982,-0.00010129,-0.0004876
 3,-0.00036276,0.00000106,0.00018407,-0.00003338,-0.00031274,-0.0065011
 8,-0.00032100,-0.00002864,0.00012950,0.00010295,0.00031882,0.00037503,
 0.00056022,-0.00179382,0.01050783,-0.00489453,-0.00121091,-0.00235976,
 -0.00304884,-0.00062350,0.00036523,-0.00123440,0.00389069,-0.00088197,
 0.01052201,-0.02568296,-0.02947498,-0.03737013,-0.00102460,0.00352712,
 -0.00251352,-0.14702531,0.01947659,-0.36981133,-0.00025081,-0.00077692
 ,0.00040213,-0.04933247,-0.16478391,-0.08840963,0.00000850,-0.00195943
 ,0.00031600,0.00077980,-0.00137873,0.00175846,0.25907394,0.13973555,0.
 54603660,0.00004245,0.00000575,-0.00003060,0.00001400,-0.00000820,-0.0
 0001868,-0.00048464,0.00080357,0.00065505,0.00013403,-0.00005428,-0.00
 004133,0.00048902,-0.00141765,-0.00052202,0.00130962,-0.00194341,-0.00
 225814,-0.00030785,-0.00051955,0.00096392,0.00013622,-0.00034197,0.000
 21849,-0.00095527,-0.00172861,-0.00223291,0.01272335,-0.00480754,0.004
 82454,-0.00032623,0.00008022,-0.00011458,-0.09119714,0.03125263,-0.051
 70871,0.00004949,-0.00016971,0.00007503,-0.00180447,0.00269671,0.00477
 730,0.00003844,-0.00012943,0.00001519,0.00005185,-0.00003301,0.0000721
 6,0.01560519,0.02515023,-0.03754379,0.11925633,-0.00017750,-0.00016358
 ,-0.00032546,-0.00001832,0.00022201,-0.00007537,0.00047048,-0.00343084
 ,0.00130948,-0.00000182,0.00015279,-0.00000988,-0.00075558,-0.00174832
 ,-0.00117039,-0.00401616,0.00921250,-0.00917064,-0.00251106,-0.0065671
 3,-0.00427879,0.00073223,-0.00189536,0.00177261,0.00451511,-0.00164121
 ,0.00941452,0.00067724,-0.07220705,0.01334809,-0.00158059,0.00470552,-
 0.00386172,0.05315316,-0.36308413,0.15006021,-0.00003046,0.00079818,-0
 .00016923,-0.00045178,-0.00220843,-0.00122363,-0.00000511,-0.00305219,
 0.00045842,0.00101445,-0.00188579,0.00230668,0.01772004,-0.00175311,0.
 04092073,0.05142774,0.79393393,-0.00000675,0.00003950,0.00004224,-0.00
 001744,-0.00004348,-0.00000278,0.00071089,0.00196221,0.00026028,-0.000
 05113,-0.00010977,0.00007777,-0.00062970,-0.00250530,0.00006025,-0.001
 99856,-0.00498016,-0.00070379,0.00127958,-0.00021608,0.00185573,0.0000
 5137,-0.00039614,0.00020909,-0.00311669,-0.00329750,-0.00537849,0.0040
 9900,0.00225869,0.01875814,0.00011865,-0.00053588,0.00003896,-0.054766
 62,0.10576256,-0.19391142,0.00004947,-0.00045329,0.00020504,0.00521582
 ,0.00497656,0.00547384,-0.00000474,0.00017147,0.00000482,-0.00007494,0
 .00019863,-0.00016165,-0.03628731,0.05564298,-0.04988002,0.15601978,-0
 .00116286,0.35714367,0.00000419,-0.00000167,0.00000468,0.00001846,-0.0
 0000413,-0.00000729,0.00011400,-0.00000839,-0.00000164,-0.00001298,-0.
 00001006,0.00001226,-0.00007206,-0.00002327,0.00026604,0.00119575,-0.0
 0018857,-0.00028414,-0.00051406,0.00020375,0.00043308,0.00005144,0.000
 02567,-0.00014272,-0.00062008,0.00001524,-0.00010427,0.00474199,0.0014
 1835,-0.00286869,-0.00009987,-0.00005251,0.00014313,0.00203688,0.00977
 846,0.00653633,0.00017915,-0.00002822,-0.00008019,0.00162323,0.0021896
 7,0.00038120,0.00001720,0.00004816,-0.00002041,-0.00001815,0.00002769,
 -0.00004146,-0.00409552,0.00058361,0.00085802,-0.05477439,-0.12016208,
 -0.07059068,0.05022484,0.00002822,0.00004589,0.00005106,-0.00000402,-0
 .00004110,0.00000296,-0.00008780,0.00068371,-0.00026155,-0.00000854,-0
 .00000410,-0.00001749,-0.00016837,-0.00001191,-0.00036536,-0.00026614,
 -0.00184118,-0.00005446,0.00053959,0.00054553,0.00091029,-0.00000996,0
 .00028381,-0.00004722,-0.00026579,0.00043599,-0.00069041,0.00218795,0.
 00404998,0.00466806,0.00016538,-0.00072681,0.00040902,-0.00870985,-0.0
 5054043,-0.01061997,0.00001878,-0.00013450,0.00008985,0.00326035,0.002
 32234,0.00279343,0.00000921,0.00036577,-0.00003364,-0.00013615,0.00027
 068,-0.00031229,-0.00247769,0.00692459,-0.00661717,-0.10026349,-0.3493
 8779,-0.15731214,0.10618831,0.38675952,0.00000076,-0.00000819,0.000004
 11,-0.00000689,0.00000103,0.00000734,0.00000731,-0.00009450,0.00015017
 ,0.00001260,-0.00002175,0.00000884,0.00028408,-0.00007307,0.00037614,-
 0.00025711,0.00011698,0.00079853,0.00037035,0.00022751,-0.00001488,-0.
 00013342,0.00002463,-0.00015415,-0.00006321,-0.00012419,-0.00066842,-0
 .00297988,0.00319803,-0.00051170,0.00011283,-0.00003111,0.00006350,0.0
 0883715,0.02690487,0.01216362,-0.00008419,-0.00000779,0.00004473,0.000
 33312,0.00102203,-0.00239594,-0.00001415,0.00005433,-0.00001242,-0.000
 01889,0.00001945,-0.00003792,0.00124350,-0.00047251,-0.00181882,-0.073
 15070,-0.19814278,-0.13409169,0.06550675,0.16740703,0.12608895\\-0.000
 00456,0.00001792,0.00000183,-0.00001086,-0.00000185,-0.00001934,-0.000
 00727,0.00001051,-0.00000244,-0.00000864,0.00000972,-0.00000696,-0.000
 00076,0.00000661,0.00000840,-0.00001041,-0.00001204,-0.00000889,0.0000
 0042,0.00001339,-0.00000704,-0.00000912,0.00000131,-0.00000385,0.00000
 174,0.00001041,0.00000268,0.00002033,0.00001396,0.00002579,-0.00000585
 ,-0.00000925,-0.00000354,-0.00002662,-0.00002059,-0.00001349,0.0000068
 0,-0.00000800,-0.00000066,0.00001568,-0.00000183,0.00000793,-0.0000086
 0,-0.00000019,-0.00001621,-0.00000334,-0.00000934,-0.00001632,0.000021
 91,-0.00001401,0.00002002,0.00002111,-0.00000337,0.00001392,0.00000803
 ,-0.00000335,0.00001818\\\@


 SUCCESS IS COUNTED SWEETEST
 BY THOSE WHO NE'ER SUCCEED.
 TO COMPREHEND NECTAR
 REQUIRES SOREST NEED.
           EMILY DICKINSON
 Job cpu time:       0 days  3 hours 48 minutes 37.4 seconds.
 Elapsed time:       0 days  0 hours  6 minutes 22.2 seconds.
 File lengths (MBytes):  RWF=    373 Int=      0 D2E=      0 Chk=     24 Scr=      1
 Normal termination of Gaussian 16 at Wed Aug 14 17:04:38 2019.
