 Entering Gaussian System, Link 0=g16
 Initial command:
 /nopt/nrel/apps/gaussian/g16B/g16/l1.exe "/dev/shm/Gau-237512.inp" -scrdir="/dev/shm/"
 Default is to use a total of  36 processors:
                               36 via shared-memory
                                1 via Linda
 Entering Link 1 = /nopt/nrel/apps/gaussian/g16B/g16/l1.exe PID=    237514.
  
 Copyright (c) 1988-2017, Gaussian, Inc.  All Rights Reserved.
  
 This is part of the Gaussian(R) 16 program.  It is based on
 the Gaussian(R) 09 system (copyright 2009, Gaussian, Inc.),
 the Gaussian(R) 03 system (copyright 2003, Gaussian, Inc.),
 the Gaussian(R) 98 system (copyright 1998, Gaussian, Inc.),
 the Gaussian(R) 94 system (copyright 1995, Gaussian, Inc.),
 the Gaussian 92(TM) system (copyright 1992, Gaussian, Inc.),
 the Gaussian 90(TM) system (copyright 1990, Gaussian, Inc.),
 the Gaussian 88(TM) system (copyright 1988, Gaussian, Inc.),
 the Gaussian 86(TM) system (copyright 1986, Carnegie Mellon
 University), and the Gaussian 82(TM) system (copyright 1983,
 Carnegie Mellon University). Gaussian is a federally registered
 trademark of Gaussian, Inc.
  
 This software contains proprietary and confidential information,
 including trade secrets, belonging to Gaussian, Inc.
  
 This software is provided under written license and may be
 used, copied, transmitted, or stored only in accord with that
 written license.
  
 The following legend is applicable only to US Government
 contracts under FAR:
  
                    RESTRICTED RIGHTS LEGEND
  
 Use, reproduction and disclosure by the US Government is
 subject to restrictions as set forth in subparagraphs (a)
 and (c) of the Commercial Computer Software - Restricted
 Rights clause in FAR 52.227-19.
  
 Gaussian, Inc.
 340 Quinnipiac St., Bldg. 40, Wallingford CT 06492
  
  
 ---------------------------------------------------------------
 Warning -- This program may not be used in any manner that
 competes with the business of Gaussian, Inc. or will provide
 assistance to any competitor of Gaussian, Inc.  The licensee
 of this program is prohibited from giving any competitor of
 Gaussian, Inc. access to this program.  By using this program,
 the user acknowledges that Gaussian, Inc. is engaged in the
 business of creating and licensing software in the field of
 computational chemistry and represents and warrants to the
 licensee that it is not a competitor of Gaussian, Inc. and that
 it will not use this program in any manner prohibited above.
 ---------------------------------------------------------------
  

 Cite this work as:
 Gaussian 16, Revision B.01,
 M. J. Frisch, G. W. Trucks, H. B. Schlegel, G. E. Scuseria, 
 M. A. Robb, J. R. Cheeseman, G. Scalmani, V. Barone, 
 G. A. Petersson, H. Nakatsuji, X. Li, M. Caricato, A. V. Marenich, 
 J. Bloino, B. G. Janesko, R. Gomperts, B. Mennucci, H. P. Hratchian, 
 J. V. Ortiz, A. F. Izmaylov, J. L. Sonnenberg, D. Williams-Young, 
 F. Ding, F. Lipparini, F. Egidi, J. Goings, B. Peng, A. Petrone, 
 T. Henderson, D. Ranasinghe, V. G. Zakrzewski, J. Gao, N. Rega, 
 G. Zheng, W. Liang, M. Hada, M. Ehara, K. Toyota, R. Fukuda, 
 J. Hasegawa, M. Ishida, T. Nakajima, Y. Honda, O. Kitao, H. Nakai, 
 T. Vreven, K. Throssell, J. A. Montgomery, Jr., J. E. Peralta, 
 F. Ogliaro, M. J. Bearpark, J. J. Heyd, E. N. Brothers, K. N. Kudin, 
 V. N. Staroverov, T. A. Keith, R. Kobayashi, J. Normand, 
 K. Raghavachari, A. P. Rendell, J. C. Burant, S. S. Iyengar, 
 J. Tomasi, M. Cossi, J. M. Millam, M. Klene, C. Adamo, R. Cammi, 
 J. W. Ochterski, R. L. Martin, K. Morokuma, O. Farkas, 
 J. B. Foresman, and D. J. Fox, Gaussian, Inc., Wallingford CT, 2016.
 
 ******************************************
 Gaussian 16:  ES64L-G16RevB.01 20-Dec-2017
                11-Aug-2019 
 ******************************************
 %RWF=/dev/shm/,5GB,/tmp/scratch/1143546/,-1
 %NoSave
 %Chk=/dev/shm/ipainterh_b.chk
 Default route: CacheSize=180224 MaxDisk=256GB
 ----------------------------------------------------------------------
 # m062x/Def2TZVP nosymm scf=xqc opt freq=NoRaman CPHF=Grid=Fine SCRF=(
 Solvent=1,2-EthaneDiol,Read) guess=mix
 ----------------------------------------------------------------------
 1/4=180224,18=20,19=15,26=3,38=1,40=2/1,3;
 2/4=180224,9=110,12=2,15=1,17=6,18=5,40=1/2;
 3/4=180224,5=44,7=101,11=2,25=1,30=1,70=2203,71=1,72=30,74=-55/1,2,3;
 4/4=180224,13=-1/1;
 5/4=180224,5=2,8=3,13=1,38=5,53=30/2,8;
 6/4=180224,7=2,8=2,9=2,10=2,28=1/1;
 7/4=180224,30=1/1,2,3,16;
 1/4=180224,18=20,19=15,26=3/3(2);
 2/4=180224,9=110,15=1/2;
 99/4=180224/99;
 2/4=180224,9=110,15=1/2;
 3/4=180224,5=44,7=101,11=2,25=1,30=1,70=2205,71=1,72=30,74=-55/1,2,3;
 4/4=180224,5=5,16=3,69=1/1;
 5/4=180224,5=2,8=3,13=1,38=5,53=30/2,8;
 7/4=180224,30=1/1,2,3,16;
 1/4=180224,18=20,19=15,26=3/3(-5);
 2/4=180224,9=110,15=1/2;
 6/4=180224,7=2,8=2,9=2,10=2,19=2,28=1/1;
 99/4=180224,9=1/99;
 ------------------------------------
 based on ipainterh_a; bonded rotated
 ------------------------------------
 Symbolic Z-matrix:
 Charge =  1 Multiplicity = 1
 1                    -1.50241   0.59455  -2.90249 
 6                    -1.23044   0.73715  -1.86668 
 1                    -0.37493  -1.20819  -1.6822 
 1                    -2.02726   2.72591  -1.76431 
 6                    -0.58199   1.09546   0.82248 
 6                    -0.25356  -0.0888    0.16485 
 6                    -0.58278  -0.27385  -1.18156 
 6                    -1.53194   1.93068  -1.22487 
 6                    -1.20626   2.10914   0.11713 
 6                     0.38315  -1.13957   0.94468 
 6                    -1.51703   3.37406   0.84562 
 1                    -0.34017   1.23965   1.86651 
 1                    -2.29914   5.06832   0.60473 
 8                     1.19598  -1.91056   0.31802 
 8                    -2.12519   4.27482   0.07507 
 8                    -1.24797   3.56073   2.00268 
 1                    -0.423     0.01971   3.55665 
 6                    -0.832    -0.83529   3.02412 
 8                    -2.18831  -1.37785   4.8209 
 1                    -1.67424  -0.54318   2.40132 
 8                     0.22823  -1.37592   2.18326 
 6                    -1.207    -1.94467   3.98289 
 1                    -2.48052  -2.04191   5.45291 
 1                    -0.32217  -2.25771   4.54283 
 1                    -1.59266  -2.80002   3.42219 
 1                     1.53268  -2.63029   0.88406 
 

 GradGradGradGradGradGradGradGradGradGradGradGradGradGradGradGradGradGrad
 Berny optimization.
 Initialization pass.
                           ----------------------------
                           !    Initial Parameters    !
                           ! (Angstroms and Degrees)  !
 --------------------------                            --------------------------
 ! Name  Definition              Value          Derivative Info.                !
 --------------------------------------------------------------------------------
 ! R1    R(1,2)                  1.0804         estimate D2E/DX2                !
 ! R2    R(2,7)                  1.3824         estimate D2E/DX2                !
 ! R3    R(2,8)                  1.3883         estimate D2E/DX2                !
 ! R4    R(3,7)                  1.0802         estimate D2E/DX2                !
 ! R5    R(4,8)                  1.0811         estimate D2E/DX2                !
 ! R6    R(5,6)                  1.3938         estimate D2E/DX2                !
 ! R7    R(5,9)                  1.3838         estimate D2E/DX2                !
 ! R8    R(5,12)                 1.0813         estimate D2E/DX2                !
 ! R9    R(6,7)                  1.3984         estimate D2E/DX2                !
 ! R10   R(6,10)                 1.4552         estimate D2E/DX2                !
 ! R11   R(8,9)                  1.3924         estimate D2E/DX2                !
 ! R12   R(9,11)                 1.4924         estimate D2E/DX2                !
 ! R13   R(10,14)                1.2837         estimate D2E/DX2                !
 ! R14   R(10,21)                1.2704         estimate D2E/DX2                !
 ! R15   R(11,15)                1.3323         estimate D2E/DX2                !
 ! R16   R(11,16)                1.2025         estimate D2E/DX2                !
 ! R17   R(13,15)                0.9698         estimate D2E/DX2                !
 ! R18   R(14,26)                0.9756         estimate D2E/DX2                !
 ! R19   R(17,18)                1.0872         estimate D2E/DX2                !
 ! R20   R(18,20)                1.0875         estimate D2E/DX2                !
 ! R21   R(18,21)                1.4572         estimate D2E/DX2                !
 ! R22   R(18,22)                1.5135         estimate D2E/DX2                !
 ! R23   R(19,22)                1.4094         estimate D2E/DX2                !
 ! R24   R(19,23)                0.9622         estimate D2E/DX2                !
 ! R25   R(22,24)                1.0929         estimate D2E/DX2                !
 ! R26   R(22,25)                1.093          estimate D2E/DX2                !
 ! A1    A(1,2,7)              119.7738         estimate D2E/DX2                !
 ! A2    A(1,2,8)              120.1348         estimate D2E/DX2                !
 ! A3    A(7,2,8)              120.0913         estimate D2E/DX2                !
 ! A4    A(6,5,9)              119.2233         estimate D2E/DX2                !
 ! A5    A(6,5,12)             121.0734         estimate D2E/DX2                !
 ! A6    A(9,5,12)             119.6932         estimate D2E/DX2                !
 ! A7    A(5,6,7)              120.7456         estimate D2E/DX2                !
 ! A8    A(5,6,10)             117.63           estimate D2E/DX2                !
 ! A9    A(7,6,10)             121.5628         estimate D2E/DX2                !
 ! A10   A(2,7,3)              119.5408         estimate D2E/DX2                !
 ! A11   A(2,7,6)              119.3878         estimate D2E/DX2                !
 ! A12   A(3,7,6)              121.0245         estimate D2E/DX2                !
 ! A13   A(2,8,4)              120.0812         estimate D2E/DX2                !
 ! A14   A(2,8,9)              120.3278         estimate D2E/DX2                !
 ! A15   A(4,8,9)              119.59           estimate D2E/DX2                !
 ! A16   A(5,9,8)              120.1921         estimate D2E/DX2                !
 ! A17   A(5,9,11)             117.7761         estimate D2E/DX2                !
 ! A18   A(8,9,11)             122.0307         estimate D2E/DX2                !
 ! A19   A(6,10,14)            116.6878         estimate D2E/DX2                !
 ! A20   A(6,10,21)            127.1169         estimate D2E/DX2                !
 ! A21   A(14,10,21)           116.1944         estimate D2E/DX2                !
 ! A22   A(9,11,15)            112.6921         estimate D2E/DX2                !
 ! A23   A(9,11,16)            123.6875         estimate D2E/DX2                !
 ! A24   A(15,11,16)           123.6204         estimate D2E/DX2                !
 ! A25   A(10,14,26)           112.2337         estimate D2E/DX2                !
 ! A26   A(11,15,13)           108.615          estimate D2E/DX2                !
 ! A27   A(17,18,20)           111.1403         estimate D2E/DX2                !
 ! A28   A(17,18,21)           107.5004         estimate D2E/DX2                !
 ! A29   A(17,18,22)           111.0626         estimate D2E/DX2                !
 ! A30   A(20,18,21)           109.4325         estimate D2E/DX2                !
 ! A31   A(20,18,22)           111.5801         estimate D2E/DX2                !
 ! A32   A(21,18,22)           105.8953         estimate D2E/DX2                !
 ! A33   A(22,19,23)           108.9316         estimate D2E/DX2                !
 ! A34   A(10,21,18)           125.6114         estimate D2E/DX2                !
 ! A35   A(18,22,19)           104.7369         estimate D2E/DX2                !
 ! A36   A(18,22,24)           109.5067         estimate D2E/DX2                !
 ! A37   A(18,22,25)           109.6375         estimate D2E/DX2                !
 ! A38   A(19,22,24)           111.9781         estimate D2E/DX2                !
 ! A39   A(19,22,25)           111.9652         estimate D2E/DX2                !
 ! A40   A(24,22,25)           108.925          estimate D2E/DX2                !
 ! D1    D(1,2,7,3)             -1.4506         estimate D2E/DX2                !
 ! D2    D(1,2,7,6)           -178.9852         estimate D2E/DX2                !
 ! D3    D(8,2,7,3)            178.4519         estimate D2E/DX2                !
 ! D4    D(8,2,7,6)              0.9174         estimate D2E/DX2                !
 ! D5    D(1,2,8,4)             -0.8704         estimate D2E/DX2                !
 ! D6    D(1,2,8,9)            178.7646         estimate D2E/DX2                !
 ! D7    D(7,2,8,4)            179.2274         estimate D2E/DX2                !
 ! D8    D(7,2,8,9)             -1.1376         estimate D2E/DX2                !
 ! D9    D(9,5,6,7)             -1.8743         estimate D2E/DX2                !
 ! D10   D(9,5,6,10)          -179.0652         estimate D2E/DX2                !
 ! D11   D(12,5,6,7)           179.2845         estimate D2E/DX2                !
 ! D12   D(12,5,6,10)            2.0936         estimate D2E/DX2                !
 ! D13   D(6,5,9,8)              1.6521         estimate D2E/DX2                !
 ! D14   D(6,5,9,11)          -178.7232         estimate D2E/DX2                !
 ! D15   D(12,5,9,8)          -179.4905         estimate D2E/DX2                !
 ! D16   D(12,5,9,11)            0.1342         estimate D2E/DX2                !
 ! D17   D(5,6,7,2)              0.5917         estimate D2E/DX2                !
 ! D18   D(5,6,7,3)           -176.9053         estimate D2E/DX2                !
 ! D19   D(10,6,7,2)           177.6708         estimate D2E/DX2                !
 ! D20   D(10,6,7,3)             0.1738         estimate D2E/DX2                !
 ! D21   D(5,6,10,14)         -149.4278         estimate D2E/DX2                !
 ! D22   D(5,6,10,21)           30.2136         estimate D2E/DX2                !
 ! D23   D(7,6,10,14)           33.4056         estimate D2E/DX2                !
 ! D24   D(7,6,10,21)         -146.953          estimate D2E/DX2                !
 ! D25   D(2,8,9,5)             -0.1653         estimate D2E/DX2                !
 ! D26   D(2,8,9,11)          -179.7737         estimate D2E/DX2                !
 ! D27   D(4,8,9,5)            179.4714         estimate D2E/DX2                !
 ! D28   D(4,8,9,11)            -0.1369         estimate D2E/DX2                !
 ! D29   D(5,9,11,15)         -179.5179         estimate D2E/DX2                !
 ! D30   D(5,9,11,16)            0.4819         estimate D2E/DX2                !
 ! D31   D(8,9,11,15)            0.0995         estimate D2E/DX2                !
 ! D32   D(8,9,11,16)         -179.9008         estimate D2E/DX2                !
 ! D33   D(6,10,14,26)        -175.6755         estimate D2E/DX2                !
 ! D34   D(21,10,14,26)          4.6432         estimate D2E/DX2                !
 ! D35   D(6,10,21,18)          14.2321         estimate D2E/DX2                !
 ! D36   D(14,10,21,18)       -166.125          estimate D2E/DX2                !
 ! D37   D(9,11,15,13)         179.9554         estimate D2E/DX2                !
 ! D38   D(16,11,15,13)         -0.0444         estimate D2E/DX2                !
 ! D39   D(17,18,21,10)        -98.1763         estimate D2E/DX2                !
 ! D40   D(20,18,21,10)         22.6367         estimate D2E/DX2                !
 ! D41   D(22,18,21,10)        143.0338         estimate D2E/DX2                !
 ! D42   D(17,18,22,19)         61.0382         estimate D2E/DX2                !
 ! D43   D(17,18,22,24)        -59.2087         estimate D2E/DX2                !
 ! D44   D(17,18,22,25)       -178.6631         estimate D2E/DX2                !
 ! D45   D(20,18,22,19)        -63.5679         estimate D2E/DX2                !
 ! D46   D(20,18,22,24)        176.1852         estimate D2E/DX2                !
 ! D47   D(20,18,22,25)         56.7308         estimate D2E/DX2                !
 ! D48   D(21,18,22,19)        177.4438         estimate D2E/DX2                !
 ! D49   D(21,18,22,24)         57.1969         estimate D2E/DX2                !
 ! D50   D(21,18,22,25)        -62.2575         estimate D2E/DX2                !
 ! D51   D(23,19,22,18)        179.2621         estimate D2E/DX2                !
 ! D52   D(23,19,22,24)        -62.1511         estimate D2E/DX2                !
 ! D53   D(23,19,22,25)         60.5254         estimate D2E/DX2                !
 --------------------------------------------------------------------------------
 Trust Radius=3.00D-01 FncErr=1.00D-07 GrdErr=1.00D-06 EigMax=2.50D+02 EigMin=1.00D-04
 Number of steps in this run=    129 maximum allowed number of steps=    156.
 GradGradGradGradGradGradGradGradGradGradGradGradGradGradGradGradGradGrad

                          Input orientation:                          
 ---------------------------------------------------------------------
 Center     Atomic      Atomic             Coordinates (Angstroms)
 Number     Number       Type             X           Y           Z
 ---------------------------------------------------------------------
      1          1           0       -1.502406    0.594548   -2.902490
      2          6           0       -1.230435    0.737148   -1.866679
      3          1           0       -0.374931   -1.208186   -1.682201
      4          1           0       -2.027257    2.725911   -1.764306
      5          6           0       -0.581986    1.095456    0.822477
      6          6           0       -0.253555   -0.088803    0.164854
      7          6           0       -0.582781   -0.273847   -1.181562
      8          6           0       -1.531935    1.930680   -1.224873
      9          6           0       -1.206256    2.109142    0.117127
     10          6           0        0.383148   -1.139569    0.944679
     11          6           0       -1.517025    3.374059    0.845618
     12          1           0       -0.340169    1.239650    1.866510
     13          1           0       -2.299140    5.068322    0.604728
     14          8           0        1.195979   -1.910561    0.318019
     15          8           0       -2.125190    4.274824    0.075068
     16          8           0       -1.247971    3.560731    2.002684
     17          1           0       -0.422999    0.019707    3.556650
     18          6           0       -0.832000   -0.835295    3.024123
     19          8           0       -2.188310   -1.377851    4.820896
     20          1           0       -1.674243   -0.543182    2.401324
     21          8           0        0.228231   -1.375922    2.183258
     22          6           0       -1.206998   -1.944669    3.982891
     23          1           0       -2.480523   -2.041909    5.452914
     24          1           0       -0.322175   -2.257706    4.542831
     25          1           0       -1.592659   -2.800023    3.422194
     26          1           0        1.532678   -2.630294    0.884062
 ---------------------------------------------------------------------
                    Distance matrix (angstroms):
                    1          2          3          4          5
     1  H    0.000000
     2  C    1.080374   0.000000
     3  H    2.451562   2.133130   0.000000
     4  H    2.472578   2.144897   4.267791   0.000000
     5  C    3.869556   2.789342   3.409259   3.382106   0.000000
     6  C    3.381597   2.400753   2.163183   3.845815   1.393845
     7  C    2.135747   1.382372   1.080199   3.380037   2.427172
     8  C    2.144882   1.388285   3.376431   1.081075   2.406584
     9  C    3.391134   2.412144   3.864369   2.143417   1.383760
    10  C    4.622033   3.745591   2.734939   5.300055   2.437571
    11  C    4.666284   3.793677   5.356418   2.737177   2.463101
    12  H    4.950789   3.870631   4.311202   4.270604   1.081329
    13  H    5.740211   5.099907   6.951775   3.342623   4.333555
    14  O    4.891680   4.203659   2.638554   6.018488   3.528707
    15  O    4.774740   4.133536   6.017873   2.406661   3.612268
    16  O    5.737919   4.790083   6.089593   3.936296   2.813184
    17  H    6.573892   5.529844   5.381040   6.181404   2.942485
    18  C    6.133404   5.152793   4.743148   6.086040   2.938971
    19  O    8.000719   7.079152   6.753325   7.760907   4.968387
    20  H    5.427191   4.477953   4.336545   5.306982   2.524068
    21  O    5.722123   4.795286   3.915829   6.123359   2.935283
    22  C    7.344614   6.435073   5.773042   7.451001   4.429584
    23  H    8.815917   7.928576   7.485885   8.661744   5.906644
    24  H    8.059845   7.132735   6.313105   8.217282   5.015200
    25  H    7.178641   6.372987   5.483763   7.591087   4.791111
    26  H    5.826604   5.151799   3.499581   6.955280   4.284484
                    6          7          8          9         10
     6  C    0.000000
     7  C    1.398380   0.000000
     8  C    2.764762   2.400564   0.000000
     9  C    2.396013   2.784592   1.392437   0.000000
    10  C    1.455207   2.490661   4.219115   3.710144   0.000000
    11  C    3.748494   4.276621   2.523985   1.492411   4.898296
    12  H    2.160538   3.411785   3.384446   2.136929   2.652102
    13  H    5.565415   5.888590   3.712255   3.192005   6.771126
    14  O    2.333112   2.844567   4.957536   4.687121   1.283677
    15  O    4.748928   4.964731   2.745325   2.352953   6.030227
    16  O    4.205423   5.028508   3.626958   2.379953   5.086526
    17  H    3.397759   4.749985   5.267307   4.099945   2.969207
    18  C    3.011191   4.250309   5.118056   4.154564   2.427603
    19  O    5.204195   6.310788   6.923043   5.937086   4.657706
    20  H    2.688236   3.755117   4.391987   3.531486   2.590434
    21  O    2.441874   3.632399   5.064303   4.297944   1.270410
    22  C    4.350942   5.463778   6.499594   5.601564   3.522426
    23  H    6.061154   7.123464   7.827779   6.879360   5.416549
    24  H    4.886259   6.064016   7.229973   6.279954   3.833329
    25  H    4.444568   5.347522   6.631627   5.930656   3.577570
    26  H    3.188583   3.780848   5.885740   5.527404   1.883442
                   11         12         13         14         15
    11  C    0.000000
    12  H    2.642520   0.000000
    13  H    1.881558   4.482007   0.000000
    14  O    5.963720   3.831632   7.810433   0.000000
    15  O    1.332287   3.950677   0.969762   7.024826   0.000000
    16  O    1.202513   2.496010   2.309127   6.224631   2.234982
    17  H    4.449524   2.086072   6.141845   4.103140   5.755422
    18  C    4.788925   2.426389   6.546653   3.548506   6.040081
    19  O    6.231701   4.358363   7.703343   5.658011   7.381029
    20  H    4.217786   2.290037   5.925135   3.801060   5.369171
    21  O    5.234264   2.695297   7.099834   2.168293   6.474101
    22  C    6.182837   3.920504   7.860458   4.382551   7.402449
    23  H    7.175528   5.311500   8.607740   6.316729   8.303529
    24  H    6.842063   4.403921   8.549136   4.502703   8.117002
    25  H    6.690572   4.506423   8.387377   4.266562   7.844763
    26  H    6.734569   4.410127   8.604042   0.975595   7.855897
                   16         17         18         19         20
    16  O    0.000000
    17  H    3.954016   0.000000
    18  C    4.532263   1.087150   0.000000
    19  O    5.763345   2.582209   2.315671   0.000000
    20  H    4.145205   1.793665   1.087466   2.610606   0.000000
    21  O    5.155805   2.063513   1.457196   3.577262   2.088161
    22  C    5.850840   2.157570   1.513463   1.409435   2.164218
    23  H    6.694239   3.475555   3.173731   0.962189   3.494062
    24  H    6.415891   2.483813   2.142347   2.081808   3.058387
    25  H    6.526332   3.055661   2.144113   2.081763   2.478339
    26  H    6.878380   4.241451   3.659725   5.559948   4.116122
                   21         22         23         24         25
    21  O    0.000000
    22  C    2.371083   0.000000
    23  H    4.297852   1.947380   0.000000
    24  H    2.578386   1.092903   2.352293   0.000000
    25  H    2.622721   1.093044   2.342405   1.778782   0.000000
    26  H    2.227766   4.192690   6.109532   4.118967   4.029722
                   26
    26  H    0.000000
 Symmetry turned off by external request.
 Stoichiometry    C10H11O5(1+)
 Framework group  C1[X(C10H11O5)]
 Deg. of freedom    72
 Full point group                 C1      NOp   1
 Rotational constants (GHZ):           0.7397598           0.3876066           0.2783806
 Standard basis: def2TZVP (5D, 7F)
   531 basis functions,   853 primitive gaussians,   606 cartesian basis functions
    55 alpha electrons       55 beta electrons
       nuclear repulsion energy       980.4579337926 Hartrees.
 NAtoms=   26 NActive=   26 NUniq=   26 SFac= 1.00D+00 NAtFMM=   60 NAOKFM=F Big=F
 Integral buffers will be    131072 words long.
 Raffenetti 2 integral format.
 Two-electron integral symmetry is turned off.
 Using the following non-standard input for PCM:
 PDENS=7.0
 --- end of non-standard input.
 ------------------------------------------------------------------------------
 Polarizable Continuum Model (PCM)
 =================================
 Model                : PCM.
 Atomic radii         : UFF (Universal Force Field).
 Polarization charges : Total charges.
 Charge compensation  : None.
 Solution method      : On-the-fly selection.
 Cavity type          : Scaled VdW (van der Waals Surface) (Alpha=1.100).
 Cavity algorithm     : GePol (No added spheres)
                        Default sphere list used, NSphG=   26.
                        Lebedev-Laikov grids with approx.  7.0 points / Ang**2.
                        Smoothing algorithm: York/Karplus (Gamma=1.0000).
                        Polarization charges: spherical gaussians, with
                                              point-specific exponents (IZeta= 3).
                        Self-potential: point-specific (ISelfS= 7).
                        Self-field    : sphere-specific E.n sum rule (ISelfD= 2).
 1st derivatives      : Analytical E(r).r(x)/FMM algorithm (CHGder, D1EAlg=3).
                        Cavity 1st derivative terms included.
 Solvent              : 1,2-EthaneDiol, Eps=  40.245000 Eps(inf)=   2.050051
 ------------------------------------------------------------------------------
 One-electron integrals computed using PRISM.
   1 Symmetry operations used in ECPInt.
 ECPInt:  NShTT=   21945 NPrTT=   67524 LenC2=   19690 LenP2D=   44329.
 LDataN:  DoStor=T MaxTD1= 6 Len=  172
 NBasis=   531 RedAO= T EigKep=  7.07D-06  NBF=   531
 NBsUse=   531 1.00D-06 EigRej= -1.00D+00 NBFU=   531
 ExpMin= 9.52D-02 ExpMax= 2.70D+04 ExpMxC= 9.22D+02 IAcc=3 IRadAn=         5 AccDes= 0.00D+00
 Harris functional with IExCor= 1009 and IRadAn=       5 diagonalized for initial guess.
 HarFok:  IExCor= 1009 AccDes= 0.00D+00 IRadAn=         5 IDoV= 1 UseB2=F ITyADJ=14
 ICtDFT=  3500011 ScaDFX=  1.000000  1.000000  1.000000  1.000000
 FoFCou: FMM=F IPFlag=           0 FMFlag=      100000 FMFlg1=           0
         NFxFlg=           0 DoJE=T BraDBF=F KetDBF=T FulRan=T
         wScrn=  0.000000 ICntrl=       500 IOpCl=  0 I1Cent=   200000004 NGrid=           0
         NMat0=    1 NMatS0=      1 NMatT0=    0 NMatD0=    1 NMtDS0=    0 NMtDT0=    0
 Symmetry not used in FoFCou.
 Mixing orbitals, IMix= 1 IMixAn=  0 NRI=1 NE=   55 Coef=  7.07106781D-01  7.07106781D-01
 Requested convergence on RMS density matrix=1.00D-08 within  32 cycles.
 Requested convergence on MAX density matrix=1.00D-06.
 Requested convergence on             energy=1.00D-06.
 No special actions if energy rises.
 Inv3:  Mode=1 IEnd=    29016300.
 Iteration    1 A*A^-1 deviation from unit magnitude is 3.55D-15 for   3013.
 Iteration    1 A*A^-1 deviation from orthogonality  is 1.68D-15 for   2801   2665.
 Iteration    1 A^-1*A deviation from unit magnitude is 3.22D-15 for   1857.
 Iteration    1 A^-1*A deviation from orthogonality  is 2.44D-15 for   2750    368.
 Error on total polarization charges =  0.01023
 SCF Done:  E(RM062X) =  -763.642318823     A.U. after   14 cycles
            NFock= 14  Conv=0.48D-08     -V/T= 2.0045
 QCSCF skips out because SCF is already converged.

 **********************************************************************

            Population analysis using the SCF Density.

 **********************************************************************

 Alpha  occ. eigenvalues --  -19.76358 -19.75369 -19.69238 -19.64695 -19.64063
 Alpha  occ. eigenvalues --  -10.78229 -10.70321 -10.64192 -10.61297 -10.60884
 Alpha  occ. eigenvalues --  -10.60144 -10.59862 -10.59436 -10.59179 -10.57990
 Alpha  occ. eigenvalues --   -1.35274  -1.26275  -1.26232  -1.17139  -1.16679
 Alpha  occ. eigenvalues --   -1.02442  -0.94173  -0.91892  -0.90429  -0.82533
 Alpha  occ. eigenvalues --   -0.78808  -0.77386  -0.73881  -0.72609  -0.69499
 Alpha  occ. eigenvalues --   -0.67058  -0.65339  -0.62082  -0.60973  -0.60257
 Alpha  occ. eigenvalues --   -0.59250  -0.58453  -0.56886  -0.56580  -0.55260
 Alpha  occ. eigenvalues --   -0.54268  -0.53106  -0.52432  -0.50682  -0.49312
 Alpha  occ. eigenvalues --   -0.48564  -0.46770  -0.45902  -0.45423  -0.43141
 Alpha  occ. eigenvalues --   -0.42367  -0.38699  -0.37733  -0.36524  -0.35535
 Alpha virt. eigenvalues --   -0.08543  -0.04578   0.01082   0.04581   0.05422
 Alpha virt. eigenvalues --    0.06678   0.07283   0.07732   0.08929   0.09615
 Alpha virt. eigenvalues --    0.10630   0.11955   0.12567   0.14096   0.14516
 Alpha virt. eigenvalues --    0.14712   0.15698   0.17143   0.17641   0.18438
 Alpha virt. eigenvalues --    0.19539   0.19960   0.20952   0.21337   0.22615
 Alpha virt. eigenvalues --    0.22870   0.23643   0.24172   0.25403   0.26184
 Alpha virt. eigenvalues --    0.26501   0.26958   0.27141   0.27820   0.28321
 Alpha virt. eigenvalues --    0.29673   0.30094   0.30735   0.32258   0.33179
 Alpha virt. eigenvalues --    0.34209   0.34774   0.35914   0.36392   0.36676
 Alpha virt. eigenvalues --    0.37209   0.38363   0.39274   0.39587   0.39992
 Alpha virt. eigenvalues --    0.40215   0.41270   0.41465   0.42293   0.42848
 Alpha virt. eigenvalues --    0.43332   0.44196   0.45375   0.46166   0.46506
 Alpha virt. eigenvalues --    0.47035   0.48030   0.48855   0.49886   0.50252
 Alpha virt. eigenvalues --    0.50524   0.51319   0.51631   0.51826   0.53051
 Alpha virt. eigenvalues --    0.53362   0.53817   0.55504   0.55735   0.56241
 Alpha virt. eigenvalues --    0.57557   0.57883   0.59457   0.60465   0.61330
 Alpha virt. eigenvalues --    0.61446   0.63747   0.64111   0.65074   0.65515
 Alpha virt. eigenvalues --    0.66786   0.67286   0.69067   0.70117   0.71129
 Alpha virt. eigenvalues --    0.71512   0.72328   0.72524   0.74045   0.74802
 Alpha virt. eigenvalues --    0.76728   0.76841   0.78276   0.78975   0.80357
 Alpha virt. eigenvalues --    0.81796   0.82758   0.83858   0.84390   0.85483
 Alpha virt. eigenvalues --    0.86964   0.87806   0.88242   0.89555   0.90306
 Alpha virt. eigenvalues --    0.91042   0.91492   0.92643   0.93388   0.94231
 Alpha virt. eigenvalues --    0.95672   0.96573   0.98752   0.99227   1.00027
 Alpha virt. eigenvalues --    1.01583   1.02820   1.04026   1.06040   1.08107
 Alpha virt. eigenvalues --    1.08625   1.10093   1.11021   1.13631   1.14519
 Alpha virt. eigenvalues --    1.15093   1.16853   1.18536   1.21028   1.22022
 Alpha virt. eigenvalues --    1.23518   1.25406   1.26502   1.28632   1.29453
 Alpha virt. eigenvalues --    1.29845   1.31118   1.33552   1.35315   1.36237
 Alpha virt. eigenvalues --    1.37953   1.38928   1.39164   1.40483   1.42422
 Alpha virt. eigenvalues --    1.44020   1.44887   1.45689   1.47756   1.48515
 Alpha virt. eigenvalues --    1.50227   1.51409   1.52608   1.53862   1.55286
 Alpha virt. eigenvalues --    1.56109   1.57555   1.58386   1.59439   1.60943
 Alpha virt. eigenvalues --    1.61651   1.62565   1.62992   1.63834   1.65157
 Alpha virt. eigenvalues --    1.65827   1.66732   1.67652   1.67750   1.69278
 Alpha virt. eigenvalues --    1.70530   1.72407   1.73536   1.76309   1.77946
 Alpha virt. eigenvalues --    1.78392   1.80298   1.81691   1.82768   1.83101
 Alpha virt. eigenvalues --    1.84972   1.85760   1.86660   1.88087   1.89186
 Alpha virt. eigenvalues --    1.90395   1.91177   1.91591   1.92709   1.95690
 Alpha virt. eigenvalues --    1.96214   1.97391   1.98143   1.99461   2.01167
 Alpha virt. eigenvalues --    2.02760   2.03870   2.04452   2.05243   2.07162
 Alpha virt. eigenvalues --    2.08384   2.09132   2.10101   2.11871   2.14704
 Alpha virt. eigenvalues --    2.15098   2.17690   2.18651   2.20005   2.20494
 Alpha virt. eigenvalues --    2.22840   2.23034   2.24581   2.25156   2.26838
 Alpha virt. eigenvalues --    2.28067   2.28899   2.29722   2.30553   2.31890
 Alpha virt. eigenvalues --    2.33611   2.34778   2.35553   2.37514   2.39360
 Alpha virt. eigenvalues --    2.41639   2.43525   2.44938   2.46694   2.46816
 Alpha virt. eigenvalues --    2.48108   2.49708   2.51440   2.53999   2.54944
 Alpha virt. eigenvalues --    2.55260   2.57621   2.58719   2.60352   2.60585
 Alpha virt. eigenvalues --    2.62033   2.62571   2.63144   2.63937   2.65703
 Alpha virt. eigenvalues --    2.67392   2.67801   2.68724   2.69771   2.70642
 Alpha virt. eigenvalues --    2.71938   2.73143   2.73843   2.74669   2.77414
 Alpha virt. eigenvalues --    2.79487   2.79913   2.80382   2.80921   2.82337
 Alpha virt. eigenvalues --    2.82606   2.84157   2.85470   2.85645   2.86006
 Alpha virt. eigenvalues --    2.86552   2.87460   2.88139   2.89479   2.90728
 Alpha virt. eigenvalues --    2.92046   2.92740   2.94227   2.96121   2.98044
 Alpha virt. eigenvalues --    2.99451   2.99741   3.01616   3.02674   3.03115
 Alpha virt. eigenvalues --    3.03993   3.05762   3.07102   3.09377   3.10278
 Alpha virt. eigenvalues --    3.10486   3.11275   3.12820   3.13569   3.14995
 Alpha virt. eigenvalues --    3.15302   3.15941   3.16858   3.17573   3.18962
 Alpha virt. eigenvalues --    3.19341   3.21010   3.22170   3.24098   3.24276
 Alpha virt. eigenvalues --    3.25247   3.26709   3.27678   3.27844   3.29258
 Alpha virt. eigenvalues --    3.31398   3.32492   3.33186   3.34348   3.35086
 Alpha virt. eigenvalues --    3.36004   3.36854   3.37243   3.38108   3.38692
 Alpha virt. eigenvalues --    3.39432   3.41362   3.41581   3.42595   3.43877
 Alpha virt. eigenvalues --    3.45854   3.46988   3.48556   3.49186   3.49590
 Alpha virt. eigenvalues --    3.50915   3.53780   3.55949   3.56860   3.57655
 Alpha virt. eigenvalues --    3.59486   3.61058   3.61463   3.64995   3.66164
 Alpha virt. eigenvalues --    3.69875   3.71482   3.72075   3.74259   3.77561
 Alpha virt. eigenvalues --    3.80272   3.82099   3.82865   3.84613   3.86263
 Alpha virt. eigenvalues --    3.86577   3.88763   3.90505   3.94764   3.96701
 Alpha virt. eigenvalues --    3.97489   4.00625   4.01270   4.05229   4.05910
 Alpha virt. eigenvalues --    4.06501   4.08932   4.10775   4.14722   4.16331
 Alpha virt. eigenvalues --    4.17757   4.18842   4.20464   4.21948   4.24036
 Alpha virt. eigenvalues --    4.25927   4.27205   4.28338   4.32993   4.37778
 Alpha virt. eigenvalues --    4.38884   4.42736   4.45644   4.48262   4.50267
 Alpha virt. eigenvalues --    4.52604   4.54262   4.56956   4.60020   4.60907
 Alpha virt. eigenvalues --    4.61666   4.67983   4.72712   4.73624   4.78212
 Alpha virt. eigenvalues --    4.79470   4.86032   4.88573   4.94246   5.08030
 Alpha virt. eigenvalues --    5.11232   5.14320   5.14943   5.18238   5.21053
 Alpha virt. eigenvalues --    5.22438   5.23807   5.26121   5.27251   5.29067
 Alpha virt. eigenvalues --    5.32151   5.34686   5.36307   5.38140   5.39709
 Alpha virt. eigenvalues --    5.41062   5.46237   5.47202   5.49623   5.55283
 Alpha virt. eigenvalues --    5.64813   5.68620   5.71923   5.74334   5.79650
 Alpha virt. eigenvalues --    5.82098   5.83200   5.83934   5.87649   5.89820
 Alpha virt. eigenvalues --    5.94197   6.03735   6.13855   6.14217   6.23560
 Alpha virt. eigenvalues --    6.23958   6.27052   6.28405   6.29864   6.35999
 Alpha virt. eigenvalues --    6.38085   6.42748   6.43132   6.50233   6.54531
 Alpha virt. eigenvalues --    6.64418   6.65405   6.67587   6.68354   6.69850
 Alpha virt. eigenvalues --    6.70050   6.71053   6.79715   6.80505   6.82608
 Alpha virt. eigenvalues --    6.85454   6.88762   6.92951   6.93078   7.08409
 Alpha virt. eigenvalues --    7.11071   7.15400   7.15946   7.19819   7.33692
 Alpha virt. eigenvalues --    7.37767  22.26688  22.47455  22.55682  22.71567
 Alpha virt. eigenvalues --   22.79993  22.90573  23.09111  23.26239  23.54867
 Alpha virt. eigenvalues --   23.56384  43.91210  43.96767  43.98557  44.04878
 Alpha virt. eigenvalues --   44.39145
          Condensed to atoms (all electrons):
               1          2          3          4          5          6
     1  H    0.456979   0.423508  -0.003433  -0.003108  -0.000919   0.006835
     2  C    0.423508   4.983478  -0.026527  -0.029922  -0.087428   0.014277
     3  H   -0.003433  -0.026527   0.444522  -0.000101   0.009714  -0.039589
     4  H   -0.003108  -0.029922  -0.000101   0.446475   0.010361  -0.000947
     5  C   -0.000919  -0.087428   0.009714   0.010361   5.425490   0.329418
     6  C    0.006835   0.014277  -0.039589  -0.000947   0.329418   5.153784
     7  C   -0.037150   0.419912   0.415142   0.003564   0.014883   0.364731
     8  C   -0.033780   0.435438   0.004190   0.408828   0.003844  -0.087023
     9  C    0.005764  -0.000855  -0.001633  -0.026611   0.236062  -0.014370
    10  C   -0.000180   0.003367  -0.007118   0.000081  -0.061160   0.353999
    11  C   -0.000120   0.001302   0.000113  -0.011942  -0.066283   0.002933
    12  H    0.000030  -0.001865  -0.000034  -0.000115   0.370265  -0.029840
    13  H   -0.000001   0.000002   0.000000  -0.000163  -0.001064   0.000054
    14  O   -0.000060  -0.002199   0.005294   0.000001   0.006015  -0.109429
    15  O   -0.000079  -0.001120   0.000001   0.007690   0.007074  -0.000712
    16  O    0.000005   0.000066  -0.000000   0.000084   0.028002   0.003362
    17  H    0.000000   0.000198  -0.000014  -0.000002   0.001047  -0.003314
    18  C    0.000006  -0.000351   0.000029   0.000010  -0.000312   0.024650
    19  O    0.000000   0.000000  -0.000000  -0.000000  -0.000310   0.000334
    20  H   -0.000007  -0.000853   0.000122   0.000014  -0.019996   0.018172
    21  O    0.000002  -0.000202  -0.000067  -0.000002   0.011837  -0.085060
    22  C    0.000000   0.000016  -0.000008  -0.000000   0.003120  -0.000463
    23  H   -0.000000  -0.000000   0.000000   0.000000   0.000014  -0.000030
    24  H   -0.000000  -0.000003   0.000001   0.000000  -0.000927   0.000997
    25  H    0.000000   0.000020  -0.000006  -0.000000   0.000635  -0.000110
    26  H   -0.000001   0.000017  -0.000054   0.000000  -0.001092   0.012836
               7          8          9         10         11         12
     1  H   -0.037150  -0.033780   0.005764  -0.000180  -0.000120   0.000030
     2  C    0.419912   0.435438  -0.000855   0.003367   0.001302  -0.001865
     3  H    0.415142   0.004190  -0.001633  -0.007118   0.000113  -0.000034
     4  H    0.003564   0.408828  -0.026611   0.000081  -0.011942  -0.000115
     5  C    0.014883   0.003844   0.236062  -0.061160  -0.066283   0.370265
     6  C    0.364731  -0.087023  -0.014370   0.353999   0.002933  -0.029840
     7  C    5.061708   0.029110  -0.087227  -0.062306   0.002782   0.005512
     8  C    0.029110   4.976693   0.414100  -0.001075  -0.035147   0.006007
     9  C   -0.087227   0.414100   5.478593   0.013722   0.246843  -0.003955
    10  C   -0.062306  -0.001075   0.013722   4.414294  -0.003138   0.002571
    11  C    0.002782  -0.035147   0.246843  -0.003138   4.419785  -0.013054
    12  H    0.005512   0.006007  -0.003955   0.002571  -0.013054   0.426652
    13  H   -0.000010  -0.002273   0.025241   0.000002  -0.027883  -0.000079
    14  O    0.009850   0.000527  -0.001311   0.466110  -0.000010  -0.000223
    15  O    0.000555   0.019048  -0.169114  -0.000020   0.433577   0.000858
    16  O    0.000192   0.002438  -0.156413  -0.000477   0.691016   0.017366
    17  H   -0.001564  -0.000340   0.003474  -0.003115   0.000345  -0.008557
    18  C    0.004951   0.000111  -0.008965  -0.065118   0.000404  -0.003457
    19  O    0.000007  -0.000001   0.000009   0.000137   0.000007  -0.000373
    20  H    0.007668   0.000936  -0.011047  -0.013979   0.000451  -0.001468
    21  O   -0.001451  -0.000002   0.004327   0.478183  -0.000037   0.000768
    22  C   -0.000259  -0.000022   0.000420   0.005465  -0.000014   0.001285
    23  H    0.000000   0.000000  -0.000000  -0.000028  -0.000000   0.000017
    24  H    0.000083   0.000003  -0.000042   0.000383   0.000000   0.000319
    25  H   -0.000304  -0.000017   0.000074   0.000576   0.000002  -0.000404
    26  H   -0.000239  -0.000009   0.000077  -0.019913  -0.000000  -0.000005
              13         14         15         16         17         18
     1  H   -0.000001  -0.000060  -0.000079   0.000005   0.000000   0.000006
     2  C    0.000002  -0.002199  -0.001120   0.000066   0.000198  -0.000351
     3  H    0.000000   0.005294   0.000001  -0.000000  -0.000014   0.000029
     4  H   -0.000163   0.000001   0.007690   0.000084  -0.000002   0.000010
     5  C   -0.001064   0.006015   0.007074   0.028002   0.001047  -0.000312
     6  C    0.000054  -0.109429  -0.000712   0.003362  -0.003314   0.024650
     7  C   -0.000010   0.009850   0.000555   0.000192  -0.001564   0.004951
     8  C   -0.002273   0.000527   0.019048   0.002438  -0.000340   0.000111
     9  C    0.025241  -0.001311  -0.169114  -0.156413   0.003474  -0.008965
    10  C    0.000002   0.466110  -0.000020  -0.000477  -0.003115  -0.065118
    11  C   -0.027883  -0.000010   0.433577   0.691016   0.000345   0.000404
    12  H   -0.000079  -0.000223   0.000858   0.017366  -0.008557  -0.003457
    13  H    0.330119   0.000000   0.299123   0.003686  -0.000000   0.000001
    14  O    0.000000   7.707915  -0.000000  -0.000000  -0.000156   0.002361
    15  O    0.299123  -0.000000   7.900529  -0.084292   0.000003  -0.000008
    16  O    0.003686  -0.000000  -0.084292   7.859119   0.000501  -0.000517
    17  H   -0.000000  -0.000156   0.000003   0.000501   0.499793   0.395988
    18  C    0.000001   0.002361  -0.000008  -0.000517   0.395988   5.192635
    19  O    0.000000   0.000001   0.000000  -0.000001   0.011094  -0.086104
    20  H   -0.000001   0.000314   0.000002   0.000106  -0.038657   0.400349
    21  O    0.000000  -0.069981   0.000000   0.000013  -0.019435   0.144614
    22  C    0.000000   0.000160  -0.000000  -0.000014  -0.019525   0.226844
    23  H   -0.000000  -0.000000  -0.000000   0.000000  -0.000452   0.014853
    24  H   -0.000000   0.000016   0.000000   0.000000  -0.014906  -0.057173
    25  H    0.000000  -0.000188   0.000000   0.000000   0.009268  -0.043714
    26  H   -0.000000   0.297229   0.000000  -0.000000  -0.000015  -0.000624
              19         20         21         22         23         24
     1  H    0.000000  -0.000007   0.000002   0.000000  -0.000000  -0.000000
     2  C    0.000000  -0.000853  -0.000202   0.000016  -0.000000  -0.000003
     3  H   -0.000000   0.000122  -0.000067  -0.000008   0.000000   0.000001
     4  H   -0.000000   0.000014  -0.000002  -0.000000   0.000000   0.000000
     5  C   -0.000310  -0.019996   0.011837   0.003120   0.000014  -0.000927
     6  C    0.000334   0.018172  -0.085060  -0.000463  -0.000030   0.000997
     7  C    0.000007   0.007668  -0.001451  -0.000259   0.000000   0.000083
     8  C   -0.000001   0.000936  -0.000002  -0.000022   0.000000   0.000003
     9  C    0.000009  -0.011047   0.004327   0.000420  -0.000000  -0.000042
    10  C    0.000137  -0.013979   0.478183   0.005465  -0.000028   0.000383
    11  C    0.000007   0.000451  -0.000037  -0.000014  -0.000000   0.000000
    12  H   -0.000373  -0.001468   0.000768   0.001285   0.000017   0.000319
    13  H    0.000000  -0.000001   0.000000   0.000000  -0.000000  -0.000000
    14  O    0.000001   0.000314  -0.069981   0.000160  -0.000000   0.000016
    15  O    0.000000   0.000002   0.000000  -0.000000  -0.000000   0.000000
    16  O   -0.000001   0.000106   0.000013  -0.000014   0.000000   0.000000
    17  H    0.011094  -0.038657  -0.019435  -0.019525  -0.000452  -0.014906
    18  C   -0.086104   0.400349   0.144614   0.226844   0.014853  -0.057173
    19  O    8.067905   0.011127   0.002823   0.271402   0.308519  -0.041557
    20  H    0.011127   0.486583  -0.029203  -0.017731  -0.000436   0.009214
    21  O    0.002823  -0.029203   7.738865  -0.023177  -0.000299   0.003204
    22  C    0.271402  -0.017731  -0.023177   4.811842  -0.035425   0.449464
    23  H    0.308519  -0.000436  -0.000299  -0.035425   0.363360  -0.004085
    24  H   -0.041557   0.009214   0.003204   0.449464  -0.004085   0.552755
    25  H   -0.040380  -0.014229   0.004377   0.434787  -0.003967  -0.049979
    26  H    0.000001   0.000157   0.003659   0.000082   0.000000   0.000078
              25         26
     1  H    0.000000  -0.000001
     2  C    0.000020   0.000017
     3  H   -0.000006  -0.000054
     4  H   -0.000000   0.000000
     5  C    0.000635  -0.001092
     6  C   -0.000110   0.012836
     7  C   -0.000304  -0.000239
     8  C   -0.000017  -0.000009
     9  C    0.000074   0.000077
    10  C    0.000576  -0.019913
    11  C    0.000002  -0.000000
    12  H   -0.000404  -0.000005
    13  H    0.000000  -0.000000
    14  O   -0.000188   0.297229
    15  O    0.000000   0.000000
    16  O    0.000000  -0.000000
    17  H    0.009268  -0.000015
    18  C   -0.043714  -0.000624
    19  O   -0.040380   0.000001
    20  H   -0.014229   0.000157
    21  O    0.004377   0.003659
    22  C    0.434787   0.000082
    23  H   -0.003967   0.000000
    24  H   -0.049979   0.000078
    25  H    0.553532  -0.000043
    26  H   -0.000043   0.300912
 Mulliken charges:
               1
     1  H    0.185708
     2  C   -0.130278
     3  H    0.199456
     4  H    0.195807
     5  C   -0.218290
     6  C    0.084503
     7  C   -0.150143
     8  C   -0.141585
     9  C    0.052838
    10  C    0.498735
    11  C    0.358066
    12  H    0.231780
    13  H    0.373246
    14  O   -0.312236
    15  O   -0.413113
    16  O   -0.364242
    17  H    0.188340
    18  C   -0.141463
    19  O   -0.504641
    20  H    0.212394
    21  O   -0.163758
    22  C   -0.108248
    23  H    0.357961
    24  H    0.152154
    25  H    0.150067
    26  H    0.406945
 Sum of Mulliken charges =   1.00000
 Mulliken charges with hydrogens summed into heavy atoms:
               1
     2  C    0.055430
     5  C    0.013490
     6  C    0.084503
     7  C    0.049312
     8  C    0.054221
     9  C    0.052838
    10  C    0.498735
    11  C    0.358066
    14  O    0.094709
    15  O   -0.039867
    16  O   -0.364242
    18  C    0.259271
    19  O   -0.146680
    21  O   -0.163758
    22  C    0.193972
 Electronic spatial extent (au):  <R**2>=           4703.4530
 Charge=              1.0000 electrons
 Dipole moment (field-independent basis, Debye):
    X=             -1.5786    Y=             -5.7793    Z=              3.9088  Tot=              7.1534
 Quadrupole moment (field-independent basis, Debye-Ang):
   XX=            -75.9541   YY=            -51.1942   ZZ=            -58.5048
   XY=             -8.3769   XZ=              2.2390   YZ=            -24.9226
 Traceless Quadrupole moment (field-independent basis, Debye-Ang):
   XX=            -14.0697   YY=             10.6902   ZZ=              3.3796
   XY=             -8.3769   XZ=              2.2390   YZ=            -24.9226
 Octapole moment (field-independent basis, Debye-Ang**2):
  XXX=            217.8687  YYY=            -96.2743  ZZZ=           -185.1189  XYY=             27.6170
  XXY=            -41.2302  XXZ=            -78.0313  XZZ=             42.5488  YZZ=           -142.5593
  YYZ=            -49.1065  XYZ=             25.8830
 Hexadecapole moment (field-independent basis, Debye-Ang**3):
 XXXX=           -868.9127 YYYY=          -1629.3674 ZZZZ=          -1877.8481 XXXY=            321.5634
 XXXZ=            276.2999 YYYX=             86.8236 YYYZ=            126.6708 ZZZX=            152.2923
 ZZZY=           -223.7361 XXYY=           -346.8232 XXZZ=           -485.0411 YYZZ=           -654.5374
 XXYZ=             19.0108 YYXZ=             18.2714 ZZXY=            289.1595
 N-N= 9.804579337926D+02 E-N=-3.730157741824D+03  KE= 7.602129472933D+02
   1 Symmetry operations used in ECPInt.
 ECPInt:  NShTT=   21945 NPrTT=   67524 LenC2=   19690 LenP2D=   44329.
 LDataN:  DoStor=T MaxTD1= 7 Len=  274
 D1PCM: PCM CHGder 1st derivatives, ID1Alg=3 FixD1E=F DoIter=F DoCFld=F I1PDM=0.
 Calling FoFJK, ICntrl=      2127 FMM=F ISym2X=0 I1Cent= 0 IOpClX= 0 NMat=1 NMatS=1 NMatT=0.
 -------------------------------------------------------------------
 Center     Atomic                   Forces (Hartrees/Bohr)
 Number     Number              X              Y              Z
 -------------------------------------------------------------------
      1        1           0.000075371    0.000003273   -0.000029687
      2        6           0.000970828    0.000191187    0.000812777
      3        1           0.002463362   -0.001280898    0.001232704
      4        1          -0.000232220   -0.000013835    0.000209243
      5        6           0.000583383    0.001184291   -0.003063997
      6        6          -0.006955705    0.002588011    0.009845631
      7        6           0.001257990   -0.001961009   -0.000577348
      8        6           0.000044637    0.000196549    0.000334808
      9        6           0.000275929    0.001514985    0.000109870
     10        6           0.002541922   -0.003613975   -0.007909556
     11        6          -0.000090329    0.000170156   -0.000420264
     12        1           0.000573358    0.003958388   -0.003206019
     13        1          -0.000010136    0.000019649   -0.000000997
     14        8          -0.000246979   -0.000316331   -0.000398752
     15        8           0.000087378   -0.000134923    0.000117273
     16        8           0.000080354   -0.000300884    0.000269478
     17        1          -0.000221834   -0.000448117    0.000617836
     18        6          -0.000909463   -0.002140154    0.001654089
     19        8           0.000017484    0.000015500   -0.000106954
     20        1          -0.000159053   -0.000536607    0.000741810
     21        8          -0.000725951    0.001145905   -0.000266549
     22        6           0.000292604   -0.000089676    0.000146094
     23        1          -0.000026498    0.000029332    0.000029026
     24        1          -0.000004956   -0.000038773    0.000031889
     25        1           0.000050158    0.000009253    0.000007021
     26        1           0.000268367   -0.000151298   -0.000179427
 -------------------------------------------------------------------
 Cartesian Forces:  Max     0.009845631 RMS     0.001972021

 GradGradGradGradGradGradGradGradGradGradGradGradGradGradGradGradGradGrad
 Berny optimization.
 FormGI is forming the generalized inverse of G from B-inverse, IUseBI=4.
 Internal  Forces:  Max     0.017857194 RMS     0.002925321
 Search for a local minimum.
 Step number   1 out of a maximum of  129
 All quantities printed in internal units (Hartrees-Bohrs-Radians)
 Mixed Optimization -- RFO/linear search
 Second derivative matrix not updated -- first step.
 ITU=  0
     Eigenvalues ---    0.00588   0.00866   0.00935   0.01358   0.01439
     Eigenvalues ---    0.01567   0.01817   0.01918   0.02153   0.02209
     Eigenvalues ---    0.02219   0.02226   0.02253   0.02270   0.02286
     Eigenvalues ---    0.02286   0.02587   0.03231   0.03406   0.05637
     Eigenvalues ---    0.05784   0.05850   0.06171   0.10709   0.11012
     Eigenvalues ---    0.13383   0.13390   0.15985   0.15997   0.16000
     Eigenvalues ---    0.16000   0.16000   0.16000   0.16000   0.21959
     Eigenvalues ---    0.22000   0.22045   0.23474   0.23490   0.24969
     Eigenvalues ---    0.24999   0.25000   0.25000   0.25000   0.25000
     Eigenvalues ---    0.25000   0.31005   0.33187   0.34463   0.34479
     Eigenvalues ---    0.35107   0.35144   0.35834   0.35865   0.35949
     Eigenvalues ---    0.35970   0.37318   0.37571   0.42437   0.43373
     Eigenvalues ---    0.44092   0.46383   0.47051   0.47675   0.48554
     Eigenvalues ---    0.52250   0.53426   0.55005   0.58969   0.71938
     Eigenvalues ---    0.76129   1.03570
 RFO step:  Lambda=-6.48142960D-03 EMin= 5.87856613D-03
 Linear search not attempted -- first point.
 Iteration  1 RMS(Cart)=  0.23866661 RMS(Int)=  0.00668395
 Iteration  2 RMS(Cart)=  0.01572962 RMS(Int)=  0.00078430
 Iteration  3 RMS(Cart)=  0.00015582 RMS(Int)=  0.00078372
 Iteration  4 RMS(Cart)=  0.00000028 RMS(Int)=  0.00078372
 Variable       Old X    -DE/DX   Delta X   Delta X   Delta X     New X
                                 (Linear)    (Quad)   (Total)
    R1        2.04161   0.00001   0.00000   0.00002   0.00002   2.04163
    R2        2.61230  -0.00022   0.00000  -0.00061  -0.00061   2.61169
    R3        2.62348   0.00020   0.00000   0.00038   0.00015   2.62363
    R4        2.04128   0.00101   0.00000   0.00275   0.00275   2.04403
    R5        2.04294  -0.00001   0.00000  -0.00002  -0.00002   2.04292
    R6        2.63399   0.00247   0.00000   0.00524   0.00548   2.63946
    R7        2.61493   0.00015   0.00000   0.00048   0.00050   2.61543
    R8        2.04342  -0.00244   0.00000  -0.00668  -0.00668   2.03673
    R9        2.64256  -0.00180   0.00000  -0.00401  -0.00382   2.63874
   R10        2.74994   0.00179   0.00000   0.00468   0.00468   2.75463
   R11        2.63132  -0.00082   0.00000  -0.00159  -0.00181   2.62952
   R12        2.82025  -0.00022   0.00000  -0.00065  -0.00065   2.81960
   R13        2.42580   0.00058   0.00000   0.00080   0.00080   2.42660
   R14        2.40073   0.00335   0.00000   0.00436   0.00436   2.40509
   R15        2.51766  -0.00019   0.00000  -0.00033  -0.00033   2.51733
   R16        2.27242   0.00024   0.00000   0.00023   0.00023   2.27265
   R17        1.83258   0.00003   0.00000   0.00005   0.00005   1.83263
   R18        1.84361   0.00010   0.00000   0.00018   0.00018   1.84379
   R19        2.05442  -0.00014   0.00000  -0.00039  -0.00039   2.05403
   R20        2.05501  -0.00044   0.00000  -0.00124  -0.00124   2.05377
   R21        2.75370   0.00130   0.00000   0.00342   0.00342   2.75712
   R22        2.86003   0.00005   0.00000   0.00016   0.00016   2.86019
   R23        2.66345  -0.00003   0.00000  -0.00006  -0.00006   2.66339
   R24        1.81827   0.00001   0.00000   0.00002   0.00002   1.81829
   R25        2.06529   0.00002   0.00000   0.00006   0.00006   2.06534
   R26        2.06555  -0.00002   0.00000  -0.00006  -0.00006   2.06550
    A1        2.09045  -0.00021   0.00000  -0.00060  -0.00059   2.08986
    A2        2.09675  -0.00017   0.00000  -0.00039  -0.00037   2.09638
    A3        2.09599   0.00038   0.00000   0.00100   0.00093   2.09692
    A4        2.08084   0.00045   0.00000   0.00205   0.00221   2.08305
    A5        2.11313   0.00334   0.00000   0.02010   0.01965   2.13278
    A6        2.08904  -0.00381   0.00000  -0.02290  -0.02344   2.06560
    A7        2.10741  -0.00123   0.00000  -0.00368  -0.00500   2.10241
    A8        2.05303   0.01786   0.00000   0.07138   0.06889   2.12193
    A9        2.12167  -0.01650   0.00000  -0.06272  -0.06468   2.05699
   A10        2.08638   0.00216   0.00000   0.01429   0.01406   2.10045
   A11        2.08371   0.00084   0.00000   0.00291   0.00315   2.08686
   A12        2.11228  -0.00297   0.00000  -0.01649  -0.01667   2.09561
   A13        2.09581   0.00033   0.00000   0.00178   0.00184   2.09765
   A14        2.10012  -0.00031   0.00000  -0.00132  -0.00167   2.09844
   A15        2.08724  -0.00002   0.00000  -0.00033  -0.00027   2.08696
   A16        2.09775  -0.00009   0.00000   0.00008   0.00008   2.09783
   A17        2.05558  -0.00055   0.00000  -0.00236  -0.00237   2.05321
   A18        2.12984   0.00065   0.00000   0.00233   0.00231   2.13215
   A19        2.03659  -0.00526   0.00000  -0.02048  -0.02057   2.01601
   A20        2.21861   0.00926   0.00000   0.03615   0.03605   2.25466
   A21        2.02798  -0.00399   0.00000  -0.01553  -0.01562   2.01235
   A22        1.96685   0.00030   0.00000   0.00118   0.00118   1.96803
   A23        2.15875  -0.00052   0.00000  -0.00204  -0.00204   2.15672
   A24        2.15758   0.00022   0.00000   0.00086   0.00086   2.15844
   A25        1.95885   0.00063   0.00000   0.00376   0.00376   1.96260
   A26        1.89569   0.00000   0.00000   0.00003   0.00003   1.89572
   A27        1.93976   0.00039   0.00000   0.00376   0.00373   1.94349
   A28        1.87624   0.00071   0.00000   0.00460   0.00458   1.88081
   A29        1.93841  -0.00056   0.00000  -0.00590  -0.00591   1.93250
   A30        1.90996   0.00076   0.00000   0.00589   0.00588   1.91583
   A31        1.94744  -0.00033   0.00000  -0.00368  -0.00368   1.94376
   A32        1.84822  -0.00096   0.00000  -0.00451  -0.00451   1.84371
   A33        1.90121   0.00008   0.00000   0.00048   0.00048   1.90170
   A34        2.19233   0.01184   0.00000   0.04616   0.04616   2.23850
   A35        1.82800  -0.00020   0.00000  -0.00090  -0.00090   1.82710
   A36        1.91125   0.00011   0.00000   0.00071   0.00071   1.91196
   A37        1.91354   0.00002   0.00000  -0.00013  -0.00013   1.91341
   A38        1.95439   0.00006   0.00000   0.00044   0.00044   1.95482
   A39        1.95416   0.00006   0.00000   0.00003   0.00003   1.95419
   A40        1.90110  -0.00004   0.00000  -0.00015  -0.00015   1.90095
    D1       -0.02532   0.00076   0.00000   0.02563   0.02509  -0.00023
    D2       -3.12388   0.00018   0.00000   0.00743   0.00740  -3.11648
    D3        3.11457   0.00107   0.00000   0.03500   0.03375  -3.13486
    D4        0.01601   0.00049   0.00000   0.01680   0.01606   0.03207
    D5       -0.01519   0.00024   0.00000   0.00760   0.00734  -0.00786
    D6        3.12003   0.00083   0.00000   0.03105   0.03076  -3.13240
    D7        3.12811  -0.00007   0.00000  -0.00180  -0.00135   3.12676
    D8       -0.01986   0.00052   0.00000   0.02165   0.02207   0.00222
    D9       -0.03271   0.00122   0.00000   0.05001   0.05018   0.01746
   D10       -3.12528  -0.00123   0.00000  -0.06188  -0.06590   3.09201
   D11        3.12911   0.00246   0.00000   0.09317   0.09462  -3.05946
   D12        0.03654   0.00002   0.00000  -0.01872  -0.02146   0.01508
   D13        0.02883  -0.00018   0.00000  -0.01107  -0.01175   0.01708
   D14       -3.11931  -0.00006   0.00000  -0.00340  -0.00366  -3.12297
   D15       -3.13270  -0.00132   0.00000  -0.05312  -0.05399   3.09650
   D16        0.00234  -0.00120   0.00000  -0.04545  -0.04590  -0.04355
   D17        0.01033  -0.00138   0.00000  -0.05299  -0.05242  -0.04209
   D18       -3.08758  -0.00210   0.00000  -0.07226  -0.07083   3.12477
   D19        3.10094   0.00216   0.00000   0.06723   0.06316  -3.11908
   D20        0.00303   0.00144   0.00000   0.04797   0.04475   0.04778
   D21       -2.60801   0.00305   0.00000   0.14195   0.14194  -2.46607
   D22        0.52733   0.00381   0.00000   0.16824   0.16840   0.69572
   D23        0.58304   0.00011   0.00000   0.02728   0.02712   0.61016
   D24       -2.56481   0.00088   0.00000   0.05357   0.05358  -2.51123
   D25       -0.00289  -0.00068   0.00000  -0.02460  -0.02422  -0.02711
   D26       -3.13764  -0.00080   0.00000  -0.03257  -0.03267   3.11288
   D27        3.13237  -0.00009   0.00000  -0.00126  -0.00093   3.13143
   D28       -0.00239  -0.00021   0.00000  -0.00924  -0.00938  -0.01177
   D29       -3.13318  -0.00009   0.00000  -0.00624  -0.00647  -3.13965
   D30        0.00841  -0.00014   0.00000  -0.00900  -0.00922  -0.00081
   D31        0.00174   0.00003   0.00000   0.00156   0.00178   0.00352
   D32       -3.13986  -0.00003   0.00000  -0.00119  -0.00097  -3.14083
   D33       -3.06612   0.00031   0.00000   0.01050   0.01017  -3.05595
   D34        0.08104  -0.00041   0.00000  -0.01305  -0.01271   0.06833
   D35        0.24840   0.00294   0.00000   0.06875   0.06863   0.31703
   D36       -2.89943   0.00370   0.00000   0.09491   0.09503  -2.80440
   D37        3.14081  -0.00002   0.00000  -0.00120  -0.00121   3.13961
   D38       -0.00077   0.00003   0.00000   0.00155   0.00155   0.00077
   D39       -1.71350  -0.00055   0.00000   0.00425   0.00422  -1.70928
   D40        0.39508   0.00078   0.00000   0.01494   0.01497   0.41005
   D41        2.49641   0.00025   0.00000   0.01114   0.01114   2.50755
   D42        1.06532  -0.00001   0.00000   0.00132   0.00132   1.06663
   D43       -1.03339  -0.00003   0.00000   0.00095   0.00094  -1.03244
   D44       -3.11826  -0.00005   0.00000   0.00077   0.00077  -3.11749
   D45       -1.10947   0.00014   0.00000   0.00354   0.00354  -1.10593
   D46        3.07501   0.00012   0.00000   0.00317   0.00316   3.07818
   D47        0.99014   0.00010   0.00000   0.00299   0.00299   0.99313
   D48        3.09698  -0.00001   0.00000   0.00119   0.00119   3.09817
   D49        0.99827  -0.00003   0.00000   0.00082   0.00082   0.99910
   D50       -1.08660  -0.00005   0.00000   0.00065   0.00065  -1.08595
   D51        3.12871  -0.00003   0.00000  -0.00037  -0.00037   3.12834
   D52       -1.08474   0.00000   0.00000   0.00016   0.00016  -1.08458
   D53        1.05637   0.00003   0.00000   0.00031   0.00031   1.05668
         Item               Value     Threshold  Converged?
 Maximum Force            0.017857     0.000450     NO 
 RMS     Force            0.002925     0.000300     NO 
 Maximum Displacement     0.972572     0.001800     NO 
 RMS     Displacement     0.247556     0.001200     NO 
 Predicted change in Energy=-3.630134D-03
 GradGradGradGradGradGradGradGradGradGradGradGradGradGradGradGradGradGrad

                          Input orientation:                          
 ---------------------------------------------------------------------
 Center     Atomic      Atomic             Coordinates (Angstroms)
 Number     Number       Type             X           Y           Z
 ---------------------------------------------------------------------
      1          1           0       -1.543658    0.513708   -2.867216
      2          6           0       -1.279907    0.726944   -1.841450
      3          1           0       -0.466872   -1.224129   -1.490949
      4          1           0       -1.999026    2.747881   -1.907107
      5          6           0       -0.612214    1.282468    0.806577
      6          6           0       -0.364104    0.020234    0.262430
      7          6           0       -0.676035   -0.249213   -1.071705
      8          6           0       -1.539194    1.979449   -1.301491
      9          6           0       -1.190575    2.260245    0.016019
     10          6           0        0.298114   -1.025917    1.031769
     11          6           0       -1.416269    3.601880    0.628668
     12          1           0       -0.315304    1.544184    1.809067
     13          1           0       -2.098877    5.312122    0.242728
     14          8           0        1.128919   -1.752893    0.375887
     15          8           0       -1.978538    4.465765   -0.215185
     16          8           0       -1.124294    3.872350    1.763536
     17          1           0       -0.636467   -0.125541    3.737541
     18          6           0       -0.942917   -0.990279    3.154645
     19          8           0       -2.157797   -1.821822    4.941100
     20          1           0       -1.838077   -0.779973    2.575326
     21          8           0        0.155453   -1.334725    2.258186
     22          6           0       -1.134694   -2.197342    4.047422
     23          1           0       -2.339074   -2.556572    5.535329
     24          1           0       -0.199155   -2.420601    4.566482
     25          1           0       -1.418326   -3.061286    3.440931
     26          1           0        1.487978   -2.484574    0.912259
 ---------------------------------------------------------------------
                    Distance matrix (angstroms):
                    1          2          3          4          5
     1  H    0.000000
     2  C    1.080384   0.000000
     3  H    2.464479   2.142560   0.000000
     4  H    2.474004   2.146073   4.277563   0.000000
     5  C    3.867212   2.786838   3.403348   3.381533   0.000000
     6  C    3.380761   2.400926   2.152518   3.849665   1.396743
     7  C    2.135106   1.382046   1.081654   3.380943   2.424471
     8  C    2.144740   1.388364   3.383590   1.081066   2.406039
     9  C    3.389410   2.410225   3.864655   2.142381   1.384027
    10  C    4.578717   3.717265   2.643595   5.306166   2.491596
    11  C    4.666287   3.792801   5.355791   2.738444   2.461266
    12  H    4.943517   3.863239   4.310062   4.253676   1.077794
    13  H    5.744979   5.102780   6.956411   3.347699   4.331997
    14  O    4.774711   4.107142   2.512213   5.937429   3.525685
    15  O    4.779241   4.136618   6.023919   2.411254   3.611678
    16  O    5.735870   4.786828   6.082596   3.937412   2.808111
    17  H    6.697346   5.680307   5.345349   6.478825   3.251711
    18  C    6.235838   5.293712   4.675772   6.380482   3.284535
    19  O    8.173229   7.298622   6.677403   8.234400   5.396270
    20  H    5.601924   4.700028   4.314170   5.706476   2.980751
    21  O    5.707313   4.808092   3.802042   6.217645   3.089689
    22  C    7.438364   6.576575   5.662744   7.788371   4.783841
    23  H    8.981206   8.143720   7.392504   9.145639   6.330984
    24  H    8.104179   7.220572   6.180266   8.477034   5.293413
    25  H    7.251828   6.501800   5.348256   7.917395   5.143718
    26  H    5.697801   5.055487   3.344483   6.891052   4.314230
                    6          7          8          9         10
     6  C    0.000000
     7  C    1.396358   0.000000
     8  C    2.768612   2.400996   0.000000
     9  C    2.400296   2.783033   1.391479   0.000000
    10  C    1.457685   2.444757   4.225166   3.747906   0.000000
    11  C    3.750917   4.274357   2.524462   1.492066   4.951576
    12  H    2.171841   3.412513   3.370896   2.119874   2.754250
    13  H    5.569013   5.889028   3.715449   3.192235   6.821942
    14  O    2.320768   2.759426   4.884956   4.649175   1.284100
    15  O    4.753658   4.966000   2.748609   2.353436   6.074258
    16  O    4.203571   5.022630   3.626239   2.378464   5.152839
    17  H    3.488815   4.810998   5.535137   4.455192   3.000887
    18  C    3.117863   4.299121   5.388134   4.525286   2.459275
    19  O    5.338582   6.389252   7.335004   6.469561   4.684852
    20  H    2.856994   3.864309   4.767961   4.026442   2.646955
    21  O    2.467568   3.599705   5.150425   4.445549   1.272719
    22  C    4.453944   5.496456   6.798535   6.010442   3.538267
    23  H    6.192245   7.193226   8.243628   7.415089   5.438724
    24  H    4.950732   6.060651   7.455820   6.603025   3.832312
    25  H    4.550826   5.368671   6.922008   6.332502   3.590676
    26  H    3.182223   3.689973   5.830262   5.521883   1.886197
                   11         12         13         14         15
    11  C    0.000000
    12  H    2.615260   0.000000
    13  H    1.881443   4.453303   0.000000
    14  O    5.934263   3.874339   7.768580   0.000000
    15  O    1.332115   3.924230   0.969786   6.976916   0.000000
    16  O    1.202635   2.465136   2.309895   6.216583   2.235444
    17  H    4.915979   2.571019   6.627257   4.131051   6.205263
    18  C    5.262371   2.937342   7.038165   3.549025   6.495897
    19  O    6.968751   4.953222   8.542326   5.625694   8.133460
    20  H    4.813319   2.882308   6.528602   3.819316   5.943437
    21  O    5.430995   2.951514   7.302372   2.159989   6.657113
    22  C    6.737814   4.436287   8.473334   4.336086   7.954802
    23  H    7.928015   5.898887   9.486077   6.268390   9.083590
    24  H    7.297810   4.830771   9.060838   4.446426   8.570448
    25  H    7.232332   5.008991   8.989194   4.194621   8.386747
    26  H    6.749815   4.504107   8.608267   0.975692   7.848253
                   16         17         18         19         20
    16  O    0.000000
    17  H    4.485287   0.000000
    18  C    5.060953   1.086946   0.000000
    19  O    6.602169   2.576892   2.314913   0.000000
    20  H    4.776254   1.795242   1.086808   2.604719   0.000000
    21  O    5.384799   2.068273   1.459006   3.575810   2.093440
    22  C    6.485168   2.153280   1.513548   1.409403   2.161192
    23  H    7.552029   3.469989   3.173355   0.962198   3.488398
    24  H    6.950800   2.479049   2.142962   2.082103   3.056539
    25  H    7.139707   3.052520   2.144072   2.081729   2.475854
    26  H    6.925252   4.249767   3.629113   5.473799   4.090734
                   21         22         23         24         25
    21  O    0.000000
    22  C    2.368534   0.000000
    23  H    4.295956   1.947677   0.000000
    24  H    2.575482   1.092933   2.352957   0.000000
    25  H    2.618526   1.093013   2.342865   1.778685   0.000000
    26  H    2.215693   4.097579   6.002023   4.025402   3.895302
                   26
    26  H    0.000000
 Symmetry turned off by external request.
 Stoichiometry    C10H11O5(1+)
 Framework group  C1[X(C10H11O5)]
 Deg. of freedom    72
 Full point group                 C1      NOp   1
 Rotational constants (GHZ):           0.8051150           0.3368666           0.2608436
 Standard basis: def2TZVP (5D, 7F)
   531 basis functions,   853 primitive gaussians,   606 cartesian basis functions
    55 alpha electrons       55 beta electrons
       nuclear repulsion energy       969.3417172933 Hartrees.
 NAtoms=   26 NActive=   26 NUniq=   26 SFac= 1.00D+00 NAtFMM=   60 NAOKFM=F Big=F
 Integral buffers will be    131072 words long.
 Raffenetti 2 integral format.
 Two-electron integral symmetry is turned off.
 ------------------------------------------------------------------------------
 Polarizable Continuum Model (PCM)
 =================================
 Model                : PCM.
 Atomic radii         : UFF (Universal Force Field).
 Polarization charges : Total charges.
 Charge compensation  : None.
 Solution method      : On-the-fly selection.
 Cavity type          : Scaled VdW (van der Waals Surface) (Alpha=1.100).
 Cavity algorithm     : GePol (No added spheres)
                        Default sphere list used, NSphG=   26.
                        Lebedev-Laikov grids with approx.  7.0 points / Ang**2.
                        Smoothing algorithm: York/Karplus (Gamma=1.0000).
                        Polarization charges: spherical gaussians, with
                                              point-specific exponents (IZeta= 3).
                        Self-potential: point-specific (ISelfS= 7).
                        Self-field    : sphere-specific E.n sum rule (ISelfD= 2).
 1st derivatives      : Analytical E(r).r(x)/FMM algorithm (CHGder, D1EAlg=3).
                        Cavity 1st derivative terms included.
 Solvent              : 1,2-EthaneDiol, Eps=  40.245000 Eps(inf)=   2.050051
 ------------------------------------------------------------------------------
 One-electron integrals computed using PRISM.
   1 Symmetry operations used in ECPInt.
 ECPInt:  NShTT=   21945 NPrTT=   67524 LenC2=   19480 LenP2D=   43750.
 LDataN:  DoStor=T MaxTD1= 6 Len=  172
 NBasis=   531 RedAO= T EigKep=  7.72D-06  NBF=   531
 NBsUse=   531 1.00D-06 EigRej= -1.00D+00 NBFU=   531
 Initial guess from the checkpoint file:  "/dev/shm/ipainterh_b.chk"
 B after Tr=    -0.012730    0.044251   -0.018618
         Rot=    0.999987    0.002214    0.000422    0.004539 Ang=   0.58 deg.
 ExpMin= 9.52D-02 ExpMax= 2.70D+04 ExpMxC= 9.22D+02 IAcc=3 IRadAn=         5 AccDes= 0.00D+00
 Harris functional with IExCor= 1009 and IRadAn=       5 diagonalized for initial guess.
 HarFok:  IExCor= 1009 AccDes= 0.00D+00 IRadAn=         5 IDoV= 1 UseB2=F ITyADJ=14
 ICtDFT=  3500011 ScaDFX=  1.000000  1.000000  1.000000  1.000000
 FoFCou: FMM=F IPFlag=           0 FMFlag=      100000 FMFlg1=           0
         NFxFlg=           0 DoJE=T BraDBF=F KetDBF=T FulRan=T
         wScrn=  0.000000 ICntrl=       500 IOpCl=  0 I1Cent=   200000004 NGrid=           0
         NMat0=    1 NMatS0=      1 NMatT0=    0 NMatD0=    1 NMtDS0=    0 NMtDT0=    0
 Symmetry not used in FoFCou.
 Requested convergence on RMS density matrix=1.00D-08 within  32 cycles.
 Requested convergence on MAX density matrix=1.00D-06.
 Requested convergence on             energy=1.00D-06.
 No special actions if energy rises.
 Inv3:  Mode=1 IEnd=    29956800.
 Iteration    1 A*A^-1 deviation from unit magnitude is 3.00D-15 for    384.
 Iteration    1 A*A^-1 deviation from orthogonality  is 1.80D-15 for   3052   2261.
 Iteration    1 A^-1*A deviation from unit magnitude is 3.11D-15 for   1778.
 Iteration    1 A^-1*A deviation from orthogonality  is 2.00D-15 for   2543   1452.
 Error on total polarization charges =  0.01043
 SCF Done:  E(RM062X) =  -763.641484792     A.U. after   12 cycles
            NFock= 12  Conv=0.65D-08     -V/T= 2.0046
 QCSCF skips out because SCF is already converged.
   1 Symmetry operations used in ECPInt.
 ECPInt:  NShTT=   21945 NPrTT=   67524 LenC2=   19480 LenP2D=   43750.
 LDataN:  DoStor=T MaxTD1= 7 Len=  274
 D1PCM: PCM CHGder 1st derivatives, ID1Alg=3 FixD1E=F DoIter=F DoCFld=F I1PDM=0.
 Calling FoFJK, ICntrl=      2127 FMM=F ISym2X=0 I1Cent= 0 IOpClX= 0 NMat=1 NMatS=1 NMatT=0.
 -------------------------------------------------------------------
 Center     Atomic                   Forces (Hartrees/Bohr)
 Number     Number              X              Y              Z
 -------------------------------------------------------------------
      1        1          -0.000038149    0.000051839   -0.000098402
      2        6          -0.000369159    0.000228766   -0.000234334
      3        1           0.000114568    0.000252304    0.000365850
      4        1          -0.000213128   -0.000131708   -0.000020774
      5        6           0.000381420   -0.004836648    0.000094222
      6        6          -0.001749472    0.005592986    0.005571487
      7        6          -0.000756712   -0.001385423   -0.002102317
      8        6           0.000578973    0.000152498   -0.000803326
      9        6          -0.000385941   -0.000816719   -0.000362579
     10        6          -0.000914607   -0.006513139    0.001692807
     11        6          -0.000159727   -0.000221415    0.000235601
     12        1          -0.000308071   -0.001239164    0.004144511
     13        1          -0.000043621   -0.000002473   -0.000031459
     14        8           0.002056907    0.001144272   -0.001259456
     15        8           0.000168315   -0.000136619    0.000053974
     16        8           0.000126874    0.000355421   -0.000008998
     17        1           0.000032009    0.000911725   -0.001215033
     18        6           0.000910417    0.004139679   -0.001596428
     19        8           0.000032654    0.000039890   -0.000077637
     20        1           0.000359127    0.001503723   -0.002127107
     21        8           0.000784441    0.001365688   -0.002303080
     22        6          -0.000151847   -0.000657334   -0.000189129
     23        1           0.000026688    0.000010035   -0.000028232
     24        1          -0.000022082    0.000096580   -0.000049473
     25        1          -0.000016082   -0.000056875    0.000091775
     26        1          -0.000443796    0.000152111    0.000257537
 -------------------------------------------------------------------
 Cartesian Forces:  Max     0.006513139 RMS     0.001637077

 GradGradGradGradGradGradGradGradGradGradGradGradGradGradGradGradGradGrad
 Berny optimization.
 Using GEDIIS/GDIIS optimizer.
 FormGI is forming the generalized inverse of G from B-inverse, IUseBI=4.
 Internal  Forces:  Max     0.021285966 RMS     0.003394034
 Search for a local minimum.
 Step number   2 out of a maximum of  129
 All quantities printed in internal units (Hartrees-Bohrs-Radians)
 Mixed Optimization -- RFO/linear search
 Update second derivatives using D2CorX and points    2    1
 DE=  8.34D-04 DEPred=-3.63D-03 R=-2.30D-01
 Trust test=-2.30D-01 RLast= 3.49D-01 DXMaxT set to 1.50D-01
 ITU= -1  0
 Use linear search instead of GDIIS.
     Eigenvalues ---    0.00588   0.00866   0.00936   0.01441   0.01504
     Eigenvalues ---    0.01567   0.01819   0.01973   0.02159   0.02208
     Eigenvalues ---    0.02213   0.02234   0.02250   0.02270   0.02286
     Eigenvalues ---    0.02382   0.02588   0.03231   0.04010   0.05683
     Eigenvalues ---    0.05840   0.05854   0.06170   0.10705   0.11018
     Eigenvalues ---    0.13361   0.13379   0.15652   0.15992   0.15998
     Eigenvalues ---    0.16000   0.16000   0.16000   0.16015   0.21550
     Eigenvalues ---    0.21964   0.22003   0.22058   0.23482   0.23518
     Eigenvalues ---    0.24998   0.24999   0.25000   0.25000   0.25000
     Eigenvalues ---    0.31004   0.33186   0.34463   0.34479   0.35050
     Eigenvalues ---    0.35144   0.35468   0.35865   0.35949   0.35965
     Eigenvalues ---    0.36912   0.37421   0.41451   0.42782   0.44090
     Eigenvalues ---    0.44370   0.46646   0.47673   0.48465   0.48613
     Eigenvalues ---    0.52251   0.53426   0.55005   0.58968   0.71936
     Eigenvalues ---    0.77993   1.03570
 RFO step:  Lambda=-1.15122351D-03 EMin= 5.87856865D-03
 Quartic linear search produced a step of -0.61681.
 Iteration  1 RMS(Cart)=  0.17863815 RMS(Int)=  0.00574176
 Iteration  2 RMS(Cart)=  0.01143276 RMS(Int)=  0.00044399
 Iteration  3 RMS(Cart)=  0.00006921 RMS(Int)=  0.00044324
 Iteration  4 RMS(Cart)=  0.00000007 RMS(Int)=  0.00044324
 Variable       Old X    -DE/DX   Delta X   Delta X   Delta X     New X
                                 (Linear)    (Quad)   (Total)
    R1        2.04163   0.00009  -0.00001   0.00011   0.00010   2.04173
    R2        2.61169   0.00005   0.00038  -0.00032   0.00005   2.61174
    R3        2.62363   0.00018  -0.00009   0.00045   0.00043   2.62405
    R4        2.04403  -0.00035  -0.00170   0.00168  -0.00002   2.04401
    R5        2.04292   0.00001   0.00001  -0.00000   0.00001   2.04293
    R6        2.63946  -0.00514  -0.00338  -0.00031  -0.00375   2.63571
    R7        2.61543   0.00045  -0.00031   0.00063   0.00031   2.61574
    R8        2.03673   0.00347   0.00412  -0.00126   0.00286   2.03960
    R9        2.63874   0.00171   0.00236  -0.00152   0.00077   2.63951
   R10        2.75463  -0.00391  -0.00289  -0.00050  -0.00339   2.75124
   R11        2.62952   0.00138   0.00112  -0.00014   0.00104   2.63055
   R12        2.81960   0.00008   0.00040  -0.00039   0.00001   2.81961
   R13        2.42660   0.00082  -0.00049   0.00105   0.00056   2.42715
   R14        2.40509  -0.00922  -0.00269  -0.00133  -0.00402   2.40107
   R15        2.51733  -0.00015   0.00020  -0.00035  -0.00015   2.51719
   R16        2.27265   0.00010  -0.00014   0.00021   0.00007   2.27272
   R17        1.83263  -0.00001  -0.00003   0.00003  -0.00000   1.83263
   R18        1.84379  -0.00014  -0.00011   0.00004  -0.00008   1.84372
   R19        2.05403   0.00008   0.00024  -0.00019   0.00004   2.05407
   R20        2.05377   0.00113   0.00077   0.00031   0.00107   2.05484
   R21        2.75712  -0.00267  -0.00211  -0.00020  -0.00231   2.75481
   R22        2.86019   0.00032  -0.00010   0.00051   0.00041   2.86060
[...]
 016908,-0.00036738,0.00065609,0.00003739,-0.00008949,-0.00035494,0.000
 03174,0.00000086,0.00007487,0.00004697,-0.00007886,0.00008497,-0.00000
 534,0.00087999,-0.00426434,-0.00006862,0.00027152,0.00014594,0.0000110
 3,0.00012447,-0.00000589,-0.00000880,0.00000900,0.00000430,-0.00086938
 ,0.00075998,0.00143639,0.00005708,-0.00013873,0.00000012,0.00002670,-0
 .00011441,-0.00011064,0.00029512,0.00079903,-0.00170066,-0.01284703,0.
 00577713,0.01498968,0.23988196,0.00000236,-0.00001650,0.00001508,0.000
 03365,-0.00007947,0.00002945,-0.00002133,-0.00000194,-0.00001154,-0.00
 000177,0.00000053,-0.00000168,-0.00006885,0.00026252,0.00008024,0.0001
 5885,-0.00020300,0.00035044,0.00007590,-0.00006515,-0.00019236,0.00000
 295,-0.00001505,0.00000394,0.00005553,-0.00007944,0.00005432,-0.001191
 24,0.00078535,-0.00236230,-0.00002261,0.00011872,0.00004198,-0.0000182
 5,0.00001994,-0.00005413,-0.00000169,0.00000770,-0.00000089,-0.0005684
 8,0.00083774,0.00147144,0.00002791,-0.00007264,0.00000949,0.00000401,-
 0.00005005,-0.00002750,0.00010306,0.00199059,-0.00117961,-0.01476262,0
 .01431004,0.01130434,0.00632996,0.40747815,-0.00000711,0.00003438,-0.0
 0003273,-0.00011791,0.00025224,-0.00007426,0.00003953,0.00000003,0.000
 02322,0.00000125,-0.00000599,-0.00000879,0.00028676,-0.00031715,-0.000
 20821,-0.00035466,0.00056501,-0.00087880,-0.00009462,0.00012387,0.0005
 2110,-0.00003706,0.00001672,-0.00007687,-0.00010979,0.00013380,-0.0001
 4556,0.00073042,-0.00154164,0.00684036,0.00007827,-0.00039640,-0.00021
 880,-0.00001908,-0.00018607,0.00005046,0.00000636,-0.00001708,-0.00000
 524,0.00132850,-0.00138903,-0.00246106,-0.00007219,0.00020159,0.000003
 69,-0.00002126,0.00017208,0.00016572,-0.00018394,-0.00051565,0.0014322
 3,0.02563519,-0.01253308,-0.02105559,-0.23367116,-0.18436981,0.4090958
 3,-0.00000952,-0.00000591,0.00000602,-0.00011880,0.00021473,-0.0001195
 5,-0.00003752,-0.00002557,-0.00003208,-0.00002579,-0.00001241,-0.00002
 445,-0.00001255,0.00034400,0.00052847,0.00022259,-0.00109402,0.0005741
 4,0.00028004,-0.00010233,0.00023182,-0.00005834,-0.00018901,-0.0002676
 3,0.00025839,-0.00006931,0.00017175,-0.00016908,0.00184204,-0.00710680
 ,0.00010664,-0.00029545,-0.00006222,-0.00041120,-0.00045621,-0.0001840
 7,0.00000352,-0.00001075,-0.00000204,-0.00017812,0.00065044,0.00153757
 ,-0.00005042,0.00012086,-0.00002435,-0.00003496,0.00011598,0.00008217,
 -0.00587800,0.00308176,-0.00675559,-0.22300296,0.05295065,-0.12006757,
 0.00063867,0.00002938,-0.00134143,0.24406747,0.00000108,0.00000742,-0.
 00000862,-0.00002430,0.00009772,-0.00006589,-0.00001526,-0.00001071,-0
 .00002203,-0.00001213,-0.00000894,-0.00002212,-0.00059648,-0.00073342,
 0.00108300,-0.00074825,0.00032005,-0.00001122,-0.00003271,-0.00000818,
 0.00005029,-0.00003970,-0.00004590,-0.00010331,0.00015755,-0.00014443,
 0.00006288,-0.00025519,0.00030615,0.00232735,0.00012235,-0.00024030,-0
 .00002941,-0.00091817,-0.00054027,0.00002095,-0.00000096,-0.00001536,-
 0.00000080,-0.00042762,0.00009518,-0.00018253,-0.00006867,0.00012943,-
 0.00002392,-0.00000939,0.00014857,0.00002971,-0.01975819,0.00849361,-0
 .01232685,0.05109324,-0.06875810,0.03522280,-0.00029221,0.00126247,-0.
 00177938,-0.06245092,0.07389184,0.00000585,0.00000990,0.00000135,0.000
 05498,-0.00004478,-0.00010398,-0.00000392,-0.00000069,0.00003700,-0.00
 003474,-0.00000598,0.00000009,0.00081909,0.00218913,-0.00130049,0.0008
 5912,-0.00028323,-0.00000884,-0.00021902,0.00002259,-0.00014851,-0.000
 01949,-0.00002567,-0.00001020,0.00008402,0.00011754,-0.00000143,0.0015
 2018,-0.00000563,0.00709313,-0.00002924,-0.00000560,0.00002535,0.00008
 335,0.00013603,-0.00052263,0.00000199,0.00000313,-0.00000117,0.0005693
 8,-0.00151490,-0.00197811,0.00001390,-0.00001011,-0.00000994,0.0000008
 3,-0.00001288,-0.00001175,-0.01087147,0.00594957,-0.00550973,-0.133220
 99,0.03958968,-0.14176293,0.00005706,-0.00063817,0.00134250,0.12596890
 ,-0.04317582,0.14998639,-0.00025131,-0.00004835,-0.00003795,-0.0011877
 7,-0.00137410,0.00031307,0.00033429,0.00022248,-0.00039658,0.00020975,
 0.00006832,-0.00004313,-0.00085245,-0.00118655,0.00059435,0.01617368,0
 .00673286,-0.00862274,0.00130601,0.00244713,-0.00190126,0.00025410,0.0
 0081447,0.00085650,-0.00160723,0.00041520,-0.00082278,-0.09854705,0.02
 486174,0.04342236,-0.00008371,-0.00047963,-0.00031058,0.00035718,0.000
 45141,0.00010707,0.00001649,-0.00001869,-0.00000800,-0.00743951,0.0072
 6452,0.06639095,-0.00005488,0.00025702,0.00000050,0.00000854,0.0001404
 4,0.00017524,0.00334432,0.00279688,0.00090833,-0.12363121,0.04171983,0
 .02526590,-0.00158485,-0.00563076,0.00551998,-0.02521657,0.01466689,0.
 02877688,0.25063073,0.00016310,-0.00064692,0.00032151,0.00031418,-0.00
 024398,0.00239237,-0.00010140,0.00018383,0.00003014,-0.00002649,-0.000
 02775,-0.00002962,-0.00175046,0.00382088,0.00034044,0.00373451,0.00913
 489,0.03330806,0.00371855,-0.00589254,-0.00235649,0.00013609,0.0003447
 0,0.00052474,0.00033832,-0.00037511,-0.00006315,0.03100775,-0.11903041
 ,0.08642413,-0.00033558,0.00137030,0.00077874,-0.00010472,-0.00012852,
 -0.00045244,-0.00002104,0.00006424,0.00000728,0.00618410,0.01830905,-0
 .03601066,0.00026386,-0.00070687,-0.00000474,0.00007270,-0.00060085,-0
 .00059395,0.02446968,-0.00552565,-0.01775229,0.04488650,-0.08784903,-0
 .01594456,-0.00296671,-0.00407425,0.00609765,0.00892658,-0.00566104,-0
 .00969258,-0.09969333,0.17885131,-0.00022034,0.00047608,-0.00042337,-0
 .00277335,0.00383111,-0.00053772,0.00107836,0.00024934,0.00035105,0.00
 034223,0.00004385,0.00004040,0.00567830,-0.00996372,-0.00478089,-0.005
 38766,0.02636755,-0.03777099,-0.00008278,0.00315883,0.01001164,-0.0000
 1518,0.00042709,-0.00005981,-0.00357896,0.00238459,-0.00347821,0.02707
 419,0.09399447,-0.42175247,0.00047756,-0.00389217,-0.00267160,0.000553
 37,0.00131461,-0.00062221,0.00008990,-0.00016042,-0.00003733,0.0560473
 8,-0.02912375,-0.08994590,-0.00065872,0.00198644,0.00018901,-0.0001047
 8,0.00157253,0.00189318,0.02547380,-0.00934086,-0.01988079,0.03605343,
 -0.02033343,-0.08274126,0.00722836,0.01125661,-0.01359867,0.00084612,0
 .00120123,0.00304088,-0.17036627,-0.05679955,0.68246436,-0.00000698,0.
 00000253,-0.00000517,-0.00019205,0.00037314,-0.00010292,-0.00001383,-0
 .00001183,-0.00001687,-0.00002293,-0.00001534,-0.00002195,0.00029829,0
 .00067902,-0.00024944,0.00028648,0.00027904,-0.00035598,0.00027154,-0.
 00005115,0.00046681,-0.00008410,-0.00021866,-0.00033932,0.00025666,-0.
 00008069,0.00020491,-0.00342031,-0.00016318,0.00014171,0.00012081,-0.0
 0039379,-0.00015221,-0.00016029,-0.00021540,-0.00036178,0.00000781,-0.
 00001287,-0.00000453,0.00034181,0.00082017,0.00081516,-0.00006805,0.00
 017293,-0.00001224,-0.00003916,0.00016854,0.00014162,-0.00118844,-0.01
 143331,0.00930693,-0.07740586,-0.02039152,-0.00247213,-0.15484828,0.03
 913864,0.08957388,0.00890671,0.02055108,-0.01690046,-0.01462084,-0.015
 07771,0.02717215,0.57107261,-0.00000326,0.00004751,-0.00003929,-0.0001
 2080,0.00029714,-0.00008507,0.00005641,0.00000389,0.00004135,0.0000038
 6,0.00000096,0.00001615,0.00026054,-0.00077494,-0.00046916,-0.00050973
 ,0.00048416,-0.00102861,-0.00017148,0.00017871,0.00062875,-0.00000259,
 -0.00003411,-0.00007397,-0.00013695,0.00024507,0.00001280,0.00318307,-
 0.00212172,0.00549869,0.00003620,-0.00027360,-0.00018634,0.00005608,0.
 00012332,0.00013078,0.00000470,-0.00001299,-0.00000159,0.00145283,-0.0
 0215721,-0.00370084,-0.00005176,0.00015143,0.00000661,-0.00000510,0.00
 011303,0.00012013,-0.00422818,-0.02145808,0.01905349,-0.02567121,-0.17
 723639,0.07628120,0.06603824,-0.12160713,-0.04941257,-0.00209510,-0.00
 713386,0.00476023,0.01078239,0.01453341,-0.02510466,0.00459923,0.58229
 205,0.00000525,-0.00002002,0.00002653,0.00001144,-0.00003139,0.0000479
 5,-0.00001974,0.00000090,-0.00000679,0.00000976,0.00001102,0.00003396,
 -0.00024598,-0.00030652,-0.00017985,0.00036303,-0.00022928,0.00021971,
 0.00010674,-0.00009676,-0.00017190,0.00007740,-0.00017880,-0.00004915,
 0.00015142,-0.00004364,0.00043938,0.00229260,0.00154375,-0.00604530,-0
 .00011745,0.00043686,0.00019278,0.00000917,0.00052376,-0.00001943,-0.0
 0000812,0.00001799,0.00000674,-0.00153786,0.00092272,0.00151925,0.0000
 8630,-0.00021992,0.00000988,0.00003868,-0.00019195,-0.00015499,-0.0041
 2707,-0.01139670,0.01209429,0.00027209,0.06927284,-0.12269054,0.076082
 06,-0.01772971,-0.14359910,0.00453340,0.01576028,-0.01005339,0.0119515
 5,0.00944031,-0.01743580,0.05285644,0.01421402,0.54661818,0.00000012,-
 0.00000161,0.00000093,0.00000094,-0.00000302,0.00000273,-0.00000094,0.
 00000037,-0.00000201,-0.00000018,-0.00000004,-0.00000077,-0.00002278,0
 .00001550,0.00001626,0.00001916,-0.00000006,0.00004060,0.00001072,-0.0
 0000950,-0.00001152,-0.00000107,-0.00000121,-0.00000279,0.00000966,-0.
 00000963,0.00000426,-0.00021160,0.00009550,-0.00000111,0.00000534,0.00
 000056,0.00001203,-0.00000269,-0.00000141,-0.00000602,0.00000121,-0.00
 000020,0.00000017,-0.00004625,0.00002495,0.00011828,-0.00000326,0.0000
 0152,-0.00000418,-0.00000293,-0.00000126,-0.00000831,0.00001730,0.0002
 9606,-0.00022814,-0.00318973,0.00309380,0.00114329,-0.04966272,-0.0638
 0612,0.08893601,0.00018375,-0.00009699,0.00014264,-0.00017449,-0.00068
 619,0.00167935,-0.01243637,-0.02136504,0.02308619,0.06355303,-0.000000
 90,0.00000532,-0.00000506,-0.00001730,0.00004260,-0.00001392,0.0000059
 2,-0.00000019,0.00000248,-0.00000105,-0.00000149,-0.00000138,0.0000317
 7,-0.00003181,-0.00002687,-0.00005506,0.00006964,-0.00013578,-0.000013
 64,0.00001727,0.00008271,-0.00000790,-0.00000122,-0.00001721,-0.000003
 88,0.00001558,-0.00002038,0.00007083,-0.00003610,0.00080544,0.00001368
 ,-0.00005628,-0.00002370,-0.00000163,-0.00002245,-0.00000810,0.0000010
 0,-0.00000272,0.,0.00016608,-0.00025955,-0.00033711,-0.00001173,0.0000
 3068,-0.00000242,-0.00000393,0.00002409,0.00001774,0.00019632,0.000270
 76,-0.00002926,0.00126948,-0.00161741,-0.00112771,-0.09665055,-0.29027
 196,0.25504132,-0.00002700,-0.00001873,-0.00013664,0.00114280,0.000836
 38,-0.00179995,0.00964940,0.01138692,-0.01774785,0.08303322,0.27926962
 ,0.00000103,0.00000069,-0.00000021,0.00000164,-0.00000122,0.00000195,0
 .00000220,0.00000112,0.00000038,0.00000117,0.00000094,0.00000167,-0.00
 002327,-0.00004351,-0.00000901,-0.00000982,0.00001015,-0.00000907,-0.0
 0000971,-0.00000209,0.00000162,0.00000255,-0.00000030,0.00000310,-0.00
 000161,0.00000492,0.00000688,0.00024366,0.00003234,0.00016157,-0.00000
 532,0.00002192,0.00000280,0.00001759,0.00003293,-0.00000222,0.00000049
 ,0.00000202,0.00000011,-0.00004704,-0.00008292,-0.00007015,0.00000313,
 -0.00001077,0.00000222,-0.00000045,-0.00001003,-0.00000460,-0.00000766
 ,0.00009181,0.00016568,0.00210568,-0.00334989,-0.00168037,0.10490359,0
 .21641842,-0.22970420,-0.00008217,-0.00029942,0.00025602,0.00061068,0.
 00083947,-0.00068350,0.00807352,0.01872600,-0.02041252,-0.11385565,-0.
 23332420,0.24927616,0.00000605,0.00000092,-0.00000065,0.00003843,-0.00
 005780,0.00001315,0.00000099,0.00000143,0.00000169,0.00000183,0.000001
 57,0.00000158,-0.00002079,-0.00005218,0.00005006,-0.00004841,-0.000029
 09,0.00014317,-0.00007482,-0.00000450,-0.00006574,0.00000423,0.0000336
 1,0.00005747,-0.00003243,0.00001744,-0.00004591,0.00030395,-0.00010785
 ,0.00000419,-0.00001161,0.00003492,0.00001697,0.00001894,0.00001787,0.
 00001751,-0.00000100,0.00000059,0.00000055,0.00000394,-0.00003063,-0.0
 0007749,0.00000597,-0.00001411,-0.00000019,0.00000421,-0.00001517,-0.0
 0001560,0.00070655,0.00048401,-0.00041330,0.00755623,-0.00278560,0.004
 79137,-0.02735618,0.01294180,0.00244077,-0.00024451,-0.00134733,0.0020
 6327,0.00101906,0.00016237,-0.00111667,-0.22174304,0.05134915,-0.11152
 720,0.00065412,0.00082403,-0.00067505,0.24727672,0.00000125,-0.0000021
 2,0.00000261,0.00004537,-0.00009712,0.00002578,0.00000224,0.00000308,0
 .00000354,0.00000745,0.00000487,0.00000540,-0.00007894,-0.00013749,0.0
 0006660,-0.00000773,-0.00007504,0.00005074,-0.00006033,0.00001839,-0.0
 0013526,0.00001961,0.00004645,0.00008145,-0.00005911,0.00001516,-0.000
 03588,0.00002541,0.00012893,-0.00042965,-0.00002898,0.00010934,0.00004
 205,0.00004641,0.00006947,0.00007532,-0.00000066,0.00000447,0.00000071
 ,-0.00008664,0.00009161,0.00013726,0.00001790,-0.00005024,0.00000361,0
 .00000642,-0.00004881,-0.00003765,0.00048561,0.00118065,-0.00080212,0.
 02186368,-0.00872698,0.01639066,0.01579633,-0.00261780,0.00129648,-0.0
 0150630,-0.00267580,0.00282303,-0.00012684,0.00061271,-0.00105138,0.04
 931651,-0.07200478,0.03211634,-0.00104795,-0.00005413,0.00003929,-0.06
 445703,0.07601104,-0.00000350,0.00000060,-0.00000175,-0.00004312,0.000
 08661,-0.00002351,-0.00000305,-0.00000308,-0.00000390,-0.00000676,-0.0
 0000455,-0.00000596,0.00008085,0.00013725,-0.00005008,-0.00001043,0.00
 005648,-0.00002712,0.00007250,-0.00001341,0.00011794,-0.00001555,-0.00
 004003,-0.00007709,0.00005459,-0.00002151,0.00003198,-0.00009612,-0.00
 017637,0.00048900,0.00003053,-0.00011424,-0.00003964,-0.00005061,-0.00
 009199,-0.00004824,0.00000109,-0.00000494,-0.00000080,0.00010643,-0.00
 011878,-0.00014924,-0.00001971,0.00005341,-0.00000517,-0.00000842,0.00
 005100,0.00003614,0.00045224,-0.00053737,0.00115392,-0.01864891,0.0060
 0164,-0.01207945,0.02975191,-0.01186191,0.01059479,0.00216211,0.002965
 99,-0.00173802,-0.00031873,-0.00030141,0.00071010,-0.11333002,0.036999
 48,-0.12390839,-0.00051526,-0.00028215,0.00178520,0.11277733,-0.037376
 02,0.12919575,-0.00000011,-0.00000002,0.00000108,0.00000921,-0.0000135
 0,0.00000300,0.,0.00000026,0.00000301,-0.00000046,0.00000100,0.0000048
 1,-0.00000476,-0.00005557,-0.00004261,-0.00003533,-0.00004477,-0.00000
 342,-0.00000931,0.00001098,-0.00002088,0.00000927,-0.00000493,0.000010
 47,0.00000140,0.00001731,0.00002525,-0.00005753,0.00000606,0.00000616,
 -0.00001363,0.00004022,0.00000830,0.00000315,0.00006237,-0.00000298,-0
 .00000073,0.00000211,0.00000037,-0.00001129,0.00001798,0.00006498,0.00
 000862,-0.00002055,0.00000363,0.00000502,-0.00001871,-0.00000877,0.000
 52416,-0.00064689,0.00166314,-0.00248563,-0.00507427,-0.00434241,0.005
 94540,0.02708935,0.02176709,0.00062146,0.00052692,0.00047308,0.0001395
 9,0.00031132,-0.00017791,-0.09518160,-0.08321011,-0.05467857,0.0012874
 8,0.00042052,-0.00126487,-0.00806837,-0.02019211,-0.01240125,0.0973164
 4,0.00000156,-0.00000126,0.00000281,-0.00000265,0.00001629,0.00001209,
 -0.00000296,-0.00000030,0.00000638,0.00000529,0.00000343,0.00000861,-0
 .00003407,-0.00013982,-0.00010018,-0.00001677,0.00002683,-0.00002835,0
 .00000682,-0.00000769,0.00001671,0.00001648,-0.00003219,-0.00000762,-0
 .00000010,0.00001200,0.00008636,-0.00006833,0.00007146,-0.00004764,-0.
 00002723,0.00006858,0.00000612,0.00003014,0.00013328,0.00000577,-0.000
 00139,0.00000335,0.00000029,-0.00015959,0.00007992,0.00021364,0.000017
 46,-0.00003797,0.00000931,0.00000895,-0.00003139,-0.00000943,-0.000552
 37,-0.00226862,0.00320152,-0.01147378,-0.02198857,-0.01218005,0.004265
 20,-0.00759875,-0.01201595,0.00041818,0.00113033,-0.00046616,0.0007966
 3,0.00113097,0.00019364,-0.07754456,-0.20582767,-0.09572802,0.00049446
 ,0.00032533,0.00088122,0.00301537,0.00822232,0.00456124,0.08079136,0.2
 2675457,-0.00000004,-0.00000253,0.00000044,0.00000721,-0.00002473,0.00
 000072,-0.00000150,-0.00000095,-0.00000575,-0.00000127,-0.00000158,-0.
 00000886,-0.00000262,0.00014493,0.00006740,0.00002605,0.00001924,0.000
 10214,0.00000342,-0.00001488,-0.00003913,-0.00001134,0.00003196,0.0000
 0932,-0.00001340,-0.00003262,-0.00007272,-0.00005597,-0.00009371,-0.00
 020311,0.00001649,-0.00004198,-0.00000863,0.00000235,-0.00013340,0.000
 03341,0.00000066,-0.00000150,-0.00000104,0.00001154,0.00008450,0.00001
 146,-0.00000897,0.00001994,-0.00000305,-0.00000651,0.00002071,0.000010
 62,0.00165150,0.00336175,-0.00309937,0.01012525,0.02010049,0.01114060,
 0.00459360,-0.02259600,-0.01810320,-0.00038515,-0.00086036,0.00123620,
 -0.00130734,-0.00066213,0.00179337,-0.05455309,-0.09645039,-0.11641307
 ,-0.00054445,-0.00092189,0.00091722,-0.00843266,-0.01329958,-0.0059247
 2,0.04890457,0.11137536,0.12854770,0.00000770,-0.00001545,0.00003758,-
 0.00012333,-0.00014942,-0.00011385,-0.00007751,-0.00001024,-0.00007285
 ,0.00000214,0.00001471,-0.00002344,-0.00102383,0.00207483,-0.00075167,
 0.00428777,0.00125795,0.00535505,0.00049181,-0.00056353,-0.00045504,0.
 00010741,-0.00038197,-0.00029375,0.00013019,-0.00025611,0.00125682,-0.
 02026845,0.03486317,-0.01276488,-0.00011681,0.00045995,0.00019990,0.00
 011876,0.00008432,-0.00004758,-0.00000788,0.00002940,-0.00000570,-0.07
 624007,0.11146214,-0.06704155,0.00006790,-0.00017033,0.00000200,0.0000
 0401,-0.00017141,-0.00018917,0.00045570,-0.00013894,-0.00036265,-0.001
 80622,-0.00039338,0.00118784,0.00020662,0.00010036,-0.00031380,0.00015
 909,-0.00002461,-0.00019521,0.00145813,-0.00392598,-0.00531189,-0.0001
 3058,-0.00025137,0.00032845,0.00001215,-0.00003049,0.00001568,-0.00000
 007,0.00001844,-0.00001815,-0.00000245,0.00001590,-0.00001833,0.092287
 80,-0.00000412,0.00004618,-0.00003914,-0.00021570,0.00052888,0.0000228
 8,0.00005453,0.00004724,0.00040507,-0.00000666,0.00001177,0.00000228,0
 .00082348,0.00030026,-0.00046233,0.00266828,0.00296195,-0.00180291,-0.
 00055205,-0.00014088,0.00034630,0.00004853,-0.00007203,-0.00031352,-0.
 00044488,0.00001375,0.00023547,0.02142705,-0.02992455,0.00481707,0.000
 00680,-0.00045281,-0.00019163,0.00011136,-0.00006344,-0.00001549,0.000
 01765,-0.00001339,-0.00000635,0.12657272,-0.27150677,0.17247775,-0.000
 07177,0.00023025,-0.00000821,-0.00002435,0.00018494,0.00016289,-0.0002
 7631,0.00012408,0.00022270,0.00163067,-0.00119761,-0.00188175,-0.00032
 420,-0.00032062,0.00054464,-0.00035430,0.00011227,0.00041800,-0.007022
 75,0.00157026,0.00911194,-0.00014023,0.00078488,-0.00034022,-0.0000257
 3,0.00007983,0.00002110,0.00001622,-0.00002817,0.00003406,-0.00001632,
 -0.00004444,-0.00002064,-0.14389794,0.29676818,-0.00000299,-0.00000726
 ,0.00002332,-0.00016357,-0.00025872,0.00012074,0.00021675,0.00019942,0
 .00020102,0.00003657,0.00003913,-0.00000690,-0.00013512,0.00035045,0.0
 0053225,0.00385619,-0.00197436,-0.00069351,-0.00007146,-0.00007278,-0.
 00070926,0.00005371,-0.00008792,-0.00010082,-0.00004896,-0.00030347,0.
 00041601,0.01024589,-0.02218466,0.02010107,-0.00002019,0.00021135,0.00
 017636,0.00010048,0.00004408,-0.00002306,-0.00000187,0.00000929,0.0000
 0269,-0.09307115,0.20768126,-0.18584208,0.00005048,-0.00013263,-0.0000
 1531,0.00000154,-0.00009957,-0.00010858,0.00002706,0.00004548,0.000049
 25,0.00025962,-0.00013865,-0.00098065,-0.00010243,-0.00001013,0.000101
 19,-0.00018734,0.00018720,0.00014221,-0.00075799,0.00015873,-0.0040734
 9,0.00012499,0.00006282,-0.00006843,-0.00000253,0.00001191,-0.00000673
 ,-0.00000862,0.00000668,-0.00003176,0.00000473,0.00000234,0.00001205,0
 .07959622,-0.18373999,0.17078242\\-0.00000244,0.00000858,0.00000058,0.
 00001173,-0.00001700,0.00000135,-0.00000154,0.00000151,0.00000014,0.00
 000739,0.00000408,-0.00000141,0.00001119,-0.00001966,0.00000680,-0.000
 00261,0.00001641,0.00001378,-0.00001075,0.00000306,-0.00001883,0.00000
 267,0.00001812,0.00002561,-0.00000333,0.00001201,-0.00002207,0.0000109
 0,-0.00000087,-0.00002570,0.00000343,0.00000087,0.00000226,0.00000099,
 0.00000066,-0.00000067,0.00001060,0.00000435,0.00000497,-0.00001305,0.
 00000107,-0.00000056,0.00000889,0.00000220,0.00000788,0.00000726,0.000
 00046,0.00000644,-0.00000178,-0.00000543,0.00000151,0.00000023,-0.0000
 0247,-0.00001367,0.00000380,-0.00000012,0.00000934,-0.00000427,-0.0000
 0148,0.00000219,-0.00000312,-0.00001377,0.00002235,-0.00000907,-0.0000
 0111,-0.00000639,-0.00001226,-0.00000458,-0.00000819,-0.00000445,-0.00
 000356,-0.00000230,-0.00000556,-0.00000195,-0.00000136,-0.00000485,-0.
 00000137,-0.00000404\\\@


 Spring appears, and we are once more children.
                                  -- Anonymous
 Job cpu time:       0 days  8 hours  6 minutes  8.3 seconds.
 Elapsed time:       0 days  0 hours 13 minutes 32.0 seconds.
 File lengths (MBytes):  RWF=    748 Int=      0 D2E=      0 Chk=     34 Scr=      1
 Normal termination of Gaussian 16 at Sun Aug 11 18:05:10 2019.
