 Entering Gaussian System, Link 0=g16
 Initial command:
 /nopt/nrel/apps/gaussian/g16B/g16/l1.exe "/dev/shm/Gau-365256.inp" -scrdir="/dev/shm/"
 Default is to use a total of  36 processors:
                               36 via shared-memory
                                1 via Linda
 Entering Link 1 = /nopt/nrel/apps/gaussian/g16B/g16/l1.exe PID=    365257.
  
 Copyright (c) 1988-2017, Gaussian, Inc.  All Rights Reserved.
  
 This is part of the Gaussian(R) 16 program.  It is based on
 the Gaussian(R) 09 system (copyright 2009, Gaussian, Inc.),
 the Gaussian(R) 03 system (copyright 2003, Gaussian, Inc.),
 the Gaussian(R) 98 system (copyright 1998, Gaussian, Inc.),
 the Gaussian(R) 94 system (copyright 1995, Gaussian, Inc.),
 the Gaussian 92(TM) system (copyright 1992, Gaussian, Inc.),
 the Gaussian 90(TM) system (copyright 1990, Gaussian, Inc.),
 the Gaussian 88(TM) system (copyright 1988, Gaussian, Inc.),
 the Gaussian 86(TM) system (copyright 1986, Carnegie Mellon
 University), and the Gaussian 82(TM) system (copyright 1983,
 Carnegie Mellon University). Gaussian is a federally registered
 trademark of Gaussian, Inc.
  
 This software contains proprietary and confidential information,
 including trade secrets, belonging to Gaussian, Inc.
  
 This software is provided under written license and may be
 used, copied, transmitted, or stored only in accord with that
 written license.
  
 The following legend is applicable only to US Government
 contracts under FAR:
  
                    RESTRICTED RIGHTS LEGEND
  
 Use, reproduction and disclosure by the US Government is
 subject to restrictions as set forth in subparagraphs (a)
 and (c) of the Commercial Computer Software - Restricted
 Rights clause in FAR 52.227-19.
  
 Gaussian, Inc.
 340 Quinnipiac St., Bldg. 40, Wallingford CT 06492
  
  
 ---------------------------------------------------------------
 Warning -- This program may not be used in any manner that
 competes with the business of Gaussian, Inc. or will provide
 assistance to any competitor of Gaussian, Inc.  The licensee
 of this program is prohibited from giving any competitor of
 Gaussian, Inc. access to this program.  By using this program,
 the user acknowledges that Gaussian, Inc. is engaged in the
 business of creating and licensing software in the field of
 computational chemistry and represents and warrants to the
 licensee that it is not a competitor of Gaussian, Inc. and that
 it will not use this program in any manner prohibited above.
 ---------------------------------------------------------------
  

 Cite this work as:
 Gaussian 16, Revision B.01,
 M. J. Frisch, G. W. Trucks, H. B. Schlegel, G. E. Scuseria, 
 M. A. Robb, J. R. Cheeseman, G. Scalmani, V. Barone, 
 G. A. Petersson, H. Nakatsuji, X. Li, M. Caricato, A. V. Marenich, 
 J. Bloino, B. G. Janesko, R. Gomperts, B. Mennucci, H. P. Hratchian, 
 J. V. Ortiz, A. F. Izmaylov, J. L. Sonnenberg, D. Williams-Young, 
 F. Ding, F. Lipparini, F. Egidi, J. Goings, B. Peng, A. Petrone, 
 T. Henderson, D. Ranasinghe, V. G. Zakrzewski, J. Gao, N. Rega, 
 G. Zheng, W. Liang, M. Hada, M. Ehara, K. Toyota, R. Fukuda, 
 J. Hasegawa, M. Ishida, T. Nakajima, Y. Honda, O. Kitao, H. Nakai, 
 T. Vreven, K. Throssell, J. A. Montgomery, Jr., J. E. Peralta, 
 F. Ogliaro, M. J. Bearpark, J. J. Heyd, E. N. Brothers, K. N. Kudin, 
 V. N. Staroverov, T. A. Keith, R. Kobayashi, J. Normand, 
 K. Raghavachari, A. P. Rendell, J. C. Burant, S. S. Iyengar, 
 J. Tomasi, M. Cossi, J. M. Millam, M. Klene, C. Adamo, R. Cammi, 
 J. W. Ochterski, R. L. Martin, K. Morokuma, O. Farkas, 
 J. B. Foresman, and D. J. Fox, Gaussian, Inc., Wallingford CT, 2016.
 
 ******************************************
 Gaussian 16:  ES64L-G16RevB.01 20-Dec-2017
                 9-Oct-2019 
 ******************************************
 %RWF=/dev/shm/,5GB,/tmp/scratch/1515170/,-1
 %NoSave
 %OldChk=lmethyllactate_tsa_ts_ircr_opt.chk
 %Chk=/dev/shm/lmethyllactate_tsa_ts_ircr_opt.chk
 Copying data from "lmethyllactate_tsa_ts_ircr_opt.chk" to current chk file "/dev/shm/lmethyllactate_tsa_ts_ircr_opt.chk"
 IOpt=  2 FromEx=T IUOpen= 4 IOptOp= 5 NList=   0 IFRang= 0 IUIn= 4 IUOut= 2.
 Default route: CacheSize=180224 MaxDisk=256GB
 ----------------------------------------------------------------------
 # m062x/Def2TZVP nosymm scf=xqc opt=ReadFC freq=NoRaman CPHF=Grid=Fine
  guess=read geom=allcheck
 ----------------------------------------------------------------------
 1/4=180224,10=3,18=20,19=15,26=3,29=7,38=1/1,3;
 2/4=180224,9=110,12=2,15=1,40=1/2;
 3/4=180224,5=44,7=101,11=2,14=-4,25=1,30=1,71=1,74=-55,116=-2/1,2,3;
 4/4=180224,5=1/1;
 5/4=180224,5=2,8=3,13=1,38=6/2,8;
 6/4=180224,7=2,8=2,9=2,10=2,28=1/1;
 7/4=180224,30=1/1,2,3,16;
 1/4=180224,18=20,19=15,26=3/3(2);
 2/4=180224,9=110,15=1/2;
 99/4=180224/99;
 2/4=180224,9=110,15=1/2;
 3/4=180224,5=44,7=101,11=2,14=-2,25=1,30=1,71=1,74=-55/1,2,3;
 4/4=180224,5=5,16=3,69=1/1;
 5/4=180224,5=2,8=3,13=1,38=5/2,8;
 7/4=180224,30=1/1,2,3,16;
 1/4=180224,18=20,19=15,26=3/3(-5);
 2/4=180224,9=110,15=1/2;
 6/4=180224,7=2,8=2,9=2,10=2,19=2,28=1/1;
 99/4=180224,9=1/99;
 Structure from the checkpoint file:  "/dev/shm/lmethyllactate_tsa_ts_ircr_opt.chk"
 ----------------------------------------------
 flip to get L; baed on methyllactate_ts_ts.log
 ----------------------------------------------
 Charge =  0 Multiplicity = 1
 Redundant internal coordinates found in file.  (old form).
 C,0,0.0358850184,-0.4256780042,0.0787389864
 O,0,-0.5131621962,-1.4911535963,-0.025092362
 O,0,0.6237215754,0.0047195553,1.1909282496
 C,0,0.5697944104,-0.8925451781,2.3019051813
 H,0,1.0614485278,-1.8307766967,2.0503078371
 H,0,1.088533129,-0.3917646228,3.1129829253
 H,0,-0.4654763277,-1.0939624658,2.5718356173
 C,0,0.1238547135,0.5772189045,-1.0557546117
 H,0,1.1886016975,0.7784377373,-1.2206576819
 O,0,-0.4331907725,0.0197138498,-2.2144389779
 C,0,-0.5837126204,1.8753692614,-0.6882212462
 H,0,-0.5360905447,2.5528512181,-1.5390198989
 H,0,-1.6325664222,1.6765711998,-0.4652039055
 H,0,-0.1129257104,2.3462695776,0.1734548516
 H,0,-0.7671917993,-0.8574172681,-1.9814172226
 Recover connectivity data from disk.

 GradGradGradGradGradGradGradGradGradGradGradGradGradGradGradGradGradGrad
 Berny optimization.
 Initialization pass.
 Force constant matrix read from checkpoint file:
 "/dev/shm/lmethyllactate_tsa_ts_ircr_opt.chk"
                           ----------------------------
                           !    Initial Parameters    !
                           ! (Angstroms and Degrees)  !
 --------------------------                            --------------------------
 ! Name  Definition              Value          Derivative Info.                !
 --------------------------------------------------------------------------------
 ! R1    R(1,2)                  1.2031         D2E/DX2 =    0.875              !
 ! R2    R(1,3)                  1.3296         D2E/DX2 =    0.4534             !
 ! R3    R(1,8)                  1.5168         D2E/DX2 =    0.2917             !
 ! R4    R(3,4)                  1.4291         D2E/DX2 =    0.3478             !
 ! R5    R(4,5)                  1.0887         D2E/DX2 =    0.3486             !
 ! R6    R(4,6)                  1.0852         D2E/DX2 =    0.3575             !
 ! R7    R(4,7)                  1.0887         D2E/DX2 =    0.3486             !
 ! R8    R(8,9)                  1.0961         D2E/DX2 =    0.3291             !
 ! R9    R(8,10)                 1.4013         D2E/DX2 =    0.3042             !
 ! R10   R(8,11)                 1.5235         D2E/DX2 =    0.1921             !
 ! R11   R(8,12)                 2.1383         D2E/DX2 =    0.0523             !
 ! R12   R(10,12)                2.6237         D2E/DX2 =    0.0335             !
 ! R13   R(10,15)                0.9671         D2E/DX2 =    0.5174             !
 ! R14   R(11,12)                1.0886         D2E/DX2 =    0.2666             !
 ! R15   R(11,13)                1.0906         D2E/DX2 =    0.3448             !
 ! R16   R(11,14)                1.089          D2E/DX2 =    0.3493             !
 ! A1    A(2,1,3)              124.1            D2E/DX2 =    0.2202             !
 ! A2    A(2,1,8)              123.1942         D2E/DX2 =    0.1814             !
 ! A3    A(3,1,8)              112.7053         D2E/DX2 =    0.1709             !
 ! A4    A(1,3,4)              115.4913         D2E/DX2 =    0.3096             !
 ! A5    A(3,4,5)              110.1441         D2E/DX2 =    0.1455             !
 ! A6    A(3,4,6)              105.858          D2E/DX2 =    0.1436             !
 ! A7    A(3,4,7)              110.1696         D2E/DX2 =    0.1453             !
 ! A8    A(5,4,6)              110.7643         D2E/DX2 =    0.0693             !
 ! A9    A(5,4,7)              109.1048         D2E/DX2 =    0.0708             !
 ! A10   A(6,4,7)              110.77           D2E/DX2 =    0.0692             !
 ! A11   A(1,8,9)              106.8733         D2E/DX2 =    0.0239             !
 ! A12   A(1,8,10)             109.4114         D2E/DX2 =    0.0569             !
 ! A13   A(1,8,11)             110.8567         D2E/DX2 =    0.0495             !
 ! A14   A(1,8,12)             139.6458         D2E/DX2 =    0.0353             !
 ! A15   A(9,8,10)             109.5601         D2E/DX2 =    0.0305             !
 ! A16   A(9,8,11)             109.3319         D2E/DX2 =    0.0255             !
 ! A17   A(9,8,12)              95.52           D2E/DX2 =    0.0153             !
 ! A18   A(10,8,11)            110.7236         D2E/DX2 =    0.0444             !
 ! A19   A(8,10,15)            107.3917         D2E/DX2 =    0.0487             !
 ! A20   A(12,10,15)           143.143          D2E/DX2 =    0.0226             !
 ! A21   A(8,11,13)            109.9187         D2E/DX2 =    0.0518             !
 ! A22   A(8,11,14)            111.0127         D2E/DX2 =    0.0596             !
 ! A23   A(12,11,13)           108.381          D2E/DX2 =    0.0512             !
 ! A24   A(12,11,14)           109.2921         D2E/DX2 =    0.0482             !
 ! A25   A(13,11,14)           109.4386         D2E/DX2 =    0.0275             !
 ! A26   A(10,12,11)            66.5501         D2E/DX2 =    0.0511             !
 ! D1    D(2,1,3,4)             -0.0553         D2E/DX2 =    0.0155             !
 ! D2    D(8,1,3,4)            179.6845         D2E/DX2 =    0.0151             !
 ! D3    D(2,1,8,9)           -122.8176         D2E/DX2 =    0.0141             !
 ! D4    D(2,1,8,10)            -4.2742         D2E/DX2 =    0.0171             !
 ! D5    D(2,1,8,11)           118.1207         D2E/DX2 =    0.0134             !
 ! D6    D(2,1,8,12)           116.3711         D2E/DX2 =    0.0125             !
 ! D7    D(3,1,8,9)             57.4398         D2E/DX2 =    0.0145             !
 ! D8    D(3,1,8,10)           175.9832         D2E/DX2 =    0.0164             !
 ! D9    D(3,1,8,11)           -61.6219         D2E/DX2 =    0.0137             !
 ! D10   D(3,1,8,12)           -63.3715         D2E/DX2 =    0.0139             !
 ! D11   D(1,3,4,5)             60.225          D2E/DX2 =    0.0243             !
 ! D12   D(1,3,4,6)           -179.9888         D2E/DX2 =    0.0245             !
 ! D13   D(1,3,4,7)            -60.1821         D2E/DX2 =    0.0241             !
 ! D14   D(1,8,10,15)            2.305          D2E/DX2 =    0.0128             !
 ! D15   D(9,8,10,15)          119.164          D2E/DX2 =    0.0107             !
 ! D16   D(11,8,10,15)        -120.1695         D2E/DX2 =    0.0166             !
 ! D17   D(1,8,11,13)          -59.1474         D2E/DX2 =    0.0166             !
 ! D18   D(1,8,11,14)           62.0761         D2E/DX2 =    0.0167             !
 ! D19   D(9,8,11,13)         -176.7173         D2E/DX2 =    0.0155             !
 ! D20   D(9,8,11,14)          -55.4938         D2E/DX2 =    0.0165             !
 ! D21   D(10,8,11,13)          62.4806         D2E/DX2 =    0.0219             !
 ! D22   D(10,8,11,14)        -176.2959         D2E/DX2 =    0.0197             !
 ! D23   D(15,10,12,11)         35.2347         D2E/DX2 =    0.0237             !
 ! D24   D(13,11,12,10)        -92.6236         D2E/DX2 =    0.032              !
 ! D25   D(14,11,12,10)        148.176          D2E/DX2 =    0.0306             !
 --------------------------------------------------------------------------------
 Trust Radius=3.00D-01 FncErr=1.00D-07 GrdErr=1.00D-06 EigMax=2.50D+02 EigMin=1.00D-04
 Number of steps in this run=     77 maximum allowed number of steps=    100.
 GradGradGradGradGradGradGradGradGradGradGradGradGradGradGradGradGradGrad

                          Input orientation:                          
 ---------------------------------------------------------------------
 Center     Atomic      Atomic             Coordinates (Angstroms)
 Number     Number       Type             X           Y           Z
 ---------------------------------------------------------------------
      1          6           0        0.035885   -0.425678    0.078739
      2          8           0       -0.513162   -1.491154   -0.025092
      3          8           0        0.623722    0.004720    1.190928
      4          6           0        0.569794   -0.892545    2.301905
      5          1           0        1.061449   -1.830777    2.050308
      6          1           0        1.088533   -0.391765    3.112983
      7          1           0       -0.465476   -1.093962    2.571836
      8          6           0        0.123855    0.577219   -1.055755
      9          1           0        1.188602    0.778438   -1.220658
     10          8           0       -0.433191    0.019714   -2.214439
     11          6           0       -0.583713    1.875369   -0.688221
     12          1           0       -0.536091    2.552851   -1.539020
     13          1           0       -1.632566    1.676571   -0.465204
     14          1           0       -0.112926    2.346270    0.173455
     15          1           0       -0.767192   -0.857417   -1.981417
 ---------------------------------------------------------------------
                    Distance matrix (angstroms):
                    1          2          3          4          5
     1  C    0.000000
     2  O    1.203109   0.000000
     3  O    1.329571   2.238045   0.000000
     4  C    2.333558   2.635535   1.429077   0.000000
     5  H    2.629290   2.627171   2.073448   1.088716   0.000000
     6  H    3.211830   3.690745   2.016815   1.085227   1.789069
     7  H    2.629353   2.627560   2.073731   1.088677   1.773805
     8  C    1.516778   2.397127   2.371752   3.692282   4.040439
     9  H    2.113547   3.078380   2.594894   3.947601   4.186094
    10  O    2.382661   2.661269   3.565644   4.715460   4.883270
    11  C    2.503387   3.431937   2.913491   4.234712   4.893017
    12  H    3.437432   4.318157   3.910340   5.276973   5.886561
    13  H    2.738440   3.388398   3.260168   4.371229   5.087927
    14  H    2.777555   3.863344   2.657209   3.935267   4.727520
    15  H    2.252904   2.072042   3.569551   4.487273   4.532787
                    6          7          8          9         10
     6  H    0.000000
     7  H    1.789097   0.000000
     8  C    4.387244   4.037272   0.000000
     9  H    4.489970   4.541460   1.096069   0.000000
    10  O    5.555752   4.914239   1.401307   2.047797   0.000000
    11  C    4.731327   4.411222   1.523459   2.151243   2.407375
    12  H    5.740322   5.495759   2.138269   2.494887   2.623655
    13  H    4.948315   4.273355   2.154609   3.055543   2.691375
    14  H    4.192989   4.208529   2.167155   2.468931   3.349249
    15  H    5.441825   4.569365   1.925875   2.660809   0.967065
                   11         12         13         14         15
    11  C    0.000000
    12  H    1.088627   0.000000
    13  H    1.090574   1.767260   0.000000
    14  H    1.088978   1.776039   1.779238   0.000000
    15  H    3.028885   3.446600   3.077153   3.916012   0.000000
 Symmetry turned off by external request.
 Stoichiometry    C4H8O3
 Framework group  C1[X(C4H8O3)]
 Deg. of freedom    39
 Full point group                 C1      NOp   1
 Rotational constants (GHZ):           4.9180633           1.8887291           1.4844557
 Standard basis: def2TZVP (5D, 7F)
   265 basis functions,   421 primitive gaussians,   300 cartesian basis functions
    28 alpha electrons       28 beta electrons
       nuclear repulsion energy       326.3350676536 Hartrees.
 NAtoms=   15 NActive=   15 NUniq=   15 SFac= 1.00D+00 NAtFMM=   60 NAOKFM=F Big=F
 Integral buffers will be    131072 words long.
 Raffenetti 2 integral format.
 Two-electron integral symmetry is turned off.
 One-electron integrals computed using PRISM.
   1 Symmetry operations used in ECPInt.
 ECPInt:  NShTT=    5995 NPrTT=   17944 LenC2=    5879 LenP2D=   14191.
 LDataN:  DoStor=T MaxTD1= 6 Len=  172
 NBasis=   265 RedAO= T EigKep=  1.97D-04  NBF=   265
 NBsUse=   265 1.00D-06 EigRej= -1.00D+00 NBFU=   265
 Initial guess from the checkpoint file:  "/dev/shm/lmethyllactate_tsa_ts_ircr_opt.chk"
 B after Tr=     0.000000    0.000000    0.000000
         Rot=    1.000000    0.000000    0.000000    0.000000 Ang=   0.00 deg.
 Requested convergence on RMS density matrix=1.00D-08 within  32 cycles.
 Requested convergence on MAX density matrix=1.00D-06.
 Requested convergence on             energy=1.00D-06.
 No special actions if energy rises.
 SCF Done:  E(RM062X) =  -382.917678517     A.U. after    1 cycles
            NFock=  1  Conv=0.93D-09     -V/T= 2.0044
 QCSCF skips out because SCF is already converged.

 **********************************************************************

            Population analysis using the SCF Density.

 **********************************************************************

 Alpha  occ. eigenvalues --  -19.68855 -19.63395 -19.62195 -10.68122 -10.60574
 Alpha  occ. eigenvalues --  -10.60239 -10.53439  -1.25811  -1.17050  -1.14371
 Alpha  occ. eigenvalues --   -0.88687  -0.82796  -0.73731  -0.66519  -0.63911
 Alpha  occ. eigenvalues --   -0.59484  -0.58316  -0.54871  -0.53017  -0.50164
 Alpha  occ. eigenvalues --   -0.47565  -0.46493  -0.45548  -0.44527  -0.42368
 Alpha  occ. eigenvalues --   -0.39579  -0.37070  -0.35516
 Alpha virt. eigenvalues --    0.03835   0.06564   0.09306   0.11072   0.11373
 Alpha virt. eigenvalues --    0.12039   0.12966   0.14907   0.15476   0.15823
 Alpha virt. eigenvalues --    0.18857   0.20717   0.21872   0.22925   0.23507
 Alpha virt. eigenvalues --    0.25273   0.27610   0.29585   0.31682   0.32126
 Alpha virt. eigenvalues --    0.33716   0.35269   0.37063   0.39378   0.40094
 Alpha virt. eigenvalues --    0.40301   0.42400   0.42923   0.43678   0.46137
 Alpha virt. eigenvalues --    0.47059   0.47943   0.48504   0.49667   0.50094
 Alpha virt. eigenvalues --    0.52061   0.53001   0.55774   0.58125   0.58723
 Alpha virt. eigenvalues --    0.60591   0.61806   0.63262   0.64103   0.65134
 Alpha virt. eigenvalues --    0.69925   0.71425   0.73781   0.77501   0.81897
 Alpha virt. eigenvalues --    0.82993   0.85811   0.87724   0.89628   0.90798
 Alpha virt. eigenvalues --    0.91418   0.93324   0.97351   1.00384   1.01026
 Alpha virt. eigenvalues --    1.02923   1.07034   1.07731   1.10677   1.12345
 Alpha virt. eigenvalues --    1.16496   1.20720   1.21723   1.26670   1.31833
 Alpha virt. eigenvalues --    1.37016   1.39481   1.47907   1.48746   1.49853
 Alpha virt. eigenvalues --    1.50381   1.53751   1.54321   1.56584   1.57768
 Alpha virt. eigenvalues --    1.58728   1.60684   1.61448   1.63007   1.64228
 Alpha virt. eigenvalues --    1.67073   1.70591   1.73737   1.75837   1.77181
 Alpha virt. eigenvalues --    1.81524   1.84397   1.86351   1.87613   1.88663
 Alpha virt. eigenvalues --    1.94343   1.96060   1.98700   2.00639   2.03654
 Alpha virt. eigenvalues --    2.05816   2.08477   2.11829   2.12269   2.17048
 Alpha virt. eigenvalues --    2.18446   2.22071   2.24053   2.25069   2.26745
 Alpha virt. eigenvalues --    2.30331   2.30997   2.32680   2.33987   2.35243
 Alpha virt. eigenvalues --    2.37248   2.37899   2.42593   2.43958   2.45930
 Alpha virt. eigenvalues --    2.49012   2.53396   2.54581   2.57000   2.58060
 Alpha virt. eigenvalues --    2.59200   2.60025   2.63932   2.64039   2.70987
 Alpha virt. eigenvalues --    2.74261   2.76136   2.79385   2.80535   2.82012
 Alpha virt. eigenvalues --    2.85236   2.90124   2.94714   2.96832   2.98876
 Alpha virt. eigenvalues --    3.02573   3.02881   3.05416   3.06732   3.09591
 Alpha virt. eigenvalues --    3.14114   3.16293   3.16746   3.18131   3.21943
 Alpha virt. eigenvalues --    3.23917   3.25209   3.27909   3.28599   3.31884
 Alpha virt. eigenvalues --    3.33755   3.34600   3.36371   3.38757   3.40216
 Alpha virt. eigenvalues --    3.42012   3.45008   3.47500   3.48229   3.51478
 Alpha virt. eigenvalues --    3.55111   3.57623   3.58720   3.60125   3.61702
 Alpha virt. eigenvalues --    3.69236   3.71548   3.78205   3.81455   3.88658
 Alpha virt. eigenvalues --    3.95180   3.97527   4.03512   4.08580   4.12039
 Alpha virt. eigenvalues --    4.17453   4.19168   4.27485   4.33958   4.37042
 Alpha virt. eigenvalues --    4.37927   4.42814   4.47132   4.49398   4.55435
 Alpha virt. eigenvalues --    4.70009   4.76305   4.81179   4.89051   5.17011
 Alpha virt. eigenvalues --    5.22978   5.27410   5.32937   5.35980   5.43970
 Alpha virt. eigenvalues --    5.48769   5.50980   5.63196   5.66918   5.76407
 Alpha virt. eigenvalues --    5.78098   5.79062   5.92266   5.98402   6.07011
 Alpha virt. eigenvalues --    6.14233   6.19095   6.25792   6.34171   6.39047
 Alpha virt. eigenvalues --    6.47276   6.49361   6.63402   6.63785   6.73174
 Alpha virt. eigenvalues --    6.75630   6.79772   6.85143   6.88444   6.95486
 Alpha virt. eigenvalues --    7.00026   7.12390   7.16294   7.27695   7.36673
 Alpha virt. eigenvalues --   22.43063  22.44021  22.69065  23.44913  43.97225
 Alpha virt. eigenvalues --   44.15572  44.25533
          Condensed to atoms (all electrons):
               1          2          3          4          5          6
     1  C    4.555687   0.582705   0.340853  -0.050520  -0.010992   0.005724
     2  O    0.582705   7.898246  -0.076967   0.001686   0.003685   0.001653
     3  O    0.340853  -0.076967   7.973328   0.209847  -0.033017  -0.030424
     4  C   -0.050520   0.001686   0.209847   4.848011   0.423892   0.395188
     5  H   -0.010992   0.003685  -0.033017   0.423892   0.527220  -0.025065
     6  H    0.005724   0.001653  -0.030424   0.395188  -0.025065   0.529074
     7  H   -0.006772   0.004071  -0.036396   0.419590  -0.040470  -0.024856
     8  C    0.334350  -0.059032  -0.101792   0.002234  -0.000964   0.000661
     9  H   -0.053583   0.002070   0.000203  -0.001281  -0.000030  -0.000063
    10  O   -0.034812  -0.017875   0.003869   0.000284  -0.000035   0.000006
    11  C    0.000338  -0.005243   0.015794   0.001260   0.000195   0.000085
    12  H    0.010304  -0.000391   0.000073   0.000040   0.000009   0.000003
    13  H   -0.003906   0.002598  -0.001413  -0.000341  -0.000012  -0.000017
    14  H   -0.017201   0.000459   0.004313  -0.000254   0.000041  -0.000190
    15  H   -0.011093   0.026701   0.001609  -0.000109  -0.000015  -0.000009
               7          8          9         10         11         12
     1  C   -0.006772   0.334350  -0.053583  -0.034812   0.000338   0.010304
     2  O    0.004071  -0.059032   0.002070  -0.017875  -0.005243  -0.000391
     3  O   -0.036396  -0.101792   0.000203   0.003869   0.015794   0.000073
     4  C    0.419590   0.002234  -0.001281   0.000284   0.001260   0.000040
     5  H   -0.040470  -0.000964  -0.000030  -0.000035   0.000195   0.000009
     6  H   -0.024856   0.000661  -0.000063   0.000006   0.000085   0.000003
     7  H    0.529840   0.001272   0.000051  -0.000038  -0.001069  -0.000011
     8  C    0.001272   5.009153   0.474508   0.321274   0.096750  -0.042531
     9  H    0.000051   0.474508   0.591047  -0.047377  -0.115639  -0.004870
    10  O   -0.000038   0.321274  -0.047377   8.017387  -0.091750   0.002551
    11  C   -0.001069   0.096750  -0.115639  -0.091750   5.352020   0.409940
    12  H   -0.000011  -0.042531  -0.004870   0.002551   0.409940   0.512904
    13  H    0.000135  -0.011075   0.010887   0.010360   0.354546  -0.020646
    14  H    0.000119  -0.007785   0.003994   0.005561   0.371858  -0.019197
    15  H   -0.000025  -0.046344   0.006581   0.307339   0.002703  -0.000726
              13         14         15
     1  C   -0.003906  -0.017201  -0.011093
     2  O    0.002598   0.000459   0.026701
     3  O   -0.001413   0.004313   0.001609
     4  C   -0.000341  -0.000254  -0.000109
     5  H   -0.000012   0.000041  -0.000015
     6  H   -0.000017  -0.000190  -0.000009
     7  H    0.000135   0.000119  -0.000025
     8  C   -0.011075  -0.007785  -0.046344
     9  H    0.010887   0.003994   0.006581
    10  O    0.010360   0.005561   0.307339
    11  C    0.354546   0.371858   0.002703
    12  H   -0.020646  -0.019197  -0.000726
    13  H    0.538414  -0.017758   0.001393
    14  H   -0.017758   0.532299  -0.000458
    15  H    0.001393  -0.000458   0.373817
 Mulliken charges:
               1
     1  C    0.358917
     2  O   -0.364365
     3  O   -0.269880
     4  C   -0.249529
     5  H    0.155560
     6  H    0.148229
     7  H    0.154560
     8  C    0.029323
     9  H    0.133499
    10  O   -0.476746
    11  C   -0.391786
    12  H    0.152547
    13  H    0.136835
    14  H    0.144199
    15  H    0.338635
 Sum of Mulliken charges =  -0.00000
 Mulliken charges with hydrogens summed into heavy atoms:
               1
     1  C    0.358917
     2  O   -0.364365
     3  O   -0.269880
     4  C    0.208821
     8  C    0.162822
    10  O   -0.138111
    11  C    0.041796
 Electronic spatial extent (au):  <R**2>=            831.3419
 Charge=              0.0000 electrons
 Dipole moment (field-independent basis, Debye):
    X=              0.9477    Y=              0.6380    Z=              2.6493  Tot=              2.8851
 Quadrupole moment (field-independent basis, Debye-Ang):
   XX=            -41.6566   YY=            -42.8299   ZZ=            -42.2013
   XY=             -1.4087   XZ=              0.1120   YZ=             -1.3564
 Traceless Quadrupole moment (field-independent basis, Debye-Ang):
   XX=              0.5727   YY=             -0.6006   ZZ=              0.0279
   XY=             -1.4087   XZ=              0.1120   YZ=             -1.3564
 Octapole moment (field-independent basis, Debye-Ang**2):
  XXX=              3.9482  YYY=              5.0221  ZZZ=             34.1259  XYY=              4.3453
  XXY=             -1.3525  XXZ=              1.2748  XZZ=              6.0346  YZZ=             -9.6390
  YYZ=             -1.5584  XYZ=             -4.0209
 Hexadecapole moment (field-independent basis, Debye-Ang**3):
 XXXX=           -119.1634 YYYY=           -362.2937 ZZZZ=           -584.7889 XXXY=             21.8331
 XXXZ=            -65.8726 YYYX=             16.8771 YYYZ=             81.2361 ZZZX=            -56.8782
 ZZZY=             84.8297 XXYY=            -79.1574 XXZZ=           -111.2091 YYZZ=           -139.9065
 XXYZ=             29.2076 YYXZ=            -16.3975 ZZXY=             12.4900
 N-N= 3.263350676536D+02 E-N=-1.550011745721D+03  KE= 3.812367758405D+02
   1 Symmetry operations used in ECPInt.
 ECPInt:  NShTT=    5995 NPrTT=   17944 LenC2=    5879 LenP2D=   14191.
 LDataN:  DoStor=T MaxTD1= 7 Len=  274
 Calling FoFJK, ICntrl=      2127 FMM=F ISym2X=0 I1Cent= 0 IOpClX= 0 NMat=1 NMatS=1 NMatT=0.
 -------------------------------------------------------------------
 Center     Atomic                   Forces (Hartrees/Bohr)
 Number     Number              X              Y              Z
 -------------------------------------------------------------------
      1        6           0.000009193   -0.000001437   -0.000002897
      2        8          -0.000001449   -0.000002088   -0.000007067
      3        8          -0.000012780    0.000008871    0.000011657
      4        6           0.000010050   -0.000003903   -0.000009442
      5        1          -0.000002621   -0.000000407   -0.000001987
      6        1           0.000001002   -0.000000015   -0.000001553
      7        1          -0.000001106    0.000001055    0.000002138
      8        6           0.000005500   -0.000010533   -0.000004001
      9        1           0.000001609   -0.000000570   -0.000000457
     10        8           0.000001462   -0.000000927    0.000002551
     11        6          -0.000008683    0.000009033    0.000009149
     12        1          -0.000002800   -0.000000805   -0.000002563
     13        1          -0.000004834   -0.000004399   -0.000000240
     14        1          -0.000003244   -0.000003500   -0.000001548
     15        1           0.000008702    0.000009626    0.000006260
 -------------------------------------------------------------------
 Cartesian Forces:  Max     0.000012780 RMS     0.000005690

 GradGradGradGradGradGradGradGradGradGradGradGradGradGradGradGradGradGrad
 Berny optimization.
 FormGI is forming the generalized inverse of G from B-inverse, IUseBI=4.
 Internal  Forces:  Max     0.000013105 RMS     0.000003909
 Search for a local minimum.
 Step number   1 out of a maximum of   77
 All quantities printed in internal units (Hartrees-Bohrs-Radians)
 Mixed Optimization -- En-DIIS/RFO-DIIS
 Second derivative matrix not updated -- first step.
 ITU=  0
     Eigenvalues ---    0.00043   0.00268   0.00323   0.00572   0.01672
     Eigenvalues ---    0.02211   0.02552   0.03879   0.04554   0.05067
     Eigenvalues ---    0.05895   0.06162   0.08367   0.08502   0.08542
     Eigenvalues ---    0.09635   0.10709   0.13309   0.13431   0.15378
     Eigenvalues ---    0.18959   0.18991   0.21079   0.24847   0.25506
     Eigenvalues ---    0.26379   0.32029   0.32687   0.34552   0.34658
     Eigenvalues ---    0.34720   0.35140   0.35562   0.36041   0.38518
     Eigenvalues ---    0.39898   0.50092   0.51954   0.90544
 RFO step:  Lambda=-6.54820239D-08 EMin= 4.26408137D-04
 Linear search not attempted -- first point.
 Iteration  1 RMS(Cart)=  0.00104266 RMS(Int)=  0.00000107
 Iteration  2 RMS(Cart)=  0.00000110 RMS(Int)=  0.00000004
 Iteration  3 RMS(Cart)=  0.00000000 RMS(Int)=  0.00000004
 Variable       Old X    -DE/DX   Delta X   Delta X   Delta X     New X
                                 (Linear)    (Quad)   (Total)
    R1        2.27355   0.00000   0.00000   0.00001   0.00001   2.27355
    R2        2.51252   0.00000   0.00000  -0.00000  -0.00000   2.51252
    R3        2.86630  -0.00001   0.00000  -0.00002  -0.00002   2.86627
    R4        2.70056  -0.00001   0.00000  -0.00001  -0.00001   2.70055
    R5        2.05738  -0.00000   0.00000  -0.00002  -0.00002   2.05736
    R6        2.05078  -0.00000   0.00000  -0.00000  -0.00000   2.05078
    R7        2.05730   0.00000   0.00000   0.00002   0.00002   2.05732
    R8        2.07127   0.00000   0.00000  -0.00002  -0.00002   2.07125
    R9        2.64809  -0.00001   0.00000  -0.00002  -0.00002   2.64807
   R10        2.87892   0.00001   0.00000   0.00005   0.00005   2.87897
   R11        4.04074   0.00000   0.00000   0.00001   0.00001   4.04075
   R12        4.95799  -0.00000   0.00000  -0.00002  -0.00002   4.95797
   R13        1.82749  -0.00001   0.00000  -0.00001  -0.00001   1.82748
   R14        2.05721   0.00000   0.00000   0.00001   0.00001   2.05721
   R15        2.06089   0.00000   0.00000   0.00001   0.00001   2.06090
   R16        2.05787  -0.00000   0.00000  -0.00001  -0.00001   2.05786
    A1        2.16595   0.00001   0.00000   0.00002   0.00002   2.16597
    A2        2.15014  -0.00001   0.00000  -0.00003  -0.00003   2.15011
    A3        1.96708   0.00000   0.00000   0.00001   0.00001   1.96709
    A4        2.01570  -0.00001   0.00000  -0.00001  -0.00001   2.01569
    A5        1.92238   0.00000   0.00000   0.00004   0.00004   1.92242
    A6        1.84757  -0.00000   0.00000  -0.00001  -0.00001   1.84756
    A7        1.92282  -0.00000   0.00000  -0.00003  -0.00003   1.92279
    A8        1.93320   0.00000   0.00000   0.00005   0.00005   1.93326
    A9        1.90424   0.00000   0.00000   0.00000   0.00000   1.90424
   A10        1.93330  -0.00000   0.00000  -0.00005  -0.00005   1.93325
   A11        1.86529   0.00000   0.00000   0.00008   0.00008   1.86537
   A12        1.90959  -0.00000   0.00000  -0.00003  -0.00003   1.90956
   A13        1.93482  -0.00000   0.00000  -0.00010  -0.00010   1.93471
   A14        2.43728   0.00000   0.00000  -0.00010  -0.00010   2.43718
   A15        1.91218  -0.00000   0.00000  -0.00004  -0.00004   1.91215
   A16        1.90820   0.00000   0.00000   0.00006   0.00006   1.90827
   A17        1.66714   0.00000   0.00000   0.00009   0.00009   1.66723
   A18        1.93249   0.00000   0.00000   0.00003   0.00003   1.93252
   A19        1.87434  -0.00001   0.00000  -0.00009  -0.00009   1.87425
   A20        2.49832  -0.00000   0.00000  -0.00079  -0.00079   2.49753
   A21        1.91844  -0.00000   0.00000  -0.00003  -0.00003   1.91842
   A22        1.93754  -0.00000   0.00000  -0.00000  -0.00000   1.93753
   A23        1.89161   0.00000   0.00000   0.00001   0.00001   1.89161
   A24        1.90751   0.00000   0.00000   0.00003   0.00003   1.90754
   A25        1.91006   0.00000   0.00000   0.00002   0.00002   1.91009
   A26        1.16152  -0.00000   0.00000   0.00005   0.00005   1.16156
    D1       -0.00097   0.00000   0.00000   0.00032   0.00032  -0.00064
    D2        3.13609   0.00000   0.00000   0.00023   0.00023   3.13631
    D3       -2.14357   0.00000   0.00000  -0.00056  -0.00056  -2.14413
    D4       -0.07460   0.00000   0.00000  -0.00057  -0.00057  -0.07517
    D5        2.06160  -0.00000   0.00000  -0.00063  -0.00063   2.06097
    D6        2.03106  -0.00000   0.00000  -0.00075  -0.00075   2.03031
    D7        1.00251   0.00000   0.00000  -0.00046  -0.00046   1.00205
    D8        3.07149  -0.00000   0.00000  -0.00048  -0.00048   3.07101
    D9       -1.07550  -0.00000   0.00000  -0.00053  -0.00053  -1.07604
   D10       -1.10604  -0.00000   0.00000  -0.00065  -0.00065  -1.10669
   D11        1.05112  -0.00001   0.00000  -0.00244  -0.00244   1.04868
   D12       -3.14140  -0.00001   0.00000  -0.00236  -0.00236   3.13943
   D13       -1.05038  -0.00001   0.00000  -0.00245  -0.00245  -1.05283
   D14        0.04023   0.00000   0.00000   0.00082   0.00082   0.04105
   D15        2.07980  -0.00000   0.00000   0.00087   0.00087   2.08068
   D16       -2.09735   0.00000   0.00000   0.00095   0.00095  -2.09641
   D17       -1.03232   0.00000   0.00000   0.00014   0.00014  -1.03218
   D18        1.08343   0.00000   0.00000   0.00015   0.00015   1.08358
   D19       -3.08430   0.00000   0.00000   0.00007   0.00007  -3.08423
   D20       -0.96855   0.00000   0.00000   0.00008   0.00008  -0.96847
   D21        1.09049  -0.00000   0.00000   0.00005   0.00005   1.09055
   D22       -3.07694  -0.00000   0.00000   0.00006   0.00006  -3.07688
   D23        0.61496  -0.00001   0.00000   0.00085   0.00085   0.61581
   D24       -1.61659   0.00000   0.00000   0.00000   0.00000  -1.61659
   D25        2.58616  -0.00000   0.00000  -0.00005  -0.00005   2.58611
         Item               Value     Threshold  Converged?
 Maximum Force            0.000013     0.000450     YES
 RMS     Force            0.000004     0.000300     YES
 Maximum Displacement     0.003857     0.001800     NO 
 RMS     Displacement     0.001043     0.001200     YES
 Predicted change in Energy=-3.274101D-08
 GradGradGradGradGradGradGradGradGradGradGradGradGradGradGradGradGradGrad

                          Input orientation:                          
 ---------------------------------------------------------------------
 Center     Atomic      Atomic             Coordinates (Angstroms)
 Number     Number       Type             X           Y           Z
 ---------------------------------------------------------------------
      1          6           0        0.035966   -0.425536    0.078807
      2          8           0       -0.513225   -1.490934   -0.025104
      3          8           0        0.623686    0.004806    1.191078
      4          6           0        0.569803   -0.892599    2.301933
      5          1           0        1.059407   -1.831655    2.049455
      6          1           0        1.090554   -0.392872    3.112370
      7          1           0       -0.465444   -1.092214    2.573329
      8          6           0        0.124136    0.577350   -1.055665
      9          1           0        1.188867    0.778923   -1.220177
     10          8           0       -0.432237    0.019617   -2.214551
     11          6           0       -0.584094    1.875237   -0.688359
     12          1           0       -0.536485    2.552701   -1.539176
     13          1           0       -1.632938    1.675981   -0.465677
     14          1           0       -0.113768    2.346335    0.173455
     15          1           0       -0.766708   -0.857286   -1.981369
 ---------------------------------------------------------------------
                    Distance matrix (angstroms):
                    1          2          3          4          5
     1  C    0.000000
     2  O    1.203113   0.000000
     3  O    1.329570   2.238058   0.000000
     4  C    2.333542   2.635537   1.429069   0.000000
     5  H    2.628318   2.625463   2.073464   1.088707   0.000000
     6  H    3.211810   3.690744   2.016799   1.085227   1.789094
     7  H    2.630306   2.629281   2.073711   1.088686   1.773806
     8  C    1.516767   2.397099   2.371753   3.692267   4.039778
     9  H    2.113590   3.078566   2.594771   3.947466   4.185973
    10  O    2.382618   2.661203   3.565600   4.715385   4.882004
    11  C    2.503313   3.431623   2.913679   4.234884   4.892624
    12  H    3.437364   4.317863   3.910505   5.277129   5.886232
    13  H    2.738262   3.387804   3.260370   4.371423   5.087055
    14  H    2.777526   3.863111   2.657471   3.935528   4.727718
    15  H    2.252780   2.071892   3.569428   4.487113   4.531184
                    6          7          8          9         10
     6  H    0.000000
     7  H    1.789071   0.000000
     8  C    4.387233   4.037901   0.000000
     9  H    4.489290   4.541870   1.096061   0.000000
    10  O    5.555639   4.915391   1.401297   2.047756   0.000000
    11  C    4.732262   4.411173   1.523487   2.151308   2.407416
    12  H    5.741127   5.495739   2.138274   2.494973   2.623646
    13  H    4.949746   4.273348   2.154619   3.055579   2.691428
    14  H    4.194146   4.207931   2.167174   2.468977   3.349271
    15  H    5.441625   4.570692   1.925802   2.660990   0.967060
                   11         12         13         14         15
    11  C    0.000000
    12  H    1.088630   0.000000
    13  H    1.090579   1.767271   0.000000
    14  H    1.088974   1.776058   1.779253   0.000000
    15  H    3.028516   3.446237   3.076543   3.915711   0.000000
 Symmetry turned off by external request.
 Stoichiometry    C4H8O3
 Framework group  C1[X(C4H8O3)]
 Deg. of freedom    39
 Full point group                 C1      NOp   1
 Rotational constants (GHZ):           4.9182567           1.8886381           1.4845340
 Standard basis: def2TZVP (5D, 7F)
   265 basis functions,   421 primitive gaussians,   300 cartesian basis functions
    28 alpha electrons       28 beta electrons
       nuclear repulsion energy       326.3364214997 Hartrees.
 NAtoms=   15 NActive=   15 NUniq=   15 SFac= 1.00D+00 NAtFMM=   60 NAOKFM=F Big=F
 Integral buffers will be    131072 words long.
 Raffenetti 2 integral format.
 Two-electron integral symmetry is turned off.
 One-electron integrals computed using PRISM.
   1 Symmetry operations used in ECPInt.
 ECPInt:  NShTT=    5995 NPrTT=   17944 LenC2=    5879 LenP2D=   14191.
 LDataN:  DoStor=T MaxTD1= 6 Len=  172
 NBasis=   265 RedAO= T EigKep=  1.97D-04  NBF=   265
 NBsUse=   265 1.00D-06 EigRej= -1.00D+00 NBFU=   265
 Initial guess from the checkpoint file:  "/dev/shm/lmethyllactate_tsa_ts_ircr_opt.chk"
 B after Tr=     0.000186    0.000069    0.000023
         Rot=    1.000000   -0.000003    0.000071   -0.000043 Ang=  -0.01 deg.
 Requested convergence on RMS density matrix=1.00D-08 within  32 cycles.
 Requested convergence on MAX density matrix=1.00D-06.
 Requested convergence on             energy=1.00D-06.
 No special actions if energy rises.
 SCF Done:  E(RM062X) =  -382.917678550     A.U. after    6 cycles
            NFock=  6  Conv=0.71D-08     -V/T= 2.0044
 QCSCF skips out because SCF is already converged.
   1 Symmetry operations used in ECPInt.
 ECPInt:  NShTT=    5995 NPrTT=   17944 LenC2=    5879 LenP2D=   14191.
 LDataN:  DoStor=T MaxTD1= 7 Len=  274
 Calling FoFJK, ICntrl=      2127 FMM=F ISym2X=0 I1Cent= 0 IOpClX= 0 NMat=1 NMatS=1 NMatT=0.
 -------------------------------------------------------------------
 Center     Atomic                   Forces (Hartrees/Bohr)
 Number     Number              X              Y              Z
 -------------------------------------------------------------------
      1        6           0.000001038    0.000000196   -0.000000340
      2        8           0.000002915   -0.000000714   -0.000001505
      3        8          -0.000000355    0.000000353    0.000000242
      4        6           0.000000438   -0.000000463   -0.000000276
      5        1           0.000002104    0.000000579   -0.000000630
      6        1          -0.000000852   -0.000000136    0.000000337
      7        1           0.000000677   -0.000002213   -0.000001073
      8        6           0.000000070    0.000000991    0.000000347
      9        1          -0.000000085    0.000002902    0.000001158
     10        8           0.000001761    0.000000867   -0.000000394
     11        6          -0.000002339   -0.000000358    0.000000747
     12        1          -0.000002846    0.000000252    0.000001213
     13        1          -0.000002039   -0.000002266   -0.000000052
     14        1          -0.000003584   -0.000000157    0.000001355
     15        1           0.000003096    0.000000167   -0.000001130
 -------------------------------------------------------------------
 Cartesian Forces:  Max     0.000003584 RMS     0.000001425

 GradGradGradGradGradGradGradGradGradGradGradGradGradGradGradGradGradGrad
 Berny optimization.
 Using GEDIIS/GDIIS optimizer.
 FormGI is forming the generalized inverse of G from B-inverse, IUseBI=4.
 Internal  Forces:  Max     0.000000241 RMS     0.000000054
 Search for a local minimum.
 Step number   2 out of a maximum of   77
 All quantities printed in internal units (Hartrees-Bohrs-Radians)
 Mixed Optimization -- En-DIIS/RFO-DIIS
 Swapping is turned off.
 Update second derivatives using D2CorX and points    1    2
 DE= -3.32D-08 DEPred=-3.27D-08 R= 1.01D+00
 Trust test= 1.01D+00 RLast= 4.92D-03 DXMaxT set to 3.00D-01
 ITU=  0  0
     Eigenvalues ---    0.00043   0.00268   0.00320   0.00572   0.01673
     Eigenvalues ---    0.02213   0.02552   0.03880   0.04554   0.05068
     Eigenvalues ---    0.05895   0.06162   0.08367   0.08502   0.08542
     Eigenvalues ---    0.09635   0.10710   0.13309   0.13432   0.15378
     Eigenvalues ---    0.18959   0.18992   0.21079   0.24847   0.25507
     Eigenvalues ---    0.26381   0.32030   0.32687   0.34553   0.34658
     Eigenvalues ---    0.34720   0.35141   0.35562   0.36041   0.38518
     Eigenvalues ---    0.39903   0.50093   0.51956   0.90544
 En-DIIS/RFO-DIIS/Sim-DIIS IScMMF=       -3 using points:     2    1
 RFO step:  Lambda=-1.62675312D-12.
 DidBck=F Rises=F RFO-DIIS coefs:    1.02047   -0.02047
 Iteration  1 RMS(Cart)=  0.00002341 RMS(Int)=  0.00000000
 Iteration  2 RMS(Cart)=  0.00000000 RMS(Int)=  0.00000000
 Variable       Old X    -DE/DX   Delta X   Delta X   Delta X     New X
                                 (Linear)    (Quad)   (Total)
    R1        2.27355   0.00000   0.00000  -0.00000  -0.00000   2.27355
    R2        2.51252   0.00000  -0.00000   0.00000  -0.00000   2.51252
    R3        2.86627  -0.00000  -0.00000   0.00000  -0.00000   2.86627
    R4        2.70055   0.00000  -0.00000   0.00000   0.00000   2.70055
    R5        2.05736  -0.00000  -0.00000  -0.00000  -0.00000   2.05736
    R6        2.05078   0.00000  -0.00000   0.00000   0.00000   2.05078
    R7        2.05732  -0.00000   0.00000  -0.00000   0.00000   2.05732
    R8        2.07125   0.00000  -0.00000  -0.00000  -0.00000   2.07125
    R9        2.64807  -0.00000  -0.00000   0.00000   0.00000   2.64807
   R10        2.87897   0.00000   0.00000  -0.00000   0.00000   2.87897
   R11        4.04075   0.00000   0.00000   0.00000   0.00000   4.04075
   R12        4.95797  -0.00000  -0.00000   0.00000   0.00000   4.95798
   R13        1.82748  -0.00000  -0.00000   0.00000   0.00000   1.82748
   R14        2.05721  -0.00000   0.00000  -0.00000  -0.00000   2.05721
   R15        2.06090  -0.00000   0.00000  -0.00000  -0.00000   2.06090
   R16        2.05786   0.00000  -0.00000   0.00000   0.00000   2.05786
    A1        2.16597   0.00000   0.00000   0.00000   0.00000   2.16597
    A2        2.15011  -0.00000  -0.00000   0.00000  -0.00000   2.15011
    A3        1.96709  -0.00000   0.00000  -0.00000  -0.00000   1.96709
    A4        2.01569   0.00000  -0.00000   0.00000   0.00000   2.01569
    A5        1.92242   0.00000   0.00000  -0.00000   0.00000   1.92242
    A6        1.84756   0.00000  -0.00000   0.00000   0.00000   1.84756
    A7        1.92279  -0.00000  -0.00000  -0.00000  -0.00000   1.92279
    A8        1.93326  -0.00000   0.00000  -0.00000   0.00000   1.93326
    A9        1.90424   0.00000   0.00000   0.00000   0.00000   1.90424
   A10        1.93325  -0.00000  -0.00000   0.00000  -0.00000   1.93325
   A11        1.86537  -0.00000   0.00000   0.00000   0.00000   1.86537
   A12        1.90956   0.00000  -0.00000   0.00000   0.00000   1.90956
   A13        1.93471   0.00000  -0.00000  -0.00000  -0.00000   1.93471
   A14        2.43718   0.00000  -0.00000  -0.00000  -0.00000   2.43717
   A15        1.91215  -0.00000  -0.00000  -0.00000  -0.00000   1.91215
   A16        1.90827   0.00000   0.00000  -0.00000   0.00000   1.90827
   A17        1.66723   0.00000   0.00000  -0.00000  -0.00000   1.66723
   A18        1.93252  -0.00000   0.00000   0.00000   0.00000   1.93252
   A19        1.87425  -0.00000  -0.00000   0.00000  -0.00000   1.87425
   A20        2.49753  -0.00000  -0.00002  -0.00001  -0.00003   2.49750
   A21        1.91842  -0.00000  -0.00000   0.00000  -0.00000   1.91842
   A22        1.93753   0.00000  -0.00000   0.00000   0.00000   1.93753
   A23        1.89161   0.00000   0.00000  -0.00000   0.00000   1.89161
   A24        1.90754  -0.00000   0.00000  -0.00000  -0.00000   1.90754
   A25        1.91009   0.00000   0.00000  -0.00000   0.00000   1.91009
   A26        1.16156   0.00000   0.00000  -0.00000  -0.00000   1.16156
    D1       -0.00064  -0.00000   0.00001  -0.00001  -0.00000  -0.00065
    D2        3.13631  -0.00000   0.00000  -0.00001  -0.00001   3.13631
    D3       -2.14413  -0.00000  -0.00001  -0.00002  -0.00003  -2.14416
    D4       -0.07517  -0.00000  -0.00001  -0.00002  -0.00003  -0.07520
    D5        2.06097  -0.00000  -0.00001  -0.00001  -0.00003   2.06094
    D6        2.03031   0.00000  -0.00002  -0.00001  -0.00003   2.03029
    D7        1.00205  -0.00000  -0.00001  -0.00001  -0.00002   1.00203
    D8        3.07101  -0.00000  -0.00001  -0.00001  -0.00002   3.07098
    D9       -1.07604  -0.00000  -0.00001  -0.00001  -0.00002  -1.07606
   D10       -1.10669  -0.00000  -0.00001  -0.00001  -0.00002  -1.10672
   D11        1.04868  -0.00000  -0.00005   0.00002  -0.00003   1.04865
   D12        3.13943  -0.00000  -0.00005   0.00002  -0.00003   3.13939
   D13       -1.05283  -0.00000  -0.00005   0.00002  -0.00003  -1.05286
   D14        0.04105   0.00000   0.00002   0.00001   0.00003   0.04108
   D15        2.08068  -0.00000   0.00002   0.00002   0.00003   2.08071
   D16       -2.09641  -0.00000   0.00002   0.00001   0.00003  -2.09637
   D17       -1.03218  -0.00000   0.00000  -0.00000  -0.00000  -1.03218
   D18        1.08358  -0.00000   0.00000  -0.00000  -0.00000   1.08358
   D19       -3.08423  -0.00000   0.00000  -0.00000  -0.00000  -3.08423
   D20       -0.96847  -0.00000   0.00000  -0.00000  -0.00000  -0.96848
   D21        1.09055   0.00000   0.00000  -0.00000  -0.00000   1.09055
   D22       -3.07688   0.00000   0.00000  -0.00000  -0.00000  -3.07688
   D23        0.61581  -0.00000   0.00002   0.00001   0.00003   0.61584
   D24       -1.61659   0.00000   0.00000   0.00000   0.00000  -1.61659
   D25        2.58611   0.00000  -0.00000   0.00000   0.00000   2.58611
         Item               Value     Threshold  Converged?
 Maximum Force            0.000000     0.000450     YES
 RMS     Force            0.000000     0.000300     YES
 Maximum Displacement     0.000083     0.001800     YES
 RMS     Displacement     0.000023     0.001200     YES
 Predicted change in Energy=-9.208136D-12
 Optimization completed.
    -- Stationary point found.
                           ----------------------------
                           !   Optimized Parameters   !
                           ! (Angstroms and Degrees)  !
 --------------------------                            --------------------------
 ! Name  Definition              Value          Derivative Info.                !
 --------------------------------------------------------------------------------
 ! R1    R(1,2)                  1.2031         -DE/DX =    0.0                 !
 ! R2    R(1,3)                  1.3296         -DE/DX =    0.0                 !
 ! R3    R(1,8)                  1.5168         -DE/DX =    0.0                 !
 ! R4    R(3,4)                  1.4291         -DE/DX =    0.0                 !
 ! R5    R(4,5)                  1.0887         -DE/DX =    0.0                 !
 ! R6    R(4,6)                  1.0852         -DE/DX =    0.0                 !
 ! R7    R(4,7)                  1.0887         -DE/DX =    0.0                 !
 ! R8    R(8,9)                  1.0961         -DE/DX =    0.0                 !
 ! R9    R(8,10)                 1.4013         -DE/DX =    0.0                 !
 ! R10   R(8,11)                 1.5235         -DE/DX =    0.0                 !
 ! R11   R(8,12)                 2.1383         -DE/DX =    0.0                 !
 ! R12   R(10,12)                2.6236         -DE/DX =    0.0                 !
 ! R13   R(10,15)                0.9671         -DE/DX =    0.0                 !
 ! R14   R(11,12)                1.0886         -DE/DX =    0.0                 !
 ! R15   R(11,13)                1.0906         -DE/DX =    0.0                 !
 ! R16   R(11,14)                1.089          -DE/DX =    0.0                 !
 ! A1    A(2,1,3)              124.101          -DE/DX =    0.0                 !
 ! A2    A(2,1,8)              123.1923         -DE/DX =    0.0                 !
 ! A3    A(3,1,8)              112.7061         -DE/DX =    0.0                 !
 ! A4    A(1,3,4)              115.4907         -DE/DX =    0.0                 !
 ! A5    A(3,4,5)              110.1465         -DE/DX =    0.0                 !
 ! A6    A(3,4,6)              105.8572         -DE/DX =    0.0                 !
 ! A7    A(3,4,7)              110.1679         -DE/DX =    0.0                 !
 ! A8    A(5,4,6)              110.7674         -DE/DX =    0.0                 !
 ! A9    A(5,4,7)              109.1049         -DE/DX =    0.0                 !
 ! A10   A(6,4,7)              110.7668         -DE/DX =    0.0                 !
 ! A11   A(1,8,9)              106.8778         -DE/DX =    0.0                 !
 ! A12   A(1,8,10)             109.4096         -DE/DX =    0.0                 !
 ! A13   A(1,8,11)             110.8509         -DE/DX =    0.0                 !
 ! A14   A(1,8,12)             139.64           -DE/DX =    0.0                 !
 ! A15   A(9,8,10)             109.558          -DE/DX =    0.0                 !
 ! A16   A(9,8,11)             109.3356         -DE/DX =    0.0                 !
 ! A17   A(9,8,12)              95.5253         -DE/DX =    0.0                 !
 ! A18   A(10,8,11)            110.7253         -DE/DX =    0.0                 !
 ! A19   A(8,10,15)            107.3865         -DE/DX =    0.0                 !
 ! A20   A(12,10,15)           143.0977         -DE/DX =    0.0                 !
 ! A21   A(8,11,13)            109.9172         -DE/DX =    0.0                 !
 ! A22   A(8,11,14)            111.0124         -DE/DX =    0.0                 !
 ! A23   A(12,11,13)           108.3814         -DE/DX =    0.0                 !
 ! A24   A(12,11,14)           109.2939         -DE/DX =    0.0                 !
 ! A25   A(13,11,14)           109.4399         -DE/DX =    0.0                 !
 ! A26   A(10,12,11)            66.5527         -DE/DX =    0.0                 !
 ! D1    D(2,1,3,4)             -0.0368         -DE/DX =    0.0                 !
 ! D2    D(8,1,3,4)            179.6976         -DE/DX =    0.0                 !
 ! D3    D(2,1,8,9)           -122.8495         -DE/DX =    0.0                 !
 ! D4    D(2,1,8,10)            -4.3071         -DE/DX =    0.0                 !
 ! D5    D(2,1,8,11)           118.0849         -DE/DX =    0.0                 !
 ! D6    D(2,1,8,12)           116.3283         -DE/DX =    0.0                 !
 ! D7    D(3,1,8,9)             57.4132         -DE/DX =    0.0                 !
 ! D8    D(3,1,8,10)           175.9557         -DE/DX =    0.0                 !
 ! D9    D(3,1,8,11)           -61.6524         -DE/DX =    0.0                 !
 ! D10   D(3,1,8,12)           -63.4089         -DE/DX =    0.0                 !
 ! D11   D(1,3,4,5)             60.0852         -DE/DX =    0.0                 !
 ! D12   D(1,3,4,6)            179.8759         -DE/DX =    0.0                 !
 ! D13   D(1,3,4,7)            -60.3225         -DE/DX =    0.0                 !
 ! D14   D(1,8,10,15)            2.3518         -DE/DX =    0.0                 !
 ! D15   D(9,8,10,15)          119.214          -DE/DX =    0.0                 !
 ! D16   D(11,8,10,15)        -120.1152         -DE/DX =    0.0                 !
 ! D17   D(1,8,11,13)          -59.1393         -DE/DX =    0.0                 !
 ! D18   D(1,8,11,14)           62.0846         -DE/DX =    0.0                 !
 ! D19   D(9,8,11,13)         -176.7134         -DE/DX =    0.0                 !
 ! D20   D(9,8,11,14)          -55.4895         -DE/DX =    0.0                 !
 ! D21   D(10,8,11,13)          62.4837         -DE/DX =    0.0                 !
 ! D22   D(10,8,11,14)        -176.2923         -DE/DX =    0.0                 !
 ! D23   D(15,10,12,11)         35.2831         -DE/DX =    0.0                 !
 ! D24   D(13,11,12,10)        -92.6235         -DE/DX =    0.0                 !
 ! D25   D(14,11,12,10)        148.1732         -DE/DX =    0.0                 !
 --------------------------------------------------------------------------------
 GradGradGradGradGradGradGradGradGradGradGradGradGradGradGradGradGradGrad

                          Input orientation:                          
 ---------------------------------------------------------------------
 Center     Atomic      Atomic             Coordinates (Angstroms)
 Number     Number       Type             X           Y           Z
 ---------------------------------------------------------------------
      1          6           0        0.035966   -0.425536    0.078807
      2          8           0       -0.513225   -1.490934   -0.025104
      3          8           0        0.623686    0.004806    1.191078
      4          6           0        0.569803   -0.892599    2.301933
      5          1           0        1.059407   -1.831655    2.049455
      6          1           0        1.090554   -0.392872    3.112370
      7          1           0       -0.465444   -1.092214    2.573329
      8          6           0        0.124136    0.577350   -1.055665
      9          1           0        1.188867    0.778923   -1.220177
     10          8           0       -0.432237    0.019617   -2.214551
     11          6           0       -0.584094    1.875237   -0.688359
     12          1           0       -0.536485    2.552701   -1.539176
     13          1           0       -1.632938    1.675981   -0.465677
     14          1           0       -0.113768    2.346335    0.173455
     15          1           0       -0.766708   -0.857286   -1.981369
 ---------------------------------------------------------------------
                    Distance matrix (angstroms):
                    1          2          3          4          5
     1  C    0.000000
     2  O    1.203113   0.000000
     3  O    1.329570   2.238058   0.000000
     4  C    2.333542   2.635537   1.429069   0.000000
     5  H    2.628318   2.625463   2.073464   1.088707   0.000000
     6  H    3.211810   3.690744   2.016799   1.085227   1.789094
     7  H    2.630306   2.629281   2.073711   1.088686   1.773806
     8  C    1.516767   2.397099   2.371753   3.692267   4.039778
     9  H    2.113590   3.078566   2.594771   3.947466   4.185973
    10  O    2.382618   2.661203   3.565600   4.715385   4.882004
    11  C    2.503313   3.431623   2.913679   4.234884   4.892624
    12  H    3.437364   4.317863   3.910505   5.277129   5.886232
    13  H    2.738262   3.387804   3.260370   4.371423   5.087055
    14  H    2.777526   3.863111   2.657471   3.935528   4.727718
    15  H    2.252780   2.071892   3.569428   4.487113   4.531184
                    6          7          8          9         10
     6  H    0.000000
     7  H    1.789071   0.000000
     8  C    4.387233   4.037901   0.000000
     9  H    4.489290   4.541870   1.096061   0.000000
    10  O    5.555639   4.915391   1.401297   2.047756   0.000000
    11  C    4.732262   4.411173   1.523487   2.151308   2.407416
    12  H    5.741127   5.495739   2.138274   2.494973   2.623646
    13  H    4.949746   4.273348   2.154619   3.055579   2.691428
    14  H    4.194146   4.207931   2.167174   2.468977   3.349271
    15  H    5.441625   4.570692   1.925802   2.660990   0.967060
                   11         12         13         14         15
    11  C    0.000000
    12  H    1.088630   0.000000
    13  H    1.090579   1.767271   0.000000
    14  H    1.088974   1.776058   1.779253   0.000000
    15  H    3.028516   3.446237   3.076543   3.915711   0.000000
 Symmetry turned off by external request.
 Stoichiometry    C4H8O3
 Framework group  C1[X(C4H8O3)]
 Deg. of freedom    39
 Full point group                 C1      NOp   1
 Rotational constants (GHZ):           4.9182567           1.8886381           1.4845340

 **********************************************************************

            Population analysis using the SCF Density.

 **********************************************************************

 Alpha  occ. eigenvalues --  -19.68855 -19.63395 -19.62195 -10.68122 -10.60574
 Alpha  occ. eigenvalues --  -10.60239 -10.53439  -1.25811  -1.17051  -1.14371
 Alpha  occ. eigenvalues --   -0.88687  -0.82796  -0.73731  -0.66519  -0.63912
 Alpha  occ. eigenvalues --   -0.59483  -0.58316  -0.54869  -0.53017  -0.50166
 Alpha  occ. eigenvalues --   -0.47567  -0.46491  -0.45548  -0.44528  -0.42368
 Alpha  occ. eigenvalues --   -0.39579  -0.37070  -0.35516
 Alpha virt. eigenvalues --    0.03835   0.06565   0.09306   0.11072   0.11375
 Alpha virt. eigenvalues --    0.12039   0.12967   0.14906   0.15475   0.15820
 Alpha virt. eigenvalues --    0.18860   0.20715   0.21869   0.22929   0.23509
 Alpha virt. eigenvalues --    0.25271   0.27612   0.29576   0.31681   0.32133
 Alpha virt. eigenvalues --    0.33723   0.35261   0.37067   0.39377   0.40096
 Alpha virt. eigenvalues --    0.40303   0.42399   0.42924   0.43677   0.46137
 Alpha virt. eigenvalues --    0.47062   0.47942   0.48505   0.49657   0.50093
 Alpha virt. eigenvalues --    0.52057   0.52999   0.55778   0.58124   0.58728
 Alpha virt. eigenvalues --    0.60590   0.61801   0.63267   0.64103   0.65132
 Alpha virt. eigenvalues --    0.69927   0.71428   0.73784   0.77499   0.81894
 Alpha virt. eigenvalues --    0.82995   0.85804   0.87721   0.89628   0.90802
 Alpha virt. eigenvalues --    0.91421   0.93321   0.97352   1.00379   1.01032
 Alpha virt. eigenvalues --    1.02919   1.07033   1.07730   1.10675   1.12355
 Alpha virt. eigenvalues --    1.16498   1.20717   1.21720   1.26670   1.31831
 Alpha virt. eigenvalues --    1.37012   1.39483   1.47909   1.48744   1.49852
 Alpha virt. eigenvalues --    1.50378   1.53754   1.54323   1.56585   1.57766
 Alpha virt. eigenvalues --    1.58721   1.60683   1.61449   1.63013   1.64227
 Alpha virt. eigenvalues --    1.67075   1.70590   1.73731   1.75838   1.77182
 Alpha virt. eigenvalues --    1.81523   1.84401   1.86350   1.87623   1.88661
 Alpha virt. eigenvalues --    1.94344   1.96057   1.98702   2.00637   2.03651
 Alpha virt. eigenvalues --    2.05811   2.08482   2.11837   2.12267   2.17037
 Alpha virt. eigenvalues --    2.18459   2.22063   2.24049   2.25065   2.26744
 Alpha virt. eigenvalues --    2.30328   2.31007   2.32685   2.33990   2.35242
 Alpha virt. eigenvalues --    2.37253   2.37896   2.42588   2.43964   2.45923
 Alpha virt. eigenvalues --    2.49014   2.53391   2.54586   2.56997   2.58061
 Alpha virt. eigenvalues --    2.59196   2.60024   2.63930   2.64036   2.70985
 Alpha virt. eigenvalues --    2.74262   2.76135   2.79392   2.80536   2.82008
 Alpha virt. eigenvalues --    2.85239   2.90113   2.94706   2.96832   2.98875
 Alpha virt. eigenvalues --    3.02581   3.02886   3.05400   3.06738   3.09594
 Alpha virt. eigenvalues --    3.14123   3.16299   3.16745   3.18131   3.21945
 Alpha virt. eigenvalues --    3.23919   3.25212   3.27893   3.28593   3.31884
 Alpha virt. eigenvalues --    3.33771   3.34610   3.36371   3.38744   3.40215
 Alpha virt. eigenvalues --    3.42022   3.45016   3.47488   3.48232   3.51465
 Alpha virt. eigenvalues --    3.55117   3.57624   3.58717   3.60113   3.61711
 Alpha virt. eigenvalues --    3.69245   3.71541   3.78208   3.81449   3.88655
 Alpha virt. eigenvalues --    3.95174   3.97530   4.03508   4.08584   4.12043
 Alpha virt. eigenvalues --    4.17452   4.19166   4.27485   4.33959   4.37044
 Alpha virt. eigenvalues --    4.37927   4.42809   4.47130   4.49396   4.55435
 Alpha virt. eigenvalues --    4.70010   4.76303   4.81177   4.89046   5.17010
 Alpha virt. eigenvalues --    5.22979   5.27410   5.32939   5.35983   5.43972
 Alpha virt. eigenvalues --    5.48770   5.50979   5.63194   5.66919   5.76404
 Alpha virt. eigenvalues --    5.78101   5.79064   5.92269   5.98403   6.07009
 Alpha virt. eigenvalues --    6.14234   6.19094   6.25791   6.34172   6.39047
 Alpha virt. eigenvalues --    6.47282   6.49361   6.63390   6.63795   6.73174
 Alpha virt. eigenvalues --    6.75632   6.79778   6.85143   6.88444   6.95486
 Alpha virt. eigenvalues --    7.00023   7.12392   7.16290   7.27695   7.36673
 Alpha virt. eigenvalues --   22.43063  22.44019  22.69067  23.44915  43.97229
 Alpha virt. eigenvalues --   44.15570  44.25525
          Condensed to atoms (all electrons):
               1          2          3          4          5          6
     1  C    4.555803   0.582683   0.340867  -0.050512  -0.011009   0.005718
     2  O    0.582683   7.898266  -0.076962   0.001686   0.003711   0.001653
     3  O    0.340867  -0.076962   7.973315   0.209838  -0.033025  -0.030422
     4  C   -0.050512   0.001686   0.209838   4.848014   0.423876   0.395196
     5  H   -0.011009   0.003711  -0.033025   0.423876   0.527192  -0.025058
     6  H    0.005718   0.001653  -0.030422   0.395196  -0.025058   0.529070
     7  H   -0.006749   0.004042  -0.036390   0.419602  -0.040469  -0.024864
     8  C    0.334133  -0.059021  -0.101795   0.002232  -0.000960   0.000659
     9  H   -0.053619   0.002071   0.000202  -0.001280  -0.000030  -0.000063
    10  O   -0.034777  -0.017885   0.003869   0.000284  -0.000035   0.000006
    11  C    0.000473  -0.005253   0.015800   0.001258   0.000194   0.000085
    12  H    0.010299  -0.000391   0.000072   0.000040   0.000009   0.000003
    13  H   -0.003915   0.002601  -0.001414  -0.000340  -0.000012  -0.000017
    14  H   -0.017211   0.000459   0.004310  -0.000255   0.000041  -0.000190
    15  H   -0.011117   0.026708   0.001609  -0.000109  -0.000015  -0.000009
               7          8          9         10         11         12
     1  C   -0.006749   0.334133  -0.053619  -0.034777   0.000473   0.010299
     2  O    0.004042  -0.059021   0.002071  -0.017885  -0.005253  -0.000391
     3  O   -0.036390  -0.101795   0.000202   0.003869   0.015800   0.000072
     4  C    0.419602   0.002232  -0.001280   0.000284   0.001258   0.000040
     5  H   -0.040469  -0.000960  -0.000030  -0.000035   0.000194   0.000009
     6  H   -0.024864   0.000659  -0.000063   0.000006   0.000085   0.000003
     7  H    0.529864   0.001267   0.000052  -0.000038  -0.001068  -0.000011
     8  C    0.001267   5.009530   0.474549   0.321221   0.096556  -0.042526
     9  H    0.000052   0.474549   0.591025  -0.047383  -0.115632  -0.004867
    10  O   -0.000038   0.321221  -0.047383   8.017405  -0.091740   0.002556
    11  C   -0.001068   0.096556  -0.115632  -0.091740   5.352107   0.409930
    12  H   -0.000011  -0.042526  -0.004867   0.002556   0.409930   0.512899
    13  H    0.000135  -0.011047   0.010887   0.010355   0.354524  -0.020644
    14  H    0.000119  -0.007778   0.003991   0.005561   0.371864  -0.019190
    15  H   -0.000025  -0.046306   0.006589   0.307333   0.002681  -0.000726
              13         14         15
     1  C   -0.003915  -0.017211  -0.011117
     2  O    0.002601   0.000459   0.026708
     3  O   -0.001414   0.004310   0.001609
     4  C   -0.000340  -0.000255  -0.000109
     5  H   -0.000012   0.000041  -0.000015
     6  H   -0.000017  -0.000190  -0.000009
     7  H    0.000135   0.000119  -0.000025
     8  C   -0.011047  -0.007778  -0.046306
     9  H    0.010887   0.003991   0.006589
    10  O    0.010355   0.005561   0.307333
    11  C    0.354524   0.371864   0.002681
    12  H   -0.020644  -0.019190  -0.000726
    13  H    0.538422  -0.017759   0.001397
    14  H   -0.017759   0.532294  -0.000458
    15  H    0.001397  -0.000458   0.373814
 Mulliken charges:
               1
     1  C    0.358931
     2  O   -0.364368
     3  O   -0.269876
     4  C   -0.249531
     5  H    0.155590
     6  H    0.148230
     7  H    0.154532
     8  C    0.029285
     9  H    0.133509
    10  O   -0.476733
    11  C   -0.391780
    12  H    0.152547
    13  H    0.136827
    14  H    0.144202
    15  H    0.338634
 Sum of Mulliken charges =  -0.00000
 Mulliken charges with hydrogens summed into heavy atoms:
               1
     1  C    0.358931
     2  O   -0.364368
     3  O   -0.269876
     4  C    0.208822
     8  C    0.162794
    10  O   -0.138099
    11  C    0.041796
 Electronic spatial extent (au):  <R**2>=            831.3311
 Charge=             -0.0000 electrons
 Dipole moment (field-independent basis, Debye):
    X=              0.9468    Y=              0.6382    Z=              2.6497  Tot=              2.8852
 Quadrupole moment (field-independent basis, Debye-Ang):
   XX=            -41.6550   YY=            -42.8290   ZZ=            -42.2038
   XY=             -1.4095   XZ=              0.1160   YZ=             -1.3585
 Traceless Quadrupole moment (field-independent basis, Debye-Ang):
   XX=              0.5743   YY=             -0.5997   ZZ=              0.0254
   XY=             -1.4095   XZ=              0.1160   YZ=             -1.3585
 Octapole moment (field-independent basis, Debye-Ang**2):
  XXX=              3.9373  YYY=              5.0122  ZZZ=             34.1297  XYY=              4.3429
  XXY=             -1.3483  XXZ=              1.2743  XZZ=              6.0222  YZZ=             -9.6392
  YYZ=             -1.5592  XYZ=             -4.0200
 Hexadecapole moment (field-independent basis, Debye-Ang**3):
 XXXX=           -119.1563 YYYY=           -362.2332 ZZZZ=           -584.8485 XXXY=             21.8516
 XXXZ=            -65.8327 YYYX=             16.8887 YYYZ=             81.2398 ZZZX=            -56.8260
 ZZZY=             84.8148 XXYY=            -79.1627 XXZZ=           -111.1924 YYZZ=           -139.9133
 XXYZ=             29.2103 YYXZ=            -16.3917 ZZXY=             12.4874
 N-N= 3.263364214997D+02 E-N=-1.550014402095D+03  KE= 3.812368279691D+02
 1\1\GINC-R4I3N27\FOpt\RM062X\def2TZVP\C4H8O3\HMAYES\09-Oct-2019\0\\# m
 062x/Def2TZVP nosymm scf=xqc opt=ReadFC freq=NoRaman CPHF=Grid=Fine gu
 ess=read geom=allcheck\\flip to get L; baed on methyllactate_ts_ts.log
 \\0,1\C,0.0359658974,-0.4255364698,0.07880715\O,-0.51322484,-1.4909343
 291,-0.0251043182\O,0.6236864136,0.0048059509,1.191077545\C,0.56980323
 51,-0.8925993331,2.3019330122\H,1.0594073081,-1.831655204,2.0494547958
 \H,1.0905544677,-0.3928715013,3.1123697308\H,-0.4654438395,-1.09221376
 55,2.5733290476\C,0.1241357926,0.5773503385,-1.0556650315\H,1.18886737
 69,0.7789232343,-1.220176826\O,-0.4322365561,0.0196168246,-2.214551452
 8\C,-0.5840941017,1.8752369843,-0.6883588781\H,-0.5364850991,2.5527011
 952,-1.5391760231\H,-1.6329376915,1.675981001,-0.4656774668\H,-0.11376
 76844,2.3463348978,0.1734554881\H,-0.7667080003,-0.8572863521,-1.98136
 90312\\Version=ES64L-G16RevB.01\HF=-382.9176786\RMSD=7.136e-09\RMSF=1.
 425e-06\Dipole=0.3724849,0.2510786,1.0424627\Quadrupole=0.4269556,-0.4
 458731,0.0189175,-1.0479109,0.0862754,-1.0099887\PG=C01 [X(C4H8O3)]\\@


 CHARLIE BROWN.."I CAN'T GET THAT STUPID KITE IN THE
 AIR... I CAN'T... I C A N N O T..."
 LUCY.."OH COME NOW CHARLIE BROWN...THAT'S NO WAY TO TALK...
 THE TROUBLE WITH YOU IS YOU DON'T BELIEVE IN YOURSELF... YOU
 DON'T BELIEVE IN YOUR OWN ABILITIES...  YOU'VE GOT TO SAY TO
 YOURSELF...'I BELIEVE I CAN FLY THIS KITE.'... GO AHEAD SAY
 IT...."
 CHARLIE BROWN.."I BELIEVE THAT I CAN FLY THIS STUPID
 KITE.....I BELIEVE THAT I CAN FLY THIS KITE........
 I  A C T U A L L Y  B E L I E V E  T H A T  I  C A N ******"
 LUCY.."I'LL BET YOU TEN-TO-ONE YOU'RE WRONG......."    SCHULZ
 Job cpu time:       0 days  0 hours  8 minutes  9.1 seconds.
 Elapsed time:       0 days  0 hours  0 minutes 14.5 seconds.
 File lengths (MBytes):  RWF=     43 Int=      0 D2E=      0 Chk=      7 Scr=      1
 Normal termination of Gaussian 16 at Wed Oct  9 21:42:14 2019.
 Link1:  Proceeding to internal job step number  2.
 --------------------------------------------------------------------
 #N Geom=AllCheck Guess=TCheck SCRF=Check GenChk RM062X/def2TZVP Freq
 --------------------------------------------------------------------
 1/4=180224,10=4,29=7,30=1,38=1,40=1/1,3;
 2/4=180224,12=2,15=1,40=1/2;
 3/4=180224,5=44,7=101,11=2,14=-4,25=1,30=1,70=2,71=2,74=-55,116=1,140=1/1,2,3;
 4/4=180224,5=101/1;
 5/4=180224,5=2,8=3,13=1,38=6,98=1/2,8;
 8/4=180224,6=4,10=90,11=11/1;
 11/4=180224,6=1,8=1,9=11,15=111,16=1,31=1/1,2,10;
 10/4=180224,6=1,31=1,60=4/2;
 6/4=180224,7=2,8=2,9=2,10=2,28=1/1;
 7/4=180224,8=1,10=1,25=1,30=1/1,2,3,16;
 1/4=180224,10=4,30=1/3;
 99/4=180224/99;
 Structure from the checkpoint file:  "/dev/shm/lmethyllactate_tsa_ts_ircr_opt.chk"
 ----------------------------------------------
 flip to get L; baed on methyllactate_ts_ts.log
 ----------------------------------------------
 Charge =  0 Multiplicity = 1
 Redundant internal coordinates found in file.  (old form).
 C,0,0.0359658974,-0.4255364698,0.07880715
 O,0,-0.51322484,-1.4909343291,-0.0251043182
 O,0,0.6236864136,0.0048059509,1.191077545
 C,0,0.5698032351,-0.8925993331,2.3019330122
 H,0,1.0594073081,-1.831655204,2.0494547958
 H,0,1.0905544677,-0.3928715013,3.1123697308
 H,0,-0.4654438395,-1.0922137655,2.5733290476
 C,0,0.1241357926,0.5773503385,-1.0556650315
 H,0,1.1888673769,0.7789232343,-1.220176826
 O,0,-0.4322365561,0.0196168246,-2.2145514528
 C,0,-0.5840941017,1.8752369843,-0.6883588781
 H,0,-0.5364850991,2.5527011952,-1.5391760231
 H,0,-1.6329376915,1.675981001,-0.4656774668
 H,0,-0.1137676844,2.3463348978,0.1734554881
 H,0,-0.7667080003,-0.8572863521,-1.9813690312
 Recover connectivity data from disk.

 GradGradGradGradGradGradGradGradGradGradGradGradGradGradGradGradGradGrad
 Berny optimization.
 Initialization pass.
                           ----------------------------
                           !    Initial Parameters    !
                           ! (Angstroms and Degrees)  !
 --------------------------                            --------------------------
 ! Name  Definition              Value          Derivative Info.                !
 --------------------------------------------------------------------------------
 ! R1    R(1,2)                  1.2031         calculate D2E/DX2 analytically  !
 ! R2    R(1,3)                  1.3296         calculate D2E/DX2 analytically  !
 ! R3    R(1,8)                  1.5168         calculate D2E/DX2 analytically  !
 ! R4    R(3,4)                  1.4291         calculate D2E/DX2 analytically  !
 ! R5    R(4,5)                  1.0887         calculate D2E/DX2 analytically  !
 ! R6    R(4,6)                  1.0852         calculate D2E/DX2 analytically  !
 ! R7    R(4,7)                  1.0887         calculate D2E/DX2 analytically  !
 ! R8    R(8,9)                  1.0961         calculate D2E/DX2 analytically  !
 ! R9    R(8,10)                 1.4013         calculate D2E/DX2 analytically  !
 ! R10   R(8,11)                 1.5235         calculate D2E/DX2 analytically  !
 ! R11   R(8,12)                 2.1383         calculate D2E/DX2 analytically  !
 ! R12   R(10,12)                2.6236         calculate D2E/DX2 analytically  !
 ! R13   R(10,15)                0.9671         calculate D2E/DX2 analytically  !
 ! R14   R(11,12)                1.0886         calculate D2E/DX2 analytically  !
 ! R15   R(11,13)                1.0906         calculate D2E/DX2 analytically  !
 ! R16   R(11,14)                1.089          calculate D2E/DX2 analytically  !
 ! A1    A(2,1,3)              124.101          calculate D2E/DX2 analytically  !
 ! A2    A(2,1,8)              123.1923         calculate D2E/DX2 analytically  !
 ! A3    A(3,1,8)              112.7061         calculate D2E/DX2 analytically  !
 ! A4    A(1,3,4)              115.4907         calculate D2E/DX2 analytically  !
 ! A5    A(3,4,5)              110.1465         calculate D2E/DX2 analytically  !
 ! A6    A(3,4,6)              105.8572         calculate D2E/DX2 analytically  !
 ! A7    A(3,4,7)              110.1679         calculate D2E/DX2 analytically  !
 ! A8    A(5,4,6)              110.7674         calculate D2E/DX2 analytically  !
 ! A9    A(5,4,7)              109.1049         calculate D2E/DX2 analytically  !
 ! A10   A(6,4,7)              110.7668         calculate D2E/DX2 analytically  !
 ! A11   A(1,8,9)              106.8778         calculate D2E/DX2 analytically  !
 ! A12   A(1,8,10)             109.4096         calculate D2E/DX2 analytically  !
 ! A13   A(1,8,11)             110.8509         calculate D2E/DX2 analytically  !
 ! A14   A(1,8,12)             139.64           calculate D2E/DX2 analytically  !
 ! A15   A(9,8,10)             109.558          calculate D2E/DX2 analytically  !
 ! A16   A(9,8,11)             109.3356         calculate D2E/DX2 analytically  !
 ! A17   A(9,8,12)              95.5253         calculate D2E/DX2 analytically  !
 ! A18   A(10,8,11)            110.7253         calculate D2E/DX2 analytically  !
 ! A19   A(8,10,15)            107.3865         calculate D2E/DX2 analytically  !
 ! A20   A(12,10,15)           143.0977         calculate D2E/DX2 analytically  !
 ! A21   A(8,11,13)            109.9172         calculate D2E/DX2 analytically  !
 ! A22   A(8,11,14)            111.0124         calculate D2E/DX2 analytically  !
 ! A23   A(12,11,13)           108.3814         calculate D2E/DX2 analytically  !
 ! A24   A(12,11,14)           109.2939         calculate D2E/DX2 analytically  !
 ! A25   A(13,11,14)           109.4399         calculate D2E/DX2 analytically  !
 ! A26   A(10,12,11)            66.5527         calculate D2E/DX2 analytically  !
 ! D1    D(2,1,3,4)             -0.0368         calculate D2E/DX2 analytically  !
 ! D2    D(8,1,3,4)            179.6976         calculate D2E/DX2 analytically  !
 ! D3    D(2,1,8,9)           -122.8495         calculate D2E/DX2 analytically  !
 ! D4    D(2,1,8,10)            -4.3071         calculate D2E/DX2 analytically  !
 ! D5    D(2,1,8,11)           118.0849         calculate D2E/DX2 analytically  !
 ! D6    D(2,1,8,12)           116.3283         calculate D2E/DX2 analytically  !
 ! D7    D(3,1,8,9)             57.4132         calculate D2E/DX2 analytically  !
 ! D8    D(3,1,8,10)           175.9557         calculate D2E/DX2 analytically  !
 ! D9    D(3,1,8,11)           -61.6524         calculate D2E/DX2 analytically  !
 ! D10   D(3,1,8,12)           -63.4089         calculate D2E/DX2 analytically  !
 ! D11   D(1,3,4,5)             60.0852         calculate D2E/DX2 analytically  !
 ! D12   D(1,3,4,6)            179.8759         calculate D2E/DX2 analytically  !
 ! D13   D(1,3,4,7)            -60.3225         calculate D2E/DX2 analytically  !
 ! D14   D(1,8,10,15)            2.3518         calculate D2E/DX2 analytically  !
 ! D15   D(9,8,10,15)          119.214          calculate D2E/DX2 analytically  !
 ! D16   D(11,8,10,15)        -120.1152         calculate D2E/DX2 analytically  !
 ! D17   D(1,8,11,13)          -59.1393         calculate D2E/DX2 analytically  !
 ! D18   D(1,8,11,14)           62.0846         calculate D2E/DX2 analytically  !
 ! D19   D(9,8,11,13)         -176.7134         calculate D2E/DX2 analytically  !
 ! D20   D(9,8,11,14)          -55.4895         calculate D2E/DX2 analytically  !
 ! D21   D(10,8,11,13)          62.4837         calculate D2E/DX2 analytically  !
 ! D22   D(10,8,11,14)        -176.2923         calculate D2E/DX2 analytically  !
 ! D23   D(15,10,12,11)         35.2831         calculate D2E/DX2 analytically  !
 ! D24   D(13,11,12,10)        -92.6235         calculate D2E/DX2 analytically  !
 ! D25   D(14,11,12,10)        148.1732         calculate D2E/DX2 analytically  !
 --------------------------------------------------------------------------------
 Trust Radius=3.00D-01 FncErr=1.00D-07 GrdErr=1.00D-07 EigMax=2.50D+02 EigMin=1.00D-04
 Number of steps in this run=      2 maximum allowed number of steps=      2.
 GradGradGradGradGradGradGradGradGradGradGradGradGradGradGradGradGradGrad

                          Input orientation:                          
 ---------------------------------------------------------------------
 Center     Atomic      Atomic             Coordinates (Angstroms)
 Number     Number       Type             X           Y           Z
 ---------------------------------------------------------------------
      1          6           0        0.035966   -0.425536    0.078807
      2          8           0       -0.513225   -1.490934   -0.025104
      3          8           0        0.623686    0.004806    1.191078
      4          6           0        0.569803   -0.892599    2.301933
      5          1           0        1.059407   -1.831655    2.049455
      6          1           0        1.090554   -0.392872    3.112370
      7          1           0       -0.465444   -1.092214    2.573329
      8          6           0        0.124136    0.577350   -1.055665
      9          1           0        1.188867    0.778923   -1.220177
     10          8           0       -0.432237    0.019617   -2.214551
     11          6           0       -0.584094    1.875237   -0.688359
     12          1           0       -0.536485    2.552701   -1.539176
[...]
 ! D19   D(9,8,11,13)         -176.7134         -DE/DX =    0.0                 !
 ! D20   D(9,8,11,14)          -55.4895         -DE/DX =    0.0                 !
 ! D21   D(10,8,11,13)          62.4837         -DE/DX =    0.0                 !
 ! D22   D(10,8,11,14)        -176.2923         -DE/DX =    0.0                 !
 ! D23   D(15,10,12,11)         35.2831         -DE/DX =    0.0                 !
 ! D24   D(13,11,12,10)        -92.6235         -DE/DX =    0.0                 !
 ! D25   D(14,11,12,10)        148.1732         -DE/DX =    0.0                 !
 --------------------------------------------------------------------------------
 GradGradGradGradGradGradGradGradGradGradGradGradGradGradGradGradGradGrad


 ----------------------------------------------------------------------

 Electric dipole moment (input orientation):
 (Debye = 10**-18 statcoulomb cm , SI units = C m)
                  (au)            (Debye)         (10**-30 SI)
   Tot        0.113513D+01      0.288521D+01      0.962401D+01
   x          0.372486D+00      0.946765D+00      0.315807D+01
   y          0.251078D+00      0.638177D+00      0.212873D+01
   z          0.104246D+01      0.264967D+01      0.883836D+01

 Dipole polarizability, Alpha (input orientation).
 (esu units = cm**3 , SI units = C**2 m**2 J**-1)
 Alpha(0;0):
               (au)            (10**-24 esu)      (10**-40 SI)
   iso        0.577002D+02      0.855029D+01      0.951348D+01
   aniso      0.166291D+02      0.246418D+01      0.274177D+01
   xx         0.495017D+02      0.733539D+01      0.816172D+01
   yx         0.139937D+01      0.207366D+00      0.230726D+00
   yy         0.600623D+02      0.890032D+01      0.990294D+01
   zx         0.509586D+01      0.755128D+00      0.840194D+00
   zy        -0.328933D+01     -0.487429D+00     -0.542338D+00
   zz         0.635367D+02      0.941516D+01      0.104758D+02

 ----------------------------------------------------------------------

 Dipole orientation:
     6          0.04570738         -0.81915084         -0.01879971
     8         -0.79324889         -2.69841473         -0.98501235
     8          0.37350578         -0.53359806          2.45582695
     6         -0.34728575         -2.64666963          3.97515502
     1          0.74970273         -4.30544405          3.44808075
     1          0.04326984         -2.10239047          5.91343565
     1         -2.34783061         -3.05368742          3.72075499
     6          0.83475761          1.49558835         -1.51376235
     1          2.82147329          1.85942831         -1.05476689
     8          0.60088858          0.99268441         -4.10309805
     6         -0.74904498          3.78279581         -0.77299265
     1         -0.18496971          5.38259471         -1.93685783
     1         -2.74365883          3.39777237         -1.12021640
     1         -0.47824233          4.25648215          1.21121627
     1         -0.07759294         -0.69571375         -4.27236092

 Electric dipole moment (dipole orientation):
 (Debye = 10**-18 statcoulomb cm , SI units = C m)
                  (au)            (Debye)         (10**-30 SI)
   Tot        0.113513D+01      0.288521D+01      0.962401D+01
   x          0.000000D+00      0.000000D+00      0.000000D+00
   y          0.000000D+00      0.000000D+00      0.000000D+00
   z          0.113513D+01      0.288521D+01      0.962401D+01

 Dipole polarizability, Alpha (dipole orientation).
 (esu units = cm**3 , SI units = C**2 m**2 J**-1)
 Alpha(0;0):
               (au)            (10**-24 esu)      (10**-40 SI)
   iso        0.577002D+02      0.855029D+01      0.951348D+01
   aniso      0.166291D+02      0.246418D+01      0.274177D+01
   xx         0.476898D+02      0.706690D+01      0.786298D+01
   yx         0.194217D+01      0.287799D+00      0.320220D+00
   yy         0.616173D+02      0.913074D+01      0.101593D+02
   zx         0.178350D+00      0.264288D-01      0.294060D-01
   zy        -0.346864D+01     -0.513999D+00     -0.571901D+00
   zz         0.637936D+02      0.945323D+01      0.105181D+02

 ----------------------------------------------------------------------
 1\1\GINC-R4I3N27\Freq\RM062X\def2TZVP\C4H8O3\HMAYES\09-Oct-2019\0\\#N 
 Geom=AllCheck Guess=TCheck SCRF=Check GenChk RM062X/def2TZVP Freq\\fli
 p to get L; baed on methyllactate_ts_ts.log\\0,1\C,0.0359658974,-0.425
 5364698,0.07880715\O,-0.51322484,-1.4909343291,-0.0251043182\O,0.62368
 64136,0.0048059509,1.191077545\C,0.5698032351,-0.8925993331,2.30193301
 22\H,1.0594073081,-1.831655204,2.0494547958\H,1.0905544677,-0.39287150
 13,3.1123697308\H,-0.4654438395,-1.0922137655,2.5733290476\C,0.1241357
 926,0.5773503385,-1.0556650315\H,1.1888673769,0.7789232343,-1.22017682
 6\O,-0.4322365561,0.0196168246,-2.2145514528\C,-0.5840941017,1.8752369
 843,-0.6883588781\H,-0.5364850991,2.5527011952,-1.5391760231\H,-1.6329
 376915,1.675981001,-0.4656774668\H,-0.1137676844,2.3463348978,0.173455
 4881\H,-0.7667080003,-0.8572863521,-1.9813690312\\Version=ES64L-G16Rev
 B.01\HF=-382.9176786\RMSD=2.345e-09\RMSF=1.424e-06\ZeroPoint=0.1245641
 \Thermal=0.1327368\Dipole=0.3724861,0.2510782,1.0424622\DipoleDeriv=0.
 6146153,0.3905071,0.5711261,0.4585257,1.1452832,0.2666511,0.451465,-0.
 209777,1.5144374,-0.5141844,-0.2818621,-0.2096396,-0.309544,-0.9959641
 ,-0.173257,-0.0974985,0.1460886,-0.7241187,-0.4652026,-0.1034633,-0.40
 76205,-0.1080397,-0.5772365,0.0778803,-0.4265414,0.1448369,-1.5283694,
 0.261997,-0.0057914,0.0096459,-0.0553989,0.3853855,-0.2996573,0.084788
 1,-0.1893626,0.7094305,0.0337265,0.0522353,0.0176417,0.0704768,-0.0381
 603,0.0560285,0.0333049,-0.046326,-0.0095536,0.047955,-0.0292556,-0.07
 02418,-0.0461018,0.0309126,-0.0561935,-0.0506026,-0.0067836,-0.0414052
 ,-0.0655812,-0.0193922,0.0656359,0.0199831,0.0446447,0.0642673,-0.0261
 176,0.0227925,0.0062588,0.3579611,0.032709,0.1484486,0.026548,0.282787
 ,0.3411667,0.1078389,0.3022536,0.4877486,-0.1150563,-0.0140149,-0.0334
 261,-0.0041382,0.0132292,-0.019015,0.008722,0.0060972,0.0053747,-0.504
 6129,-0.0628869,-0.1454438,-0.0226173,-0.599162,-0.1931792,-0.1374984,
 -0.2378182,-0.8039908,0.0516575,0.043589,0.0446541,0.0241294,-0.022896
 6,-0.0758007,0.0033768,0.039849,-0.0234348,0.0668687,0.0170938,0.01422
 14,0.0148441,-0.0270161,0.0737078,0.0073574,0.0929329,-0.0217268,-0.08
 26284,0.0032701,0.0380582,-0.0594243,0.024169,0.0075225,0.0361074,-0.0
 061999,0.0664645,0.0262965,-0.0306449,-0.0626215,-0.0033228,0.038589,-
 0.0528019,-0.0448935,-0.079571,-0.0233536,0.2861881,0.007907,0.0195615
 ,-0.0059201,0.2954356,-0.0173195,0.0501916,0.0209876,0.3862384\Polar=4
 9.5016609,1.3993742,60.0623257,5.0958592,-3.2893326,63.5366816\Quadrup
 ole=0.4269544,-0.4458706,0.0189163,-1.0479087,0.0862744,-1.0099889\PG=
 C01 [X(C4H8O3)]\NImag=0\\0.42129845,0.29384336,0.87914593,0.10946520,-
 0.02993864,0.60860927,-0.21532603,-0.26650424,-0.01546365,0.21480475,-
 0.26076231,-0.61763012,-0.00855792,0.33608219,0.69583820,-0.02334206,-
 0.02500781,-0.11472056,0.05378903,0.05070312,0.12124417,-0.11355637,-0
 .03818180,-0.07462605,-0.00886786,-0.05052246,-0.04179322,0.17356128,-
 0.03510875,-0.12739248,-0.02190979,-0.04914868,-0.03316288,-0.05525803
 ,0.10000571,0.32249818,-0.07945732,-0.03120295,-0.25705631,-0.04336917
 ,-0.05878716,-0.01414577,0.13024400,-0.04544680,0.52222244,0.00155053,
 0.01309427,-0.01938956,-0.00512706,0.00305549,0.00010686,-0.07291626,-
 0.01993596,0.01032096,0.60754878,0.01090791,0.01983532,0.00716299,-0.0
 0366547,-0.00881781,-0.00778075,-0.01137047,-0.14754410,0.08120096,0.0
 0774584,0.55526104,-0.01642736,0.01334989,-0.06498354,0.00967133,0.011
 92074,0.00495568,-0.00175073,0.05667792,-0.15152297,0.01959781,0.08169
 439,0.53887592,0.00177260,0.00286048,0.00092396,-0.00036217,-0.0015805
 2,0.00101593,0.00308436,-0.00367190,-0.00352506,-0.10945528,0.10689248
 ,0.03190876,0.10904668,-0.00296481,-0.00264225,-0.00461232,0.00093010,
 0.00214516,0.00015020,0.00857452,-0.02329558,0.01046833,0.10572475,-0.
 24513336,-0.05965989,-0.11618655,0.27167831,0.00198903,0.00560578,0.00
 448124,-0.00145507,-0.00221547,-0.00057619,-0.01676764,0.03370293,-0.0
 0396578,0.03644833,-0.06871731,-0.07011674,-0.03533505,0.05715651,0.07
 511393,-0.00002236,-0.00100575,0.00090445,0.00066048,0.00050446,-0.000
 71903,0.00196235,0.00172140,0.00270322,-0.11965861,-0.06432800,-0.1023
 2546,0.00888079,0.00666500,0.01245867,0.11924329,-0.00211071,-0.006003
 52,0.00241647,0.00021899,0.00229471,-0.00165525,0.01407930,0.00889907,
 0.02865995,-0.06858457,-0.11707546,-0.10978264,-0.01468871,-0.00941081
 ,-0.01834925,0.07082424,0.12208116,0.00241914,0.00573611,-0.00072989,-
 0.00031838,-0.00083133,0.00089628,-0.01470213,-0.00725922,-0.03237447,
 -0.09628321,-0.09737525,-0.19615179,-0.00335202,-0.00387803,-0.0035398
 8,0.10963749,0.10065669,0.22425405,-0.00008020,-0.00131279,-0.00207867
 ,0.00046564,0.00100388,-0.00074434,0.00702601,-0.00307350,0.00338761,-
 0.30521898,-0.04242467,0.06160864,-0.01272880,-0.00285274,0.00172004,-
 0.01127638,-0.00025481,0.00325335,0.32224003,-0.00193787,-0.00068798,-
 0.00319042,0.00071123,0.00080306,0.00097642,-0.02179550,-0.00980348,0.
 01682920,-0.03796188,-0.05682047,0.00800542,0.02652244,0.00656799,-0.0
 0675855,-0.01441817,-0.00144694,0.00353279,0.04846921,0.06161583,0.005
 94881,0.00546686,0.00441080,-0.00145947,-0.00324064,0.00004625,0.02575
 957,0.01226921,-0.02144636,0.05244470,0.00752074,-0.06254853,0.0084938
 1,0.00004975,-0.00063522,-0.02269331,-0.00290207,0.00865742,-0.0673982
 5,-0.01945535,0.07170972,-0.08760119,0.00714244,0.00993940,0.01355584,
 -0.03097615,0.00299457,0.00595741,0.00609305,-0.01824576,0.00265406,-0
 .00307032,-0.00326693,-0.00008097,0.00005640,0.00096549,0.00021807,0.0
 0041851,-0.00062506,-0.00049243,0.00019320,-0.00069613,0.58208738,0.00
 356088,-0.11461347,0.04914827,-0.02298070,-0.03712524,0.01955829,-0.00
 175891,0.01220308,-0.00812383,-0.00365583,-0.00010508,-0.00347563,0.00
 001778,-0.00002229,-0.00027101,-0.00003662,0.00082005,-0.00095923,0.00
 034304,-0.00021992,0.00046802,0.04983688,0.51082170,0.01620382,0.06487
 670,-0.13995325,-0.00648302,0.00158988,0.00251404,-0.00666142,0.015172
 34,-0.03146018,-0.00229067,-0.00163760,0.00036134,0.00000083,-0.000036
 93,-0.00031368,0.00003659,0.00042495,-0.00029315,0.00017091,-0.0000402
 1,0.00019478,0.00945515,0.00371712,0.50446231,-0.00393948,-0.00280870,
 0.00088791,0.00051961,0.00132470,0.00108682,0.00077146,0.00044747,-0.0
 0049046,0.00043044,-0.00033211,0.00058234,-0.00005335,0.00001490,0.000
 01217,-0.00001350,-0.00002050,0.00002790,0.00002344,0.00012268,-0.0001
 7185,-0.28200366,-0.04276510,0.04787827,0.31152750,-0.02554815,-0.0038
 0328,0.00551248,0.00241540,-0.00410473,0.00159690,0.00155623,0.0001252
 1,-0.00034984,0.00078048,-0.00037319,-0.00008898,-0.00005656,-0.000026
 83,0.00018729,0.00003111,-0.00000449,0.00002369,-0.00003463,0.00005869
 ,-0.00019400,-0.04429869,-0.05468964,0.01283650,0.05128726,0.06646712,
 0.02701278,0.00146371,-0.00144351,-0.00178857,0.00501693,-0.00143004,-
 0.00229437,0.00046215,-0.00074002,-0.00036617,0.00013940,0.00016876,0.
 00002676,-0.00002884,-0.00013189,-0.00002247,0.00000479,-0.00003760,0.
 00001407,-0.00004098,0.00010236,0.05250670,0.01507070,-0.05843370,-0.0
 4366148,-0.00534717,0.06756421,-0.00611377,-0.00612393,-0.00805420,0.0
 0346792,0.00060241,0.00487711,0.00210349,0.00231489,-0.00145583,0.0003
 4049,-0.00070913,0.00027533,-0.00007105,0.00002937,-0.00000471,0.00000
 379,0.00012728,-0.00012256,0.00004989,0.00013130,-0.00028377,-0.099627
 51,-0.03556495,-0.07380097,-0.00992315,-0.01586340,-0.03408472,0.15671
 594,0.00065275,-0.00459961,0.00688059,0.00472786,0.00466358,0.01261752
 ,0.00190265,0.00107333,0.00581809,0.00019943,0.00044089,0.00030556,-0.
 00015574,0.00006139,-0.00011246,0.00005949,-0.00005429,0.00020590,0.00
 002742,-0.00009554,-0.00012467,-0.04634728,-0.11491227,-0.07129243,-0.
 01131665,-0.00453388,-0.01659684,0.21610168,0.54835280,-0.01813720,-0.
 01530120,-0.04193518,-0.00187430,-0.00165004,-0.00048781,-0.00029271,0
 .00735017,-0.01037303,-0.00096135,-0.00252479,0.00098511,-0.00003653,0
 .00030901,-0.00022506,-0.00002016,0.00045619,-0.00068666,0.00011154,0.
 00019858,-0.00023257,-0.05025962,-0.02667672,-0.20263260,-0.01105149,-
 0.00472308,-0.00417942,0.06759886,-0.03358933,0.34741557,0.00217071,0.
 00107844,-0.00360905,-0.00229843,-0.00232742,0.00143692,0.00076449,-0.
 00020856,0.00075612,-0.00003303,0.00027989,-0.00022343,-0.00005580,-0.
 00008261,0.00004729,-0.00002421,0.00000071,0.00004220,0.00001826,-0.00
 009746,0.00011302,-0.11123617,0.05609670,0.01565069,-0.01620051,0.0305
 7992,0.00702052,0.00944727,-0.01798258,-0.00745947,0.56274907,0.013153
 25,-0.02904937,0.00326310,-0.00117683,0.00109385,0.00196296,-0.0007802
 7,-0.00178565,-0.00110171,-0.00054765,0.00014107,-0.00000730,-0.000022
 66,-0.00005385,-0.00011053,-0.00002009,0.00007296,-0.00004268,0.000051
 71,0.00000835,0.00004883,0.05244686,-0.15503164,-0.02044392,-0.0007447
 4,0.00365120,0.00060231,0.00159640,-0.01859321,-0.01439496,0.04710028,
 0.50667637,-0.01568691,0.01816188,0.01576379,0.00562311,0.00392788,-0.
 00391472,0.00007027,-0.00029189,-0.00352252,0.00045481,-0.00049910,0.0
 0044791,0.00003079,0.00006016,0.00000510,-0.00002121,0.00001746,-0.000
 11768,-0.00009686,0.00005934,-0.00015500,0.00769053,-0.00582282,-0.078
 28145,0.00580507,-0.00787611,0.00001437,0.00479440,-0.03880728,-0.0177
 2284,0.01922231,-0.02063369,0.58917975,-0.00193502,0.00150373,0.002706
 45,0.00119239,0.00137674,-0.00088412,0.00012182,0.00028917,-0.00086298
 ,-0.00005723,-0.00012984,0.00030463,0.00002240,0.00006341,-0.00003729,
 -0.00000103,0.00000467,-0.00003309,-0.00000775,0.00005618,-0.00004757,
 -0.00049494,0.01214933,-0.01431630,0.00065364,-0.00072529,-0.00073190,
 -0.00024871,-0.00173487,-0.00006102,-0.04763352,-0.00987175,0.01213914
 ,0.04878823,0.00359183,-0.00195224,-0.00586775,-0.00155318,-0.00151924
 ,0.00124754,-0.00006191,0.00049666,0.00128143,-0.00016447,0.00021032,-
 0.00006756,-0.00001616,-0.00000629,-0.00001101,0.00001435,-0.00002477,
 0.00006688,0.00003262,-0.00005231,0.00006750,0.00085546,-0.02274240,0.
 02359102,-0.00054296,0.00149626,-0.00034586,-0.00017382,0.00336879,0.0
 0008891,-0.01006472,-0.15013587,0.13389441,0.00671021,0.16420508,0.000
 54268,-0.00219345,-0.00218932,-0.00061208,-0.00045594,0.00090803,-0.00
 001909,0.00080817,0.00059192,-0.00004315,-0.00005860,0.00030584,-0.000
 00816,0.00005409,-0.00005145,0.00000946,-0.00001329,0.00000126,0.00001
 866,-0.00002163,0.00000165,0.00054087,-0.00775005,0.00615210,-0.000653
 23,0.00069293,0.00043230,0.00015325,0.00074094,0.00144196,0.01054618,0
 .13639557,-0.21807791,-0.01271005,-0.14633473,0.23243453,-0.00061260,-
 0.00129974,0.00155422,0.00045600,0.00101647,-0.00040549,0.00011032,0.0
 0016004,-0.00083107,-0.00017769,0.00003290,0.00012423,0.00002052,0.000
 01686,-0.00004850,-0.00000474,0.00000866,-0.00000930,0.00000932,0.0000
 7355,-0.00004526,-0.01720745,-0.00238096,0.00134575,0.00002883,0.00310
 143,0.00025949,0.00295886,-0.00018065,-0.00018587,-0.29659631,-0.05079
 156,0.05363739,-0.00033469,-0.00003961,-0.00029052,0.32226586,0.001778
 63,0.00279410,-0.00088902,-0.00084581,-0.00019516,-0.00013390,-0.00031
 641,0.00000080,0.00003017,0.00009024,-0.00002779,0.00005255,0.00001441
 ,0.00000536,-0.00000367,-0.00001209,-0.00001715,0.00000850,0.00000237,
 0.00000356,0.00001052,0.03149722,0.00341801,-0.00564985,0.00289807,-0.
 00508378,-0.00157277,-0.00210008,0.00240650,0.00203825,-0.05309283,-0.
 05777436,0.01087521,-0.01948498,-0.00382357,0.00248523,0.05191484,0.06
 172317,-0.00087533,0.00064833,0.00025081,-0.00008770,-0.00051614,-0.00
 008815,0.00026252,-0.00017890,-0.00016895,0.00002646,0.00005752,-0.000
 04357,0.00001272,0.00000031,0.00000712,-0.00000259,-0.00000873,0.00001
 437,0.00000327,0.00004977,-0.00002463,0.00688362,0.00096179,-0.0022546
 9,0.00060195,-0.00135399,0.00071209,-0.00077258,0.00106917,0.00039589,
 0.05241224,0.01119590,-0.05932099,0.02485544,0.00375949,-0.00449680,-0
 .05878209,-0.01171675,0.05785572,0.00020841,-0.00053024,-0.00071116,0.
 00012851,0.00007359,0.00002953,-0.00041283,0.00087626,-0.00001436,-0.0
 0001788,0.00002277,-0.00002958,-0.00000929,0.00001071,0.00000503,0.000
 02376,0.00000093,-0.00000879,-0.00001613,-0.00005757,0.00002319,0.0068
 0551,0.00352798,0.01275730,0.00025329,-0.00091508,-0.00000329,0.000966
 50,0.00446817,0.00113818,-0.10151026,-0.05187303,-0.09535550,-0.000077
 42,0.00166542,0.00248400,-0.01069121,-0.01250714,-0.02486339,0.1046534
 3,-0.00170341,-0.00064837,-0.00281783,0.00057726,0.00041749,0.00073538
 ,0.00047859,0.00045221,0.00130594,0.00003035,-0.00014374,0.00071927,-0
 .00001453,0.00013886,-0.00012125,0.00000869,-0.00003481,0.00001647,0.0
 0002809,0.00001351,-0.00005636,-0.01554564,-0.00822728,-0.01904039,0.0
 0027751,0.00100797,0.00017974,0.00190956,-0.00685919,-0.00314342,-0.04
 938136,-0.09808503,-0.09187284,0.00977851,0.01044123,0.01562266,-0.001
 74693,-0.00333235,-0.00374650,0.05470657,0.10494600,0.00001412,-0.0004
 3669,-0.00077750,-0.00006634,0.00004456,0.00037968,-0.00017968,0.00147
 641,-0.00055733,-0.00008112,0.00021050,0.00018516,-0.00000519,0.000042
 28,-0.00006414,-0.00002070,0.00000065,0.00000426,0.00001380,0.00000780
 ,-0.00000269,-0.00381194,-0.00023812,-0.00593223,0.00037714,0.00003014
 ,0.00027406,0.00007693,-0.00230049,0.00048138,-0.09376710,-0.09498776,
 -0.21941241,-0.01014158,-0.01186692,-0.01746973,0.00334183,0.00454715,
 0.00706241,0.10361845,0.10352696,0.23633027,0.00218632,-0.00175552,-0.
 00244927,-0.00326959,0.00112893,0.00255147,0.00029033,-0.00076065,0.00
 084010,0.00013773,0.00014822,-0.00004960,-0.00001064,0.00000068,0.0000
 0221,0.00000832,-0.00002397,0.00007445,-0.00001193,-0.00001135,0.00001
 252,-0.01253396,-0.01638952,0.00005308,-0.00207455,-0.00231003,-0.0038
 8734,-0.06006994,-0.15042169,0.02149115,0.00043843,0.00148009,0.001692
 66,0.00001183,-0.00025305,0.00004118,-0.00022501,0.00016354,0.00032547
 ,-0.00030439,0.00059674,0.00063138,0.07542706,0.00264739,0.00724731,0.
 00339978,0.00021187,-0.00470088,0.00028741,-0.00180928,-0.00276435,-0.
 00058178,0.00012952,0.00015237,0.00035629,0.00008573,-0.00000583,0.000
 01801,-0.00000802,-0.00009572,0.00009870,-0.00000519,0.00005565,0.0000
 7167,-0.00830193,-0.01957362,-0.00406716,0.00215816,-0.00018662,0.0009
 9272,-0.16227758,-0.41071929,0.09156242,-0.00189840,-0.00113483,-0.001
 19260,0.00001477,0.00003834,0.00002810,0.00011470,-0.00009732,-0.00022
 127,0.00053066,-0.00008648,-0.00005647,0.16840760,0.43187127,-0.009669
 39,-0.01122852,-0.00972686,0.00389428,0.00305153,0.00441913,0.00275067
 ,0.00242534,0.00451932,0.00001531,0.00060690,-0.00091858,-0.00015156,-
 0.00007461,0.00001265,0.00007504,0.00007407,0.00010348,0.00001624,-0.0
 0015219,-0.00007797,-0.01407089,-0.03560677,0.00587036,-0.00123107,-0.
 00094674,-0.00287196,0.04080346,0.13518574,-0.07224473,-0.00218844,-0.
 00174613,-0.00488538,-0.00017975,0.00049666,0.00001563,0.00033517,-0.0
 0008163,0.00009938,0.00093038,-0.00130783,-0.00050119,-0.02132945,-0.0
 9069581,0.07618673\\-0.00000101,-0.00000009,0.00000039,-0.00000289,0.0
 0000069,0.00000149,0.00000033,-0.00000040,-0.00000031,-0.00000048,0.00
 000046,0.00000032,-0.00000210,-0.00000058,0.00000062,0.00000085,0.0000
 0013,-0.00000035,-0.00000064,0.00000222,0.00000106,-0.00000016,-0.0000
 0105,-0.00000029,0.00000015,-0.00000289,-0.00000117,-0.00000179,-0.000
 00088,0.00000036,0.00000226,0.00000037,-0.00000075,0.00000285,-0.00000
 025,-0.00000122,0.00000209,0.00000227,0.00000004,0.00000360,0.00000016
 ,-0.00000134,-0.00000308,-0.00000017,0.00000113\\\@


 A SOLDIER'S LIFE IS A LIFE OF HONOR, BUT A DOG WOULD NOT LEAD IT.
 -- PRINCE RUPERT, FOUNDER OF THE HUDSON'S BAY COMPANY
 Job cpu time:       0 days  1 hours  5 minutes 21.9 seconds.
 Elapsed time:       0 days  0 hours  1 minutes 49.7 seconds.
 File lengths (MBytes):  RWF=     96 Int=      0 D2E=      0 Chk=      7 Scr=      1
 Normal termination of Gaussian 16 at Wed Oct  9 21:44:04 2019.
