 Entering Gaussian System, Link 0=g16
 Initial command:
 /nopt/nrel/apps/gaussian/g16B/g16/l1.exe "/dev/shm/Gau-55537.inp" -scrdir="/dev/shm/"
 Default is to use a total of  36 processors:
                               36 via shared-memory
                                1 via Linda
 Entering Link 1 = /nopt/nrel/apps/gaussian/g16B/g16/l1.exe PID=     55538.
  
 Copyright (c) 1988-2017, Gaussian, Inc.  All Rights Reserved.
  
 This is part of the Gaussian(R) 16 program.  It is based on
 the Gaussian(R) 09 system (copyright 2009, Gaussian, Inc.),
 the Gaussian(R) 03 system (copyright 2003, Gaussian, Inc.),
 the Gaussian(R) 98 system (copyright 1998, Gaussian, Inc.),
 the Gaussian(R) 94 system (copyright 1995, Gaussian, Inc.),
 the Gaussian 92(TM) system (copyright 1992, Gaussian, Inc.),
 the Gaussian 90(TM) system (copyright 1990, Gaussian, Inc.),
 the Gaussian 88(TM) system (copyright 1988, Gaussian, Inc.),
 the Gaussian 86(TM) system (copyright 1986, Carnegie Mellon
 University), and the Gaussian 82(TM) system (copyright 1983,
 Carnegie Mellon University). Gaussian is a federally registered
 trademark of Gaussian, Inc.
  
 This software contains proprietary and confidential information,
 including trade secrets, belonging to Gaussian, Inc.
  
 This software is provided under written license and may be
 used, copied, transmitted, or stored only in accord with that
 written license.
  
 The following legend is applicable only to US Government
 contracts under FAR:
  
                    RESTRICTED RIGHTS LEGEND
  
 Use, reproduction and disclosure by the US Government is
 subject to restrictions as set forth in subparagraphs (a)
 and (c) of the Commercial Computer Software - Restricted
 Rights clause in FAR 52.227-19.
  
 Gaussian, Inc.
 340 Quinnipiac St., Bldg. 40, Wallingford CT 06492
  
  
 ---------------------------------------------------------------
 Warning -- This program may not be used in any manner that
 competes with the business of Gaussian, Inc. or will provide
 assistance to any competitor of Gaussian, Inc.  The licensee
 of this program is prohibited from giving any competitor of
 Gaussian, Inc. access to this program.  By using this program,
 the user acknowledges that Gaussian, Inc. is engaged in the
 business of creating and licensing software in the field of
 computational chemistry and represents and warrants to the
 licensee that it is not a competitor of Gaussian, Inc. and that
 it will not use this program in any manner prohibited above.
 ---------------------------------------------------------------
  

 Cite this work as:
 Gaussian 16, Revision B.01,
 M. J. Frisch, G. W. Trucks, H. B. Schlegel, G. E. Scuseria, 
 M. A. Robb, J. R. Cheeseman, G. Scalmani, V. Barone, 
 G. A. Petersson, H. Nakatsuji, X. Li, M. Caricato, A. V. Marenich, 
 J. Bloino, B. G. Janesko, R. Gomperts, B. Mennucci, H. P. Hratchian, 
 J. V. Ortiz, A. F. Izmaylov, J. L. Sonnenberg, D. Williams-Young, 
 F. Ding, F. Lipparini, F. Egidi, J. Goings, B. Peng, A. Petrone, 
 T. Henderson, D. Ranasinghe, V. G. Zakrzewski, J. Gao, N. Rega, 
 G. Zheng, W. Liang, M. Hada, M. Ehara, K. Toyota, R. Fukuda, 
 J. Hasegawa, M. Ishida, T. Nakajima, Y. Honda, O. Kitao, H. Nakai, 
 T. Vreven, K. Throssell, J. A. Montgomery, Jr., J. E. Peralta, 
 F. Ogliaro, M. J. Bearpark, J. J. Heyd, E. N. Brothers, K. N. Kudin, 
 V. N. Staroverov, T. A. Keith, R. Kobayashi, J. Normand, 
 K. Raghavachari, A. P. Rendell, J. C. Burant, S. S. Iyengar, 
 J. Tomasi, M. Cossi, J. M. Millam, M. Klene, C. Adamo, R. Cammi, 
 J. W. Ochterski, R. L. Martin, K. Morokuma, O. Farkas, 
 J. B. Foresman, and D. J. Fox, Gaussian, Inc., Wallingford CT, 2016.
 
 ******************************************
 Gaussian 16:  ES64L-G16RevB.01 20-Dec-2017
                19-Dec-2019 
 ******************************************
 %RWF=/dev/shm/,5GB,/scratch/hmayes/lmethyllactate_1_8_cp_2072031/,-1
 %NoSave
 %Chk=/dev/shm/lmethyllactate_1_8_cp.chk
 %CPU=0-35
 SetSPE:  set environment variable "MP_BIND" = "yes"
 SetSPE:  set environment variable "MP_BLIST" = "0,1,2,3,4,5,6,7,8,9,10,11,12,13,14,15,16,17,18,19,20,21,22,23,24,25,26,27,28,29,30,31,32,33,34,35"
 Will use up to   36 processors via shared memory.
 %Mem=147301266KB
 Default route: CacheSize=180224 MaxDisk=256GB
 -----------------------------------------------------
 # m062x/Def2TZVP nosymm Counterpoise=2 CPHF=Grid=Fine
 -----------------------------------------------------
 1/4=180224,38=1,62=2,172=1/1;
 2/4=180224,12=2,15=1,17=6,18=5,40=1/2;
 1/4=180224,38=1,53=2,62=2,63=1/22;
 3/4=180224,5=44,7=101,11=2,25=1,30=1,74=-55/1,2,3;
 4/4=180224/1;
 5/4=180224,5=2,38=5/2;
 6/4=180224,7=2,8=2,9=2,10=2,28=1/1;
 1/4=180224,53=2,62=2,63=1/22;
 3/4=180224,5=7,6=11,7=101,11=2,25=1,30=1,74=-55,82=7/1,2,3;
 4/4=180224/1;
 5/4=180224,5=2,38=5/2;
 6/4=180224,7=2,8=2,9=2,10=2,28=1/1;
 1/4=180224,53=2,62=2,63=1/22(-4);
 99/4=180224,5=1,9=1/99;
 ---------------------------------------------------------------
 cp calculation from fragment pair [1, 8] and lmethyllactate.log
 ---------------------------------------------------------------
 Symbolic Z-matrix:
 Charge =  0 Multiplicity = 1 in supermolecule
 Charge =  0 Multiplicity = 2 in fragment      1.
 Charge =  0 Multiplicity = 2 in fragment      2.
 C(Fragment=1)         0.03597  -0.42554   0.07881 
 O(Fragment=1)        -0.51323  -1.49093  -0.0251 
 O(Fragment=1)         0.62369   0.00481   1.19108 
 C(Fragment=1)         0.5698   -0.8926    2.30193 
 H(Fragment=1)         1.05941  -1.83166   2.04946 
 H(Fragment=1)         1.09055  -0.39287   3.11237 
 H(Fragment=1)        -0.46544  -1.09221   2.57333 
 C(Fragment=2)         0.12414   0.57735  -1.05567 
 H(Fragment=2)         1.18887   0.77892  -1.22018 
 O(Fragment=2)        -0.43224   0.01962  -2.21455 
 C(Fragment=2)        -0.58409   1.87524  -0.68836 
 H(Fragment=2)        -0.53649   2.5527   -1.53918 
 H(Fragment=2)        -1.63294   1.67598  -0.46568 
 H(Fragment=2)        -0.11377   2.34634   0.17346 
 H(Fragment=2)        -0.76671  -0.85729  -1.98137 
 
                          Input orientation:                          
 ---------------------------------------------------------------------
 Center     Atomic      Atomic             Coordinates (Angstroms)
 Number     Number       Type             X           Y           Z
 ---------------------------------------------------------------------
      1          6           0        0.035966   -0.425536    0.078807
      2          8           0       -0.513225   -1.490934   -0.025104
      3          8           0        0.623686    0.004806    1.191078
      4          6           0        0.569803   -0.892599    2.301933
      5          1           0        1.059407   -1.831655    2.049455
      6          1           0        1.090554   -0.392872    3.112370
      7          1           0       -0.465444   -1.092214    2.573329
      8          6           0        0.124136    0.577350   -1.055665
      9          1           0        1.188867    0.778923   -1.220177
     10          8           0       -0.432237    0.019617   -2.214551
     11          6           0       -0.584094    1.875237   -0.688359
     12          1           0       -0.536485    2.552701   -1.539176
     13          1           0       -1.632938    1.675981   -0.465677
     14          1           0       -0.113768    2.346335    0.173455
     15          1           0       -0.766708   -0.857286   -1.981369
 ---------------------------------------------------------------------
                    Distance matrix (angstroms):
                    1          2          3          4          5
     1  C    0.000000
     2  O    1.203113   0.000000
     3  O    1.329570   2.238058   0.000000
     4  C    2.333542   2.635537   1.429069   0.000000
     5  H    2.628318   2.625463   2.073464   1.088707   0.000000
     6  H    3.211811   3.690744   2.016799   1.085227   1.789093
     7  H    2.630306   2.629280   2.073710   1.088686   1.773806
     8  C    1.516767   2.397099   2.371753   3.692267   4.039778
     9  H    2.113590   3.078566   2.594771   3.947466   4.185973
    10  O    2.382618   2.661203   3.565600   4.715384   4.882003
    11  C    2.503313   3.431623   2.913679   4.234884   4.892624
    12  H    3.437363   4.317863   3.910505   5.277128   5.886231
    13  H    2.738262   3.387803   3.260370   4.371423   5.087054
    14  H    2.777525   3.863111   2.657471   3.935528   4.727718
    15  H    2.252780   2.071892   3.569428   4.487113   4.531185
                    6          7          8          9         10
     6  H    0.000000
     7  H    1.789071   0.000000
     8  C    4.387233   4.037901   0.000000
     9  H    4.489291   4.541870   1.096060   0.000000
    10  O    5.555639   4.915391   1.401297   2.047756   0.000000
    11  C    4.732262   4.411174   1.523487   2.151308   2.407415
    12  H    5.741127   5.495739   2.138274   2.494973   2.623645
    13  H    4.949746   4.273348   2.154619   3.055580   2.691428
    14  H    4.194147   4.207932   2.167174   2.468977   3.349270
    15  H    5.441625   4.570692   1.925801   2.660990   0.967059
                   11         12         13         14         15
    11  C    0.000000
    12  H    1.088629   0.000000
    13  H    1.090580   1.767271   0.000000
    14  H    1.088973   1.776058   1.779253   0.000000
    15  H    3.028515   3.446237   3.076543   3.915710   0.000000
 Symmetry turned off by external request.
 Stoichiometry    C4H8O3
 Framework group  C1[X(C4H8O3)]
 Deg. of freedom    39
 Full point group                 C1      NOp   1
 Rotational constants (GHZ):           4.9182582           1.8886382           1.4845342
 Counterpoise: doing full-system calculation.
 Standard basis: def2TZVP (5D, 7F)
   265 basis functions,   421 primitive gaussians,   300 cartesian basis functions
    28 alpha electrons       28 beta electrons
       nuclear repulsion energy       326.3364482508 Hartrees.
 NAtoms=   15 NActive=   15 NUniq=   15 SFac= 1.00D+00 NAtFMM=   60 NAOKFM=F Big=F
 Integral buffers will be    131072 words long.
 Raffenetti 2 integral format.
 Two-electron integral symmetry is turned off.
 One-electron integrals computed using PRISM.
   1 Symmetry operations used in ECPInt.
 ECPInt:  NShTT=    5995 NPrTT=   17944 LenC2=    5879 LenP2D=   14191.
 LDataN:  DoStor=T MaxTD1= 6 Len=  172
 NBasis=   265 RedAO= T EigKep=  1.97D-04  NBF=   265
 NBsUse=   265 1.00D-06 EigRej= -1.00D+00 NBFU=   265
 ExpMin= 9.52D-02 ExpMax= 2.70D+04 ExpMxC= 9.22D+02 IAcc=3 IRadAn=         5 AccDes= 0.00D+00
 Harris functional with IExCor= 1009 and IRadAn=       5 diagonalized for initial guess.
 HarFok:  IExCor= 1009 AccDes= 0.00D+00 IRadAn=         5 IDoV= 1 UseB2=F ITyADJ=14
 ICtDFT=  3500011 ScaDFX=  1.000000  1.000000  1.000000  1.000000
 FoFCou: FMM=F IPFlag=           0 FMFlag=      100000 FMFlg1=           0
         NFxFlg=           0 DoJE=T BraDBF=F KetDBF=T FulRan=T
         wScrn=  0.000000 ICntrl=       500 IOpCl=  0 I1Cent=   200000004 NGrid=           0
         NMat0=    1 NMatS0=      1 NMatT0=    0 NMatD0=    1 NMtDS0=    0 NMtDT0=    0
 Symmetry not used in FoFCou.
 Initial guess <Sx>= 0.0000 <Sy>= 0.0000 <Sz>= 0.0000 <S**2>=-0.0000 S=-0.0000
 Requested convergence on RMS density matrix=1.00D-08 within 128 cycles.
 Requested convergence on MAX density matrix=1.00D-06.
 Requested convergence on             energy=1.00D-06.
 No special actions if energy rises.
 Integral accuracy reduced to 1.0D-05 until final iterations.
 Initial convergence to 1.0D-05 achieved.  Increase integral accuracy.
 SCF Done:  E(UM062X) =  -382.917678550     A.U. after   14 cycles
            NFock= 14  Conv=0.53D-08     -V/T= 2.0044
 <Sx>= 0.0000 <Sy>= 0.0000 <Sz>= 0.0000 <S**2>=-0.0000 S=-0.0000
 <L.S>= 0.000000000000E+00
 Annihilation of the first spin contaminant:
 S**2 before annihilation    -0.0000,   after     0.0000

 **********************************************************************

            Population analysis using the SCF Density.

 **********************************************************************

 Alpha  occ. eigenvalues --  -19.68855 -19.63395 -19.62195 -10.68122 -10.60574
 Alpha  occ. eigenvalues --  -10.60239 -10.53440  -1.25811  -1.17051  -1.14371
 Alpha  occ. eigenvalues --   -0.88687  -0.82796  -0.73731  -0.66519  -0.63912
 Alpha  occ. eigenvalues --   -0.59483  -0.58316  -0.54869  -0.53017  -0.50166
 Alpha  occ. eigenvalues --   -0.47567  -0.46491  -0.45548  -0.44528  -0.42368
 Alpha  occ. eigenvalues --   -0.39579  -0.37070  -0.35516
 Alpha virt. eigenvalues --    0.03835   0.06565   0.09306   0.11072   0.11375
 Alpha virt. eigenvalues --    0.12039   0.12967   0.14906   0.15475   0.15820
 Alpha virt. eigenvalues --    0.18860   0.20715   0.21869   0.22929   0.23509
 Alpha virt. eigenvalues --    0.25271   0.27612   0.29576   0.31681   0.32132
 Alpha virt. eigenvalues --    0.33723   0.35261   0.37067   0.39377   0.40096
 Alpha virt. eigenvalues --    0.40303   0.42399   0.42924   0.43677   0.46137
 Alpha virt. eigenvalues --    0.47062   0.47942   0.48505   0.49657   0.50093
 Alpha virt. eigenvalues --    0.52057   0.52999   0.55778   0.58124   0.58728
 Alpha virt. eigenvalues --    0.60590   0.61801   0.63267   0.64103   0.65132
 Alpha virt. eigenvalues --    0.69927   0.71428   0.73784   0.77499   0.81894
 Alpha virt. eigenvalues --    0.82995   0.85804   0.87721   0.89628   0.90802
 Alpha virt. eigenvalues --    0.91421   0.93321   0.97352   1.00379   1.01032
 Alpha virt. eigenvalues --    1.02919   1.07033   1.07730   1.10675   1.12355
 Alpha virt. eigenvalues --    1.16498   1.20717   1.21720   1.26670   1.31831
 Alpha virt. eigenvalues --    1.37012   1.39483   1.47909   1.48744   1.49852
 Alpha virt. eigenvalues --    1.50378   1.53754   1.54323   1.56585   1.57766
 Alpha virt. eigenvalues --    1.58721   1.60683   1.61449   1.63013   1.64227
 Alpha virt. eigenvalues --    1.67075   1.70590   1.73731   1.75838   1.77182
 Alpha virt. eigenvalues --    1.81523   1.84401   1.86350   1.87623   1.88661
 Alpha virt. eigenvalues --    1.94344   1.96057   1.98702   2.00637   2.03651
 Alpha virt. eigenvalues --    2.05811   2.08482   2.11837   2.12267   2.17037
 Alpha virt. eigenvalues --    2.18459   2.22063   2.24049   2.25065   2.26744
 Alpha virt. eigenvalues --    2.30328   2.31007   2.32685   2.33990   2.35242
 Alpha virt. eigenvalues --    2.37253   2.37896   2.42588   2.43964   2.45923
 Alpha virt. eigenvalues --    2.49014   2.53391   2.54586   2.56997   2.58061
 Alpha virt. eigenvalues --    2.59196   2.60024   2.63930   2.64036   2.70985
 Alpha virt. eigenvalues --    2.74262   2.76135   2.79392   2.80536   2.82008
 Alpha virt. eigenvalues --    2.85239   2.90113   2.94706   2.96832   2.98875
 Alpha virt. eigenvalues --    3.02581   3.02886   3.05400   3.06738   3.09594
 Alpha virt. eigenvalues --    3.14123   3.16299   3.16745   3.18131   3.21945
 Alpha virt. eigenvalues --    3.23919   3.25212   3.27893   3.28593   3.31884
 Alpha virt. eigenvalues --    3.33771   3.34610   3.36371   3.38744   3.40215
 Alpha virt. eigenvalues --    3.42022   3.45016   3.47488   3.48232   3.51465
 Alpha virt. eigenvalues --    3.55117   3.57624   3.58717   3.60113   3.61711
 Alpha virt. eigenvalues --    3.69245   3.71541   3.78208   3.81449   3.88655
 Alpha virt. eigenvalues --    3.95174   3.97530   4.03508   4.08584   4.12043
 Alpha virt. eigenvalues --    4.17452   4.19166   4.27485   4.33959   4.37044
 Alpha virt. eigenvalues --    4.37927   4.42809   4.47130   4.49396   4.55435
 Alpha virt. eigenvalues --    4.70010   4.76303   4.81177   4.89046   5.17010
 Alpha virt. eigenvalues --    5.22979   5.27410   5.32939   5.35983   5.43972
 Alpha virt. eigenvalues --    5.48770   5.50979   5.63194   5.66919   5.76404
 Alpha virt. eigenvalues --    5.78101   5.79064   5.92269   5.98403   6.07009
 Alpha virt. eigenvalues --    6.14234   6.19094   6.25791   6.34172   6.39047
 Alpha virt. eigenvalues --    6.47282   6.49361   6.63390   6.63795   6.73174
 Alpha virt. eigenvalues --    6.75632   6.79778   6.85143   6.88444   6.95486
 Alpha virt. eigenvalues --    7.00023   7.12392   7.16290   7.27695   7.36673
 Alpha virt. eigenvalues --   22.43063  22.44019  22.69067  23.44915  43.97229
 Alpha virt. eigenvalues --   44.15570  44.25525
  Beta  occ. eigenvalues --  -19.68855 -19.63395 -19.62195 -10.68122 -10.60574
  Beta  occ. eigenvalues --  -10.60239 -10.53440  -1.25811  -1.17051  -1.14371
  Beta  occ. eigenvalues --   -0.88687  -0.82796  -0.73731  -0.66519  -0.63912
  Beta  occ. eigenvalues --   -0.59483  -0.58316  -0.54869  -0.53017  -0.50166
  Beta  occ. eigenvalues --   -0.47567  -0.46491  -0.45548  -0.44528  -0.42368
  Beta  occ. eigenvalues --   -0.39579  -0.37070  -0.35516
  Beta virt. eigenvalues --    0.03835   0.06565   0.09306   0.11072   0.11375
  Beta virt. eigenvalues --    0.12039   0.12967   0.14906   0.15475   0.15820
  Beta virt. eigenvalues --    0.18860   0.20715   0.21869   0.22929   0.23509
  Beta virt. eigenvalues --    0.25271   0.27612   0.29576   0.31681   0.32132
  Beta virt. eigenvalues --    0.33723   0.35261   0.37067   0.39377   0.40096
  Beta virt. eigenvalues --    0.40303   0.42399   0.42924   0.43677   0.46137
  Beta virt. eigenvalues --    0.47062   0.47942   0.48505   0.49657   0.50093
  Beta virt. eigenvalues --    0.52057   0.52999   0.55778   0.58124   0.58728
  Beta virt. eigenvalues --    0.60590   0.61801   0.63267   0.64103   0.65132
  Beta virt. eigenvalues --    0.69927   0.71428   0.73784   0.77499   0.81894
  Beta virt. eigenvalues --    0.82995   0.85804   0.87721   0.89628   0.90802
  Beta virt. eigenvalues --    0.91421   0.93321   0.97352   1.00379   1.01032
  Beta virt. eigenvalues --    1.02919   1.07033   1.07730   1.10675   1.12355
  Beta virt. eigenvalues --    1.16498   1.20717   1.21720   1.26670   1.31831
  Beta virt. eigenvalues --    1.37012   1.39483   1.47909   1.48744   1.49852
  Beta virt. eigenvalues --    1.50378   1.53754   1.54323   1.56585   1.57766
  Beta virt. eigenvalues --    1.58721   1.60683   1.61449   1.63013   1.64227
  Beta virt. eigenvalues --    1.67075   1.70590   1.73731   1.75838   1.77182
  Beta virt. eigenvalues --    1.81523   1.84401   1.86350   1.87623   1.88661
  Beta virt. eigenvalues --    1.94344   1.96057   1.98702   2.00637   2.03651
  Beta virt. eigenvalues --    2.05811   2.08482   2.11837   2.12267   2.17037
  Beta virt. eigenvalues --    2.18459   2.22063   2.24049   2.25065   2.26744
  Beta virt. eigenvalues --    2.30328   2.31007   2.32685   2.33990   2.35242
  Beta virt. eigenvalues --    2.37253   2.37896   2.42588   2.43964   2.45923
  Beta virt. eigenvalues --    2.49014   2.53391   2.54586   2.56997   2.58061
  Beta virt. eigenvalues --    2.59196   2.60024   2.63930   2.64036   2.70985
  Beta virt. eigenvalues --    2.74262   2.76135   2.79392   2.80536   2.82008
  Beta virt. eigenvalues --    2.85239   2.90113   2.94706   2.96832   2.98875
  Beta virt. eigenvalues --    3.02581   3.02886   3.05400   3.06738   3.09594
  Beta virt. eigenvalues --    3.14123   3.16299   3.16745   3.18131   3.21945
  Beta virt. eigenvalues --    3.23919   3.25212   3.27893   3.28593   3.31884
  Beta virt. eigenvalues --    3.33771   3.34610   3.36371   3.38744   3.40215
  Beta virt. eigenvalues --    3.42022   3.45016   3.47488   3.48232   3.51465
  Beta virt. eigenvalues --    3.55117   3.57624   3.58717   3.60113   3.61711
  Beta virt. eigenvalues --    3.69245   3.71541   3.78208   3.81449   3.88655
  Beta virt. eigenvalues --    3.95174   3.97530   4.03508   4.08584   4.12043
  Beta virt. eigenvalues --    4.17452   4.19166   4.27485   4.33959   4.37044
  Beta virt. eigenvalues --    4.37927   4.42809   4.47130   4.49396   4.55435
  Beta virt. eigenvalues --    4.70010   4.76303   4.81177   4.89046   5.17010
  Beta virt. eigenvalues --    5.22979   5.27410   5.32939   5.35983   5.43972
  Beta virt. eigenvalues --    5.48770   5.50979   5.63194   5.66919   5.76404
  Beta virt. eigenvalues --    5.78101   5.79064   5.92269   5.98403   6.07009
  Beta virt. eigenvalues --    6.14234   6.19094   6.25791   6.34172   6.39047
  Beta virt. eigenvalues --    6.47282   6.49361   6.63390   6.63795   6.73174
  Beta virt. eigenvalues --    6.75632   6.79778   6.85143   6.88444   6.95486
  Beta virt. eigenvalues --    7.00023   7.12392   7.16290   7.27695   7.36673
  Beta virt. eigenvalues --   22.43063  22.44019  22.69067  23.44915  43.97229
  Beta virt. eigenvalues --   44.15570  44.25525
          Condensed to atoms (all electrons):
               1          2          3          4          5          6
     1  C    4.555803   0.582683   0.340867  -0.050512  -0.011009   0.005718
     2  O    0.582683   7.898266  -0.076962   0.001686   0.003711   0.001653
     3  O    0.340867  -0.076962   7.973316   0.209838  -0.033025  -0.030422
     4  C   -0.050512   0.001686   0.209838   4.848015   0.423876   0.395196
     5  H   -0.011009   0.003711  -0.033025   0.423876   0.527192  -0.025058
     6  H    0.005718   0.001653  -0.030422   0.395196  -0.025058   0.529070
     7  H   -0.006749   0.004042  -0.036390   0.419602  -0.040469  -0.024864
     8  C    0.334133  -0.059021  -0.101795   0.002232  -0.000960   0.000659
     9  H   -0.053619   0.002071   0.000202  -0.001280  -0.000030  -0.000063
    10  O   -0.034777  -0.017885   0.003869   0.000284  -0.000035   0.000006
    11  C    0.000473  -0.005253   0.015800   0.001258   0.000194   0.000085
    12  H    0.010299  -0.000391   0.000072   0.000040   0.000009   0.000003
    13  H   -0.003915   0.002601  -0.001414  -0.000340  -0.000012  -0.000017
    14  H   -0.017211   0.000459   0.004310  -0.000255   0.000041  -0.000190
    15  H   -0.011117   0.026708   0.001609  -0.000109  -0.000015  -0.000009
               7          8          9         10         11         12
     1  C   -0.006749   0.334133  -0.053619  -0.034777   0.000473   0.010299
     2  O    0.004042  -0.059021   0.002071  -0.017885  -0.005253  -0.000391
     3  O   -0.036390  -0.101795   0.000202   0.003869   0.015800   0.000072
     4  C    0.419602   0.002232  -0.001280   0.000284   0.001258   0.000040
     5  H   -0.040469  -0.000960  -0.000030  -0.000035   0.000194   0.000009
     6  H   -0.024864   0.000659  -0.000063   0.000006   0.000085   0.000003
     7  H    0.529864   0.001267   0.000052  -0.000038  -0.001068  -0.000011
     8  C    0.001267   5.009529   0.474549   0.321221   0.096556  -0.042526
     9  H    0.000052   0.474549   0.591025  -0.047383  -0.115632  -0.004867
    10  O   -0.000038   0.321221  -0.047383   8.017405  -0.091740   0.002556
    11  C   -0.001068   0.096556  -0.115632  -0.091740   5.352108   0.409930
    12  H   -0.000011  -0.042526  -0.004867   0.002556   0.409930   0.512899
    13  H    0.000135  -0.011047   0.010887   0.010355   0.354524  -0.020644
    14  H    0.000119  -0.007778   0.003991   0.005561   0.371864  -0.019190
    15  H   -0.000025  -0.046306   0.006589   0.307333   0.002681  -0.000726
              13         14         15
     1  C   -0.003915  -0.017211  -0.011117
     2  O    0.002601   0.000459   0.026708
     3  O   -0.001414   0.004310   0.001609
     4  C   -0.000340  -0.000255  -0.000109
     5  H   -0.000012   0.000041  -0.000015
     6  H   -0.000017  -0.000190  -0.000009
     7  H    0.000135   0.000119  -0.000025
     8  C   -0.011047  -0.007778  -0.046306
     9  H    0.010887   0.003991   0.006589
    10  O    0.010355   0.005561   0.307333
    11  C    0.354524   0.371864   0.002681
    12  H   -0.020644  -0.019190  -0.000726
    13  H    0.538422  -0.017759   0.001397
    14  H   -0.017759   0.532294  -0.000458
    15  H    0.001397  -0.000458   0.373814
          Atomic-Atomic Spin Densities.
               1          2          3          4          5          6
     1  C    0.000000   0.000000  -0.000000   0.000000   0.000000   0.000000
     2  O    0.000000   0.000000   0.000000   0.000000   0.000000   0.000000
     3  O   -0.000000   0.000000   0.000000   0.000000  -0.000000   0.000000
     4  C    0.000000   0.000000   0.000000  -0.000000   0.000000  -0.000000
     5  H    0.000000   0.000000  -0.000000   0.000000  -0.000000   0.000000
     6  H    0.000000   0.000000   0.000000  -0.000000   0.000000   0.000000
     7  H   -0.000000   0.000000  -0.000000   0.000000  -0.000000   0.000000
     8  C   -0.000000  -0.000000  -0.000000   0.000000   0.000000   0.000000
     9  H    0.000000  -0.000000   0.000000   0.000000  -0.000000  -0.000000
    10  O   -0.000000   0.000000   0.000000  -0.000000   0.000000  -0.000000
    11  C   -0.000000   0.000000   0.000000  -0.000000  -0.000000  -0.000000
    12  H   -0.000000  -0.000000  -0.000000  -0.000000   0.000000   0.000000
    13  H   -0.000000  -0.000000  -0.000000  -0.000000   0.000000  -0.000000
    14  H    0.000000  -0.000000   0.000000   0.000000  -0.000000   0.000000
    15  H   -0.000000  -0.000000   0.000000   0.000000  -0.000000  -0.000000
               7          8          9         10         11         12
     1  C   -0.000000  -0.000000   0.000000  -0.000000  -0.000000  -0.000000
     2  O    0.000000  -0.000000  -0.000000   0.000000   0.000000  -0.000000
     3  O   -0.000000  -0.000000   0.000000   0.000000   0.000000  -0.000000
     4  C    0.000000   0.000000   0.000000  -0.000000  -0.000000  -0.000000
     5  H   -0.000000   0.000000  -0.000000   0.000000  -0.000000   0.000000
     6  H    0.000000   0.000000  -0.000000  -0.000000  -0.000000   0.000000
     7  H   -0.000000  -0.000000   0.000000   0.000000   0.000000  -0.000000
     8  C   -0.000000   0.000000  -0.000000   0.000000   0.000000   0.000000
     9  H    0.000000  -0.000000  -0.000000  -0.000000   0.000000  -0.000000
    10  O    0.000000   0.000000  -0.000000  -0.000000  -0.000000  -0.000000
    11  C    0.000000   0.000000   0.000000  -0.000000  -0.000000   0.000000
    12  H   -0.000000   0.000000  -0.000000  -0.000000   0.000000   0.000000
    13  H   -0.000000   0.000000  -0.000000  -0.000000  -0.000000   0.000000
    14  H   -0.000000  -0.000000  -0.000000   0.000000   0.000000  -0.000000
    15  H   -0.000000   0.000000   0.000000   0.000000  -0.000000   0.000000
              13         14         15
     1  C   -0.000000   0.000000  -0.000000
     2  O   -0.000000  -0.000000  -0.000000
     3  O   -0.000000   0.000000   0.000000
     4  C   -0.000000   0.000000   0.000000
     5  H    0.000000  -0.000000  -0.000000
     6  H   -0.000000   0.000000  -0.000000
     7  H   -0.000000  -0.000000  -0.000000
     8  C    0.000000  -0.000000   0.000000
     9  H   -0.000000  -0.000000   0.000000
    10  O   -0.000000   0.000000   0.000000
    11  C   -0.000000   0.000000  -0.000000
    12  H    0.000000  -0.000000   0.000000
    13  H   -0.000000   0.000000  -0.000000
    14  H    0.000000   0.000000   0.000000
    15  H   -0.000000   0.000000   0.000000
 Mulliken charges and spin densities:
               1          2
     1  C    0.358931  -0.000000
     2  O   -0.364369   0.000000
     3  O   -0.269876   0.000000
     4  C   -0.249531  -0.000000
     5  H    0.155590  -0.000000
     6  H    0.148230   0.000000
     7  H    0.154532   0.000000
     8  C    0.029285   0.000000
     9  H    0.133509  -0.000000
    10  O   -0.476733  -0.000000
    11  C   -0.391780  -0.000000
    12  H    0.152547   0.000000
    13  H    0.136827   0.000000
    14  H    0.144202   0.000000
    15  H    0.338634   0.000000
 Sum of Mulliken charges =  -0.00000  -0.00000
 Mulliken charges and spin densities with hydrogens summed into heavy atoms:
               1          2
     1  C    0.358931  -0.000000
     2  O   -0.364369   0.000000
     3  O   -0.269876   0.000000
     4  C    0.208822   0.000000
     8  C    0.162794   0.000000
    10  O   -0.138099  -0.000000
    11  C    0.041796  -0.000000
         Mulliken charges and spin densities condensed to fragments:
      1     -0.066492      0.000000
      2      0.066492     -0.000000
 Electronic spatial extent (au):  <R**2>=            831.3310
 Charge=             -0.0000 electrons
 Dipole moment (field-independent basis, Debye):
    X=              0.9468    Y=              0.6382    Z=              2.6497  Tot=              2.8852
 Quadrupole moment (field-independent basis, Debye-Ang):
   XX=            -41.6550   YY=            -42.8290   ZZ=            -42.2038
   XY=             -1.4095   XZ=              0.1160   YZ=             -1.3585
 Traceless Quadrupole moment (field-independent basis, Debye-Ang):
   XX=              0.5743   YY=             -0.5997   ZZ=              0.0254
   XY=             -1.4095   XZ=              0.1160   YZ=             -1.3585
 Octapole moment (field-independent basis, Debye-Ang**2):
  XXX=              3.9373  YYY=              5.0122  ZZZ=             34.1296  XYY=              4.3429
  XXY=             -1.3483  XXZ=              1.2743  XZZ=              6.0222  YZZ=             -9.6393
  YYZ=             -1.5592  XYZ=             -4.0200
 Hexadecapole moment (field-independent basis, Debye-Ang**3):
 XXXX=           -119.1563 YYYY=           -362.2330 ZZZZ=           -584.8483 XXXY=             21.8516
 XXXZ=            -65.8327 YYYX=             16.8887 YYYZ=             81.2398 ZZZX=            -56.8260
 ZZZY=             84.8148 XXYY=            -79.1627 XXZZ=           -111.1924 YYZZ=           -139.9133
 XXYZ=             29.2103 YYXZ=            -16.3917 ZZXY=             12.4874
 N-N= 3.263364482508D+02 E-N=-1.550014461440D+03  KE= 3.812368322241D+02
                          Isotropic Fermi Contact Couplings
        Atom                 a.u.       MegaHertz       Gauss      10(-4) cm-1
     1  C(13)             -0.00000      -0.00000      -0.00000      -0.00000
     2  O(17)             -0.00000       0.00000       0.00000       0.00000
     3  O(17)             -0.00000       0.00000       0.00000       0.00000
     4  C(13)              0.00000       0.00000       0.00000       0.00000
     5  H(1)              -0.00000      -0.00000      -0.00000      -0.00000
     6  H(1)               0.00000       0.00000       0.00000       0.00000
     7  H(1)               0.00000       0.00000       0.00000       0.00000
     8  C(13)             -0.00000      -0.00000      -0.00000      -0.00000
     9  H(1)              -0.00000      -0.00000      -0.00000      -0.00000
    10  O(17)              0.00000      -0.00000      -0.00000      -0.00000
    11  C(13)              0.00000       0.00000       0.00000       0.00000
    12  H(1)              -0.00000      -0.00000      -0.00000      -0.00000
    13  H(1)              -0.00000      -0.00000      -0.00000      -0.00000
    14  H(1)              -0.00000      -0.00000      -0.00000      -0.00000
    15  H(1)               0.00000       0.00000       0.00000       0.00000
 --------------------------------------------------------
       Center         ----  Spin Dipole Couplings  ----
                      3XX-RR        3YY-RR        3ZZ-RR
 --------------------------------------------------------
     1   Atom        0.000000     -0.000000     -0.000000
     2   Atom       -0.000000      0.000000     -0.000000
     3   Atom        0.000000      0.000000     -0.000000
     4   Atom        0.000000      0.000000     -0.000000
     5   Atom        0.000000     -0.000000     -0.000000
     6   Atom        0.000000      0.000000     -0.000000
     7   Atom       -0.000000      0.000000      0.000000
     8   Atom       -0.000000      0.000000      0.000000
     9   Atom        0.000000     -0.000000     -0.000000
    10   Atom        0.000000      0.000000     -0.000000
    11   Atom       -0.000000      0.000000     -0.000000
    12   Atom       -0.000000     -0.000000      0.000000
    13   Atom        0.000000     -0.000000     -0.000000
    14   Atom        0.000000     -0.000000     -0.000000
    15   Atom        0.000000      0.000000     -0.000000
 --------------------------------------------------------
                        XY            XZ            YZ
 --------------------------------------------------------
     1   Atom       -0.000000     -0.000000     -0.000000
     2   Atom       -0.000000      0.000000      0.000000
     3   Atom        0.000000     -0.000000     -0.000000
     4   Atom       -0.000000     -0.000000     -0.000000
     5   Atom       -0.000000     -0.000000     -0.000000
     6   Atom       -0.000000     -0.000000     -0.000000
     7   Atom       -0.000000     -0.000000      0.000000
     8   Atom       -0.000000      0.000000     -0.000000
     9   Atom        0.000000     -0.000000      0.000000
    10   Atom       -0.000000     -0.000000     -0.000000
    11   Atom        0.000000     -0.000000      0.000000
    12   Atom        0.000000     -0.000000     -0.000000
    13   Atom        0.000000     -0.000000      0.000000
    14   Atom        0.000000      0.000000      0.000000
    15   Atom        0.000000     -0.000000      0.000000
 --------------------------------------------------------


 ---------------------------------------------------------------------------------
              Anisotropic Spin Dipole Couplings in Principal Axis System
 ---------------------------------------------------------------------------------

       Atom             a.u.   MegaHertz   Gauss  10(-4) cm-1        Axes

              Baa    -0.0000    -0.000    -0.000    -0.000  0.2937  0.6842  0.6676
     1 C(13)  Bbb     0.0000     0.000     0.000     0.000 -0.2060 -0.6366  0.7431
              Bcc     0.0000     0.000     0.000     0.000  0.9334 -0.3557 -0.0460
 
              Baa    -0.0000     0.000     0.000     0.000 -0.5533 -0.3187  0.7696
     2 O(17)  Bbb     0.0000    -0.000    -0.000    -0.000  0.8291 -0.1218  0.5456
              Bcc     0.0000    -0.000    -0.000    -0.000 -0.0802  0.9400  0.3316
 
              Baa    -0.0000     0.000     0.000     0.000  0.3643 -0.0675  0.9288
     3 O(17)  Bbb     0.0000    -0.000    -0.000    -0.000  0.7160 -0.6174 -0.3257
              Bcc     0.0000    -0.000    -0.000    -0.000  0.5955  0.7837 -0.1766
 
              Baa    -0.0000    -0.000    -0.000    -0.000  0.3505  0.2477  0.9032
     4 C(13)  Bbb     0.0000     0.000     0.000     0.000  0.2971  0.8852 -0.3581
              Bcc     0.0000     0.000     0.000     0.000  0.8882 -0.3938 -0.2367
 
              Baa    -0.0000    -0.000    -0.000    -0.000  0.1028  0.9017  0.4200
     5 H(1)   Bbb     0.0000     0.000     0.000     0.000  0.1568 -0.4316  0.8883
              Bcc     0.0000     0.000     0.000     0.000  0.9823 -0.0255 -0.1858
 
              Baa    -0.0000    -0.000    -0.000    -0.000  0.3598  0.1761  0.9163
     6 H(1)   Bbb     0.0000     0.000     0.000     0.000 -0.4596  0.8881  0.0098
              Bcc     0.0000     0.000     0.000     0.000  0.8120  0.4246 -0.4005
 
              Baa    -0.0000    -0.000    -0.000    -0.000  0.8381  0.5309  0.1254
     7 H(1)   Bbb     0.0000     0.000     0.000     0.000  0.0630 -0.3227  0.9444
              Bcc     0.0000     0.000     0.000     0.000 -0.5418  0.7836  0.3039
 
              Baa    -0.0000    -0.000    -0.000    -0.000  0.9175  0.3938 -0.0556
     8 C(13)  Bbb    -0.0000    -0.000    -0.000    -0.000 -0.1494  0.4709  0.8695
              Bcc     0.0000     0.000     0.000     0.000 -0.3686  0.7894 -0.4909
 
              Baa    -0.0000    -0.000    -0.000    -0.000  0.1448 -0.3589  0.9221
     9 H(1)   Bbb    -0.0000    -0.000    -0.000    -0.000 -0.0633  0.9266  0.3707
              Bcc     0.0000     0.000     0.000     0.000  0.9874  0.1121 -0.1115
 
              Baa    -0.0000     0.000     0.000     0.000  0.1814  0.0983  0.9785
    10 O(17)  Bbb     0.0000    -0.000    -0.000    -0.000  0.8737  0.4406 -0.2062
              Bcc     0.0000    -0.000    -0.000    -0.000 -0.4514  0.8923 -0.0060
 
              Baa    -0.0000    -0.000    -0.000    -0.000  0.8193 -0.2929  0.4928
    11 C(13)  Bbb    -0.0000    -0.000    -0.000    -0.000 -0.5023  0.0475  0.8634
              Bcc     0.0000     0.000     0.000     0.000  0.2763  0.9550  0.1082
 
              Baa    -0.0000    -0.000    -0.000    -0.000 -0.5444  0.8367 -0.0592
    12 H(1)   Bbb     0.0000     0.000     0.000     0.000  0.8040  0.5406  0.2474
              Bcc     0.0000     0.000     0.000     0.000 -0.2391 -0.0871  0.9671
 
              Baa    -0.0000    -0.000    -0.000    -0.000  0.0525 -0.4140  0.9087
    13 H(1)   Bbb     0.0000     0.000     0.000     0.000 -0.0830  0.9050  0.4171
              Bcc     0.0000     0.000     0.000     0.000  0.9952  0.0973 -0.0131
 
              Baa    -0.0000    -0.000    -0.000    -0.000 -0.5753  0.6566  0.4877
    14 H(1)   Bbb    -0.0000    -0.000    -0.000    -0.000  0.2191  0.6982 -0.6816
              Bcc     0.0000     0.000     0.000     0.000  0.7880  0.2853  0.5455
 
              Baa    -0.0000    -0.000    -0.000    -0.000  0.3054 -0.2597  0.9161
    15 H(1)   Bbb     0.0000     0.000     0.000     0.000  0.7862 -0.4740 -0.3964
              Bcc     0.0000     0.000     0.000     0.000  0.5372  0.8414  0.0594
 

 ---------------------------------------------------------------------------------

 CPIOFr:  IOpCl= 1 IRwI=-1 IRwCP=  731 ICalc= -1 LCPTot=      109267 Len1MO=      357496 IndFrg=      109267
 CPIOFr:  IOpCl= 1 IRwI=-1 IRwCP=  731 ICalc=  0 LCPTot=      109267 Len1MO=      357496 IndFrg=      466763
 Counterpoise: doing calculation for fragment   1 using the basis set of the full-system, NewBq=T
 Basis read from rwf:  (5D, 7F)
 Pseudo-potential data read from rwf file.
   265 basis functions,   421 primitive gaussians,   300 cartesian basis functions
    16 alpha electrons       15 beta electrons
       nuclear repulsion energy       114.5285889720 Hartrees.
 NAtoms=   15 NActive=   15 NUniq=   15 SFac= 1.00D+00 NAtFMM=   60 NAOKFM=F Big=F
 Integral buffers will be    131072 words long.
 Raffenetti 2 integral format.
 Two-electron integral symmetry is turned off.
 One-electron integrals computed using PRISM.
   1 Symmetry operations used in ECPInt.
 ECPInt:  NShTT=    5995 NPrTT=   17944 LenC2=    5879 LenP2D=   14191.
 LDataN:  DoStor=T MaxTD1= 6 Len=  172
 NBasis=   265 RedAO= T EigKep=  1.97D-04  NBF=   265
 NBsUse=   265 1.00D-06 EigRej= -1.00D+00 NBFU=   265
 ExpMin= 9.52D-02 ExpMax= 2.70D+04 ExpMxC= 9.22D+02 IAcc=3 IRadAn=         5 AccDes= 0.00D+00
 Harris functional with IExCor= 1009 and IRadAn=       5 diagonalized for initial guess.
 HarFok:  IExCor= 1009 AccDes= 0.00D+00 IRadAn=         5 IDoV= 1 UseB2=F ITyADJ=14
 ICtDFT=  3500011 ScaDFX=  1.000000  1.000000  1.000000  1.000000
 FoFCou: FMM=F IPFlag=           0 FMFlag=      100000 FMFlg1=           0
         NFxFlg=           0 DoJE=T BraDBF=F KetDBF=T FulRan=T
         wScrn=  0.000000 ICntrl=       500 IOpCl=  0 I1Cent=   200000004 NGrid=           0
         NMat0=    1 NMatS0=      1 NMatT0=    0 NMatD0=    1 NMtDS0=    0 NMtDT0=    0
 Symmetry not used in FoFCou.
 Initial guess <Sx>= 0.0000 <Sy>= 0.0000 <Sz>= 0.5000 <S**2>= 0.7500 S= 0.5000
 Requested convergence on RMS density matrix=1.00D-08 within 128 cycles.
 Requested convergence on MAX density matrix=1.00D-06.
 Requested convergence on             energy=1.00D-06.
 No special actions if energy rises.
 Integral accuracy reduced to 1.0D-05 until final iterations.
 Initial convergence to 1.0D-05 achieved.  Increase integral accuracy.
 SCF Done:  E(UM062X) =  -228.395586548     A.U. after   17 cycles
            NFock= 17  Conv=0.84D-08     -V/T= 2.0046
 <Sx>= 0.0000 <Sy>= 0.0000 <Sz>= 0.5000 <S**2>= 0.7547 S= 0.5024
 <L.S>= 0.000000000000E+00
 Annihilation of the first spin contaminant:
 S**2 before annihilation     0.7547,   after     0.7500

 **********************************************************************

            Population analysis using the SCF Density.

 **********************************************************************

 Alpha  occ. eigenvalues --  -19.70372 -19.67061 -10.69243 -10.60972  -1.26978
 Alpha  occ. eigenvalues --   -1.18108  -0.85025  -0.68147  -0.60275  -0.59400
 Alpha  occ. eigenvalues --   -0.59127  -0.49343  -0.49039  -0.44585  -0.40660
 Alpha  occ. eigenvalues --   -0.32242
 Alpha virt. eigenvalues --    0.03009   0.05653   0.07819   0.10497   0.11947
 Alpha virt. eigenvalues --    0.12537   0.13319   0.14587   0.16880   0.18528
 Alpha virt. eigenvalues --    0.21565   0.22424   0.24697   0.25770   0.26720
 Alpha virt. eigenvalues --    0.28381   0.29709   0.31255   0.32961   0.34930
 Alpha virt. eigenvalues --    0.35279   0.35923   0.36396   0.38816   0.39790
 Alpha virt. eigenvalues --    0.42177   0.45233   0.47151   0.47727   0.48971
 Alpha virt. eigenvalues --    0.51692   0.52304   0.53031   0.56044   0.59146
 Alpha virt. eigenvalues --    0.61133   0.61586   0.64109   0.65656   0.66070
 Alpha virt. eigenvalues --    0.67495   0.70663   0.73888   0.75223   0.76463
 Alpha virt. eigenvalues --    0.80754   0.82128   0.84421   0.85721   0.86661
 Alpha virt. eigenvalues --    0.93192   0.94866   0.96804   0.97038   1.00014
 Alpha virt. eigenvalues --    1.01465   1.04939   1.07361   1.08762   1.10908
 Alpha virt. eigenvalues --    1.13118   1.15294   1.15660   1.17937   1.23018
 Alpha virt. eigenvalues --    1.27039   1.34488   1.36064   1.38896   1.39681
 Alpha virt. eigenvalues --    1.44729   1.46904   1.48645   1.50372   1.53099
 Alpha virt. eigenvalues --    1.54651   1.56273   1.56557   1.60257   1.60955
 Alpha virt. eigenvalues --    1.62129   1.63723   1.66762   1.69567   1.74552
 Alpha virt. eigenvalues --    1.79590   1.80721   1.87117   1.90579   1.92589
 Alpha virt. eigenvalues --    1.93875   1.97376   1.97999   2.00064   2.04402
 Alpha virt. eigenvalues --    2.05357   2.06633   2.08152   2.11895   2.14835
 Alpha virt. eigenvalues --    2.16564   2.17386   2.25025   2.25656   2.27081
 Alpha virt. eigenvalues --    2.33593   2.34281   2.36221   2.39855   2.42794
 Alpha virt. eigenvalues --    2.43505   2.47763   2.52097   2.52900   2.53149
 Alpha virt. eigenvalues --    2.55902   2.61221   2.64017   2.67801   2.68827
 Alpha virt. eigenvalues --    2.72524   2.76590   2.78981   2.83752   2.84285
 Alpha virt. eigenvalues --    2.89792   2.92771   2.96314   2.99682   3.00436
 Alpha virt. eigenvalues --    3.01933   3.04024   3.08066   3.09355   3.11405
 Alpha virt. eigenvalues --    3.15121   3.17032   3.19450   3.21404   3.21689
 Alpha virt. eigenvalues --    3.24956   3.27040   3.28935   3.30202   3.33177
 Alpha virt. eigenvalues --    3.35610   3.37110   3.38477   3.40573   3.44791
 Alpha virt. eigenvalues --    3.45442   3.47846   3.51034   3.52854   3.56721
 Alpha virt. eigenvalues --    3.59213   3.62994   3.66356   3.68802   3.78275
 Alpha virt. eigenvalues --    3.90315   3.91421   3.95908   3.99774   4.03193
 Alpha virt. eigenvalues --    4.13179   4.16184   4.19565   4.25039   4.27878
 Alpha virt. eigenvalues --    4.29352   4.29536   4.38127   4.38831   4.40874
 Alpha virt. eigenvalues --    4.44749   4.46017   4.51004   4.61667   4.68331
 Alpha virt. eigenvalues --    4.68493   4.73969   4.80959   4.87790   4.92986
 Alpha virt. eigenvalues --    5.00643   5.03085   5.10005   5.11672   5.15837
 Alpha virt. eigenvalues --    5.19477   5.30944   5.32399   5.34843   5.44314
 Alpha virt. eigenvalues --    5.48962   5.56490   5.57767   5.63877   5.66735
 Alpha virt. eigenvalues --    5.71895   5.81960   5.84662   5.90608   5.98217
 Alpha virt. eigenvalues --    6.04284   6.05627   6.13430   6.18826   6.25823
 Alpha virt. eigenvalues --    6.30453   6.35298   6.37198   6.37783   6.48556
 Alpha virt. eigenvalues --    6.51252   6.57115   6.63005   6.63735   6.72567
 Alpha virt. eigenvalues --    6.84569   6.86275   6.88069   6.96947   7.02318
 Alpha virt. eigenvalues --    7.10375   7.16990   7.24906   7.38779   7.45589
 Alpha virt. eigenvalues --    7.82549   8.54761   8.97127   9.07543   9.22904
 Alpha virt. eigenvalues --    9.44724   9.47425   9.69676   9.80847  10.04580
 Alpha virt. eigenvalues --   11.17486  18.32296  22.42571  23.44455  43.99536
 Alpha virt. eigenvalues --   44.21566  62.26077  66.63284 119.56340
  Beta  occ. eigenvalues --  -19.70113 -19.66474 -10.68289 -10.60932  -1.25494
  Beta  occ. eigenvalues --   -1.16365  -0.83743  -0.66829  -0.58516  -0.58168
  Beta  occ. eigenvalues --   -0.56810  -0.48543  -0.46714  -0.42046  -0.40457
  Beta virt. eigenvalues --   -0.07509   0.04750   0.07048   0.08083   0.10638
  Beta virt. eigenvalues --    0.12722   0.12985   0.13849   0.14682   0.18796
  Beta virt. eigenvalues --    0.19129   0.21860   0.22802   0.24294   0.25695
  Beta virt. eigenvalues --    0.27126   0.28668   0.29889   0.32168   0.33426
  Beta virt. eigenvalues --    0.35152   0.36537   0.36963   0.37760   0.39161
  Beta virt. eigenvalues --    0.39396   0.43250   0.45639   0.47315   0.47760
  Beta virt. eigenvalues --    0.48992   0.51305   0.51900   0.52822   0.56277
  Beta virt. eigenvalues --    0.59282   0.60523   0.61144   0.63241   0.65046
  Beta virt. eigenvalues --    0.66311   0.67185   0.70942   0.74008   0.74999
  Beta virt. eigenvalues --    0.77403   0.78770   0.79984   0.84471   0.85892
  Beta virt. eigenvalues --    0.86714   0.91850   0.92799   0.93887   0.96285
  Beta virt. eigenvalues --    0.97803   0.98846   1.02140   1.03984   1.07568
  Beta virt. eigenvalues --    1.08644   1.10809   1.13072   1.15511   1.17258
  Beta virt. eigenvalues --    1.22875   1.23623   1.28727   1.34006   1.35024
  Beta virt. eigenvalues --    1.39240   1.40535   1.41033   1.44985   1.48816
  Beta virt. eigenvalues --    1.51123   1.52858   1.54743   1.56576   1.57874
  Beta virt. eigenvalues --    1.58230   1.60863   1.61921   1.62395   1.67075
  Beta virt. eigenvalues --    1.71770   1.75989   1.77223   1.81224   1.83899
  Beta virt. eigenvalues --    1.86892   1.91240   1.93899   1.97009   1.99560
  Beta virt. eigenvalues --    2.02812   2.04896   2.06005   2.09479   2.10224
  Beta virt. eigenvalues --    2.13114   2.14832   2.16124   2.21963   2.25171
  Beta virt. eigenvalues --    2.25818   2.29767   2.32080   2.33297   2.37062
  Beta virt. eigenvalues --    2.37880   2.41891   2.43889   2.47471   2.49596
  Beta virt. eigenvalues --    2.52824   2.55682   2.58304   2.62196   2.64128
  Beta virt. eigenvalues --    2.66111   2.67657   2.74702   2.75373   2.79970
  Beta virt. eigenvalues --    2.82327   2.84015   2.88511   2.93498   2.96703
  Beta virt. eigenvalues --    3.01249   3.01992   3.02933   3.05645   3.07673
  Beta virt. eigenvalues --    3.09836   3.11650   3.13269   3.17265   3.19033
  Beta virt. eigenvalues --    3.19495   3.20159   3.22626   3.26228   3.27313
  Beta virt. eigenvalues --    3.29996   3.32229   3.33589   3.34847   3.38146
  Beta virt. eigenvalues --    3.39891   3.40364   3.43064   3.45459   3.51422
  Beta virt. eigenvalues --    3.51876   3.55342   3.57073   3.58882   3.62742
  Beta virt. eigenvalues --    3.65155   3.73518   3.74590   3.81550   3.82254
  Beta virt. eigenvalues --    3.91331   3.95259   3.96112   4.00465   4.04796
  Beta virt. eigenvalues --    4.07053   4.10575   4.16134   4.17371   4.23330
  Beta virt. eigenvalues --    4.25726   4.29786   4.32870   4.34865   4.38259
  Beta virt. eigenvalues --    4.42981   4.46986   4.50466   4.54610   4.58503
  Beta virt. eigenvalues --    4.65013   4.71507   4.74986   4.84889   4.96067
  Beta virt. eigenvalues --    4.99503   5.03600   5.06108   5.15313   5.16091
  Beta virt. eigenvalues --    5.23926   5.29658   5.29995   5.42987   5.50292
  Beta virt. eigenvalues --    5.55558   5.58464   5.66908   5.69397   5.80603
  Beta virt. eigenvalues --    5.82928   5.91166   5.96369   5.97176   6.03051
  Beta virt. eigenvalues --    6.08221   6.12296   6.16336   6.24058   6.30433
  Beta virt. eigenvalues --    6.32661   6.40250   6.40831   6.51912   6.59906
  Beta virt. eigenvalues --    6.62609   6.64628   6.68488   6.75741   6.80653
  Beta virt. eigenvalues --    6.86525   6.95233   6.99008   7.10474   7.27829
  Beta virt. eigenvalues --    7.36367   7.59442   8.39737   8.66227   8.87943
  Beta virt. eigenvalues --    8.94921   9.05104   9.18265   9.33721   9.55605
  Beta virt. eigenvalues --    9.71663  10.35731  18.02933  22.42678  23.45540
  Beta virt. eigenvalues --   43.99403  44.21496  56.17267  63.05708 117.29510
          Condensed to atoms (all electrons):
               1          2          3          4          5          6
     1  C    4.975084   0.516461   0.301901  -0.029552  -0.012090   0.005971
     2  O    0.516461   7.775137  -0.067773   0.001321   0.002962   0.001678
     3  O    0.301901  -0.067773   7.928944   0.179522  -0.030549  -0.030890
     4  C   -0.029552   0.001321   0.179522   4.881757   0.420854   0.397258
     5  H   -0.012090   0.002962  -0.030549   0.420854   0.525916  -0.023421
     6  H    0.005971   0.001678  -0.030890   0.397258  -0.023421   0.519946
     7  H   -0.008115   0.003233  -0.033767   0.418516  -0.042036  -0.023074
     8  C    0.011097  -0.016329  -0.033455  -0.000217  -0.001154   0.000716
     9  H    0.005931  -0.000645   0.003675   0.000158  -0.000132  -0.000028
    10  O   -0.008018   0.002740   0.000595  -0.000045   0.000009  -0.000003
    11  C    0.000167  -0.001614   0.001795  -0.000233   0.000193   0.000101
    12  H    0.000334  -0.000106   0.000106   0.000010   0.000003   0.000001
    13  H    0.002563   0.000542  -0.000708   0.000121  -0.000014  -0.000010
    14  H   -0.000142   0.000200   0.006251  -0.000226   0.000061  -0.000135
    15  H   -0.004921   0.007925   0.000595  -0.000103   0.000002  -0.000005
               7          8          9         10         11         12
     1  C   -0.008115   0.011097   0.005931  -0.008018   0.000167   0.000334
     2  O    0.003233  -0.016329  -0.000645   0.002740  -0.001614  -0.000106
     3  O   -0.033767  -0.033455   0.003675   0.000595   0.001795   0.000106
     4  C    0.418516  -0.000217   0.000158  -0.000045  -0.000233   0.000010
     5  H   -0.042036  -0.001154  -0.000132   0.000009   0.000193   0.000003
     6  H   -0.023074   0.000716  -0.000028  -0.000003   0.000101   0.000001
     7  H    0.526778  -0.000256   0.000129  -0.000000  -0.000611  -0.000006
     8  C   -0.000256   0.026845  -0.002517  -0.002985  -0.001336  -0.000066
     9  H    0.000129  -0.002517   0.001778   0.000053  -0.000333  -0.000082
    10  O   -0.000000  -0.002985   0.000053   0.001085   0.000160  -0.000003
    11  C   -0.000611  -0.001336  -0.000333   0.000160   0.004019  -0.000077
    12  H   -0.000006  -0.000066  -0.000082  -0.000003  -0.000077   0.000319
    13  H    0.000098   0.000139   0.000092  -0.000012  -0.000723  -0.000133
    14  H    0.000021  -0.001517   0.000095   0.000072  -0.000948   0.000143
    15  H    0.000007  -0.000638  -0.000053   0.000166   0.000109  -0.000011
              13         14         15
     1  C    0.002563  -0.000142  -0.004921
     2  O    0.000542   0.000200   0.007925
     3  O   -0.000708   0.006251   0.000595
     4  C    0.000121  -0.000226  -0.000103
     5  H   -0.000014   0.000061   0.000002
     6  H   -0.000010  -0.000135  -0.000005
     7  H    0.000098   0.000021   0.000007
     8  C    0.000139  -0.001517  -0.000638
     9  H    0.000092   0.000095  -0.000053
    10  O   -0.000012   0.000072   0.000166
    11  C   -0.000723  -0.000948   0.000109
    12  H   -0.000133   0.000143  -0.000011
    13  H    0.000462   0.000022  -0.000015
    14  H    0.000022   0.001197  -0.000009
    15  H   -0.000015  -0.000009   0.000671
          Atomic-Atomic Spin Densities.
               1          2          3          4          5          6
     1  C    0.903480  -0.172300  -0.117191   0.017986   0.000366   0.000184
     2  O   -0.172300   0.389650   0.006963   0.008720  -0.000075   0.000008
     3  O   -0.117191   0.006963   0.158558  -0.027005   0.000517  -0.000235
     4  C    0.017986   0.008720  -0.027005   0.066883  -0.000623   0.000284
     5  H    0.000366  -0.000075   0.000517  -0.000623  -0.003200   0.000028
     6  H    0.000184   0.000008  -0.000235   0.000284   0.000028  -0.002573
     7  H    0.000154  -0.000136   0.000672  -0.000139   0.000521  -0.000101
     8  C    0.047934  -0.005731  -0.009103   0.001451   0.000025  -0.000041
     9  H    0.002600  -0.000590  -0.000291   0.000186   0.000010   0.000009
    10  O   -0.009196   0.002179   0.000416  -0.000095  -0.000002  -0.000001
    11  C   -0.003152   0.000682  -0.000298  -0.000051  -0.000039   0.000007
    12  H    0.000635  -0.000043  -0.000110   0.000014  -0.000000   0.000000
    13  H    0.000855  -0.000234  -0.000054   0.000051   0.000002   0.000002
    14  H    0.000071  -0.000007   0.000067   0.000001   0.000002  -0.000005
    15  H   -0.005883   0.002733   0.000381  -0.000128  -0.000002  -0.000001
               7          8          9         10         11         12
     1  C    0.000154   0.047934   0.002600  -0.009196  -0.003152   0.000635
     2  O   -0.000136  -0.005731  -0.000590   0.002179   0.000682  -0.000043
     3  O    0.000672  -0.009103  -0.000291   0.000416  -0.000298  -0.000110
     4  C   -0.000139   0.001451   0.000186  -0.000095  -0.000051   0.000014
     5  H    0.000521   0.000025   0.000010  -0.000002  -0.000039  -0.000000
     6  H   -0.000101  -0.000041   0.000009  -0.000001   0.000007   0.000000
     7  H   -0.003384  -0.000140   0.000001  -0.000001   0.000106   0.000000
     8  C   -0.000140   0.005702  -0.000328  -0.001263   0.000391   0.000121
     9  H    0.000001  -0.000328   0.000169  -0.000041   0.000183   0.000031
    10  O   -0.000001  -0.001263  -0.000041   0.000544   0.000094  -0.000030
    11  C    0.000106   0.000391   0.000183   0.000094  -0.001271  -0.000085
    12  H    0.000000   0.000121   0.000031  -0.000030  -0.000085   0.000021
    13  H   -0.000007   0.000035  -0.000004  -0.000024   0.000170   0.000033
    14  H   -0.000011  -0.000420   0.000034   0.000005   0.000215  -0.000015
    15  H   -0.000004  -0.000346  -0.000075   0.000144   0.000012  -0.000011
              13         14         15
     1  C    0.000855   0.000071  -0.005883
     2  O   -0.000234  -0.000007   0.002733
     3  O   -0.000054   0.000067   0.000381
     4  C    0.000051   0.000001  -0.000128
     5  H    0.000002   0.000002  -0.000002
     6  H    0.000002  -0.000005  -0.000001
     7  H   -0.000007  -0.000011  -0.000004
     8  C    0.000035  -0.000420  -0.000346
     9  H   -0.000004   0.000034  -0.000075
    10  O   -0.000024   0.000005   0.000144
    11  C    0.000170   0.000215   0.000012
    12  H    0.000033  -0.000015  -0.000011
    13  H   -0.000032   0.000001  -0.000025
    14  H    0.000001  -0.000026   0.000002
    15  H   -0.000025   0.000002   0.000274
 Mulliken charges and spin densities:
               1          2
     1  C    0.243330   0.666541
     2  O   -0.225731   0.231820
     3  O   -0.226241   0.013287
     4  C   -0.269142   0.067535
     5  H    0.159396  -0.002471
     6  H    0.151895  -0.002435
     7  H    0.159083  -0.002468
     8  C    0.021674   0.038286
     9  H   -0.008121   0.001894
    10  O    0.006186  -0.007269
    11  C   -0.000669  -0.003037
    12  H   -0.000433   0.000563
    13  H   -0.002423   0.000769
    14  H   -0.005085  -0.000086
    15  H   -0.003719  -0.002929
 Sum of Mulliken charges =  -0.00000   1.00000
 Mulliken charges and spin densities with hydrogens summed into heavy atoms:
               1          2
     1  C    0.243330   0.666541
     2  O   -0.225731   0.231820
     3  O   -0.226241   0.013287
     4  C    0.201233   0.060161
     8  C    0.013554   0.040180
    10  O    0.002467  -0.010198
    11  C   -0.008611  -0.001790
         Mulliken charges and spin densities condensed to fragments:
      1     -0.007410      0.971808
      2      0.007410      0.028192
 Electronic spatial extent (au):  <R**2>=            412.3229
 Charge=              0.0000 electrons
 Dipole moment (field-independent basis, Debye):
    X=              0.8059    Y=              0.0789    Z=              2.2402  Tot=              2.3820
 Quadrupole moment (field-independent basis, Debye-Ang):
   XX=            -23.1763   YY=            -25.1805   ZZ=            -17.5069
   XY=             -2.3766   XZ=              0.6433   YZ=             -3.1531
 Traceless Quadrupole moment (field-independent basis, Debye-Ang):
   XX=             -1.2217   YY=             -3.2259   ZZ=              4.4477
   XY=             -2.3766   XZ=              0.6433   YZ=             -3.1531
 Octapole moment (field-independent basis, Debye-Ang**2):
  XXX=            -14.1755  YYY=             54.5255  ZZZ=            -53.6040  XYY=             -1.4222
  XXY=             16.6344  XXZ=            -21.8091  XZZ=             -1.0820  YZZ=             11.3653
  YYZ=            -20.5678  XYZ=             -1.1885
 Hexadecapole moment (field-independent basis, Debye-Ang**3):
 XXXX=            -63.5749 YYYY=           -149.0200 ZZZZ=           -269.3221 XXXY=             -1.7665
 XXXZ=            -41.0439 YYYX=             -6.6866 YYYZ=             42.9454 ZZZX=            -28.8279
 ZZZY=             35.7847 XXYY=            -33.8954 XXZZ=            -57.2021 YYZZ=            -71.4882
 XXYZ=             13.9398 YYXZ=            -11.9896 ZZXY=             -2.0361
 N-N= 1.145285889720D+02 E-N=-7.649548494319D+02  KE= 2.273483425976D+02
                          Isotropic Fermi Contact Couplings
        Atom                 a.u.       MegaHertz       Gauss      10(-4) cm-1
     1  C(13)              0.66032     742.32879     264.88137     247.61423
     2  O(17)              0.08479     -51.40020     -18.34087     -17.14526
     3  O(17)              0.34424    -208.67989     -74.46217     -69.60812
     4  C(13)              0.01431      16.08848       5.74077       5.36654
     5  H(1)              -0.00101      -4.51265      -1.61023      -1.50526
     6  H(1)              -0.00037      -1.65775      -0.59153      -0.55297
     7  H(1)              -0.00101      -4.51121      -1.60971      -1.50478
     8  C(13)              0.00430       4.83871       1.72657       1.61402
     9  H(1)               0.00043       1.92761       0.68782       0.64298
    10  O(17)              0.00006      -0.03799      -0.01356      -0.01267
    11  C(13)              0.00010       0.10930       0.03900       0.03646
    12  H(1)               0.00000       0.02189       0.00781       0.00730
    13  H(1)               0.00003       0.14410       0.05142       0.04807
    14  H(1)               0.00002       0.08473       0.03023       0.02826
    15  H(1)              -0.00008      -0.34699      -0.12381      -0.11574
 --------------------------------------------------------
       Center         ----  Spin Dipole Couplings  ----
                      3XX-RR        3YY-RR        3ZZ-RR
 --------------------------------------------------------
     1   Atom       -0.290495      0.187019      0.103476
     2   Atom       -0.702622     -0.091080      0.793702
     3   Atom       -0.115587     -0.135694      0.251281
     4   Atom       -0.039338      0.003497      0.035841
     5   Atom       -0.004537      0.000948      0.003589
     6   Atom       -0.004553     -0.002898      0.007451
     7   Atom       -0.000675     -0.007065      0.007740
     8   Atom       -0.053433      0.011047      0.042386
     9   Atom        0.004144     -0.002944     -0.001201
    10   Atom       -0.010577     -0.012149      0.022727
    11   Atom       -0.008873      0.019364     -0.010491
    12   Atom       -0.003954      0.005920     -0.001965
    13   Atom        0.002974      0.004881     -0.007856
    14   Atom       -0.007632      0.014591     -0.006959
    15   Atom       -0.008833     -0.007488      0.016321
 --------------------------------------------------------
                        XY            XZ            YZ
 --------------------------------------------------------
     1   Atom        0.059013     -0.104808     -0.491094
     2   Atom        0.011995      0.098694     -0.883427
     3   Atom        0.032203      0.160856      0.022623
     4   Atom        0.003372      0.000763     -0.053115
     5   Atom       -0.005494      0.004170     -0.003851
     6   Atom        0.002741      0.005736      0.001002
     7   Atom        0.001851     -0.002619     -0.003729
     8   Atom        0.001700     -0.006470     -0.082036
     9   Atom        0.020970     -0.023040     -0.019331
    10   Atom       -0.000244      0.009304     -0.002527
    11   Atom       -0.009918      0.002110     -0.007395
    12   Atom       -0.002282      0.001098     -0.005134
    13   Atom       -0.011835      0.001629     -0.001979
    14   Atom       -0.001347     -0.000231      0.003625
    15   Atom        0.005079      0.011516      0.005883
 --------------------------------------------------------


 ---------------------------------------------------------------------------------
              Anisotropic Spin Dipole Couplings in Principal Axis System
 ---------------------------------------------------------------------------------

       Atom             a.u.   MegaHertz   Gauss  10(-4) cm-1        Axes

              Baa    -0.3689   -49.498   -17.662   -16.511  0.4944  0.5454  0.6768
     1 C(13)  Bbb    -0.2831   -37.996   -13.558   -12.674  0.8608 -0.4153 -0.2942
              Bcc     0.6520    87.494    31.220    29.185  0.1206  0.7280 -0.6748
 
              Baa    -0.7421    53.696    19.160    17.911  0.8612 -0.4147 -0.2939
     2 O(17)  Bbb    -0.6002    43.430    15.497    14.487  0.5068  0.7439  0.4356
              Bcc     1.3423   -97.126   -34.657   -32.398  0.0380 -0.5241  0.8508
 
              Baa    -0.1863    13.478     4.809     4.496  0.8603 -0.4159 -0.2948
     3 O(17)  Bbb    -0.1279     9.255     3.302     3.087  0.3665  0.9065 -0.2095
              Bcc     0.3142   -22.734    -8.112    -7.583  0.3544  0.0723  0.9323
 
              Baa    -0.0412    -5.531    -1.974    -1.845  0.8614 -0.4142 -0.2940
     4 C(13)  Bbb    -0.0340    -4.561    -1.627    -1.521  0.5078  0.6883  0.5180
              Bcc     0.0752    10.092     3.601     3.366 -0.0122 -0.5955  0.8032
 
              Baa    -0.0082    -4.365    -1.558    -1.456  0.8741  0.4587 -0.1596
     5 H(1)   Bbb    -0.0013    -0.710    -0.253    -0.237 -0.2209  0.6682  0.7104
              Bcc     0.0095     5.075     1.811     1.693  0.4325 -0.5857  0.6854
 
              Baa    -0.0078    -4.188    -1.494    -1.397  0.8600 -0.4164 -0.2951
     6 H(1)   Bbb    -0.0022    -1.175    -0.419    -0.392  0.3340  0.8964 -0.2915
              Bcc     0.0101     5.363     1.914     1.789  0.3859  0.1521  0.9099
 
              Baa    -0.0082    -4.352    -1.553    -1.452 -0.1692  0.9654  0.1986
     7 H(1)   Bbb    -0.0013    -0.718    -0.256    -0.240  0.9442  0.1010  0.3136
              Bcc     0.0095     5.070     1.809     1.691 -0.2827 -0.2406  0.9286
 
              Baa    -0.0585    -7.844    -2.799    -2.616  0.5056  0.6531  0.5638
     8 C(13)  Bbb    -0.0520    -6.979    -2.490    -2.328  0.8620 -0.4104 -0.2976
              Bcc     0.1105    14.823     5.289     4.944 -0.0370 -0.6364  0.7705
 
              Baa    -0.0219   -11.676    -4.166    -3.895  0.4787  0.3089  0.8219
     9 H(1)   Bbb    -0.0207   -11.023    -3.933    -3.677 -0.6116  0.7889  0.0597
              Bcc     0.0425    22.700     8.100     7.572  0.6300  0.5312 -0.5665
 
              Baa    -0.0132     0.954     0.340     0.318  0.8720 -0.4177 -0.2553
    10 O(17)  Bbb    -0.0121     0.878     0.313     0.293  0.4204  0.9061 -0.0465
              Bcc     0.0253    -1.832    -0.654    -0.611  0.2508 -0.0668  0.9657
 
              Baa    -0.0123    -1.655    -0.591    -0.552  0.4674  0.3369  0.8173
    11 C(13)  Bbb    -0.0119    -1.593    -0.568    -0.531  0.8341  0.1384 -0.5340
              Bcc     0.0242     3.248     1.159     1.083 -0.2931  0.9313 -0.2163
 
              Baa    -0.0045    -2.404    -0.858    -0.802  0.3906  0.4741  0.7891
    12 H(1)   Bbb    -0.0044    -2.370    -0.846    -0.790  0.9002 -0.0173 -0.4352
              Bcc     0.0089     4.774     1.703     1.592 -0.1926  0.8803 -0.4335
 
              Baa    -0.0082    -4.380    -1.563    -1.461  0.2905  0.3945  0.8718
    13 H(1)   Bbb    -0.0079    -4.197    -1.498    -1.400  0.6794  0.5565 -0.4782
              Bcc     0.0161     8.577     3.060     2.861 -0.6738  0.7312 -0.1063
 
              Baa    -0.0077    -4.116    -1.469    -1.373  0.9963  0.0486  0.0715
    14 H(1)   Bbb    -0.0076    -4.029    -1.438    -1.344 -0.0626 -0.1649  0.9843
              Bcc     0.0153     8.145     2.906     2.717 -0.0596  0.9851  0.1613
 
              Baa    -0.0145    -7.755    -2.767    -2.587  0.8719 -0.4243 -0.2445
    15 H(1)   Bbb    -0.0081    -4.299    -1.534    -1.434  0.3233  0.8737 -0.3636
              Bcc     0.0226    12.054     4.301     4.021  0.3679  0.2379  0.8989
 

 ---------------------------------------------------------------------------------

 CPIOFr:  IOpCl= 1 IRwI=-1 IRwCP=  731 ICalc=  1 LCPTot=      109267 Len1MO=      357496 IndFrg=      824259
 Counterpoise: doing calculation for fragment   2 using the basis set of the full-system, NewBq=T
 Basis read from rwf:  (5D, 7F)
 Pseudo-potential data read from rwf file.
   265 basis functions,   421 primitive gaussians,   300 cartesian basis functions
    13 alpha electrons       12 beta electrons
       nuclear repulsion energy        74.4681128592 Hartrees.
 NAtoms=   15 NActive=   15 NUniq=   15 SFac= 1.00D+00 NAtFMM=   60 NAOKFM=F Big=F
 Integral buffers will be    131072 words long.
 Raffenetti 2 integral format.
 Two-electron integral symmetry is turned off.
 One-electron integrals computed using PRISM.
   1 Symmetry operations used in ECPInt.
 ECPInt:  NShTT=    5995 NPrTT=   17944 LenC2=    5879 LenP2D=   14191.
 LDataN:  DoStor=T MaxTD1= 6 Len=  172
 NBasis=   265 RedAO= T EigKep=  1.97D-04  NBF=   265
 NBsUse=   265 1.00D-06 EigRej= -1.00D+00 NBFU=   265
 ExpMin= 9.52D-02 ExpMax= 2.70D+04 ExpMxC= 9.22D+02 IAcc=3 IRadAn=         5 AccDes= 0.00D+00
 Harris functional with IExCor= 1009 and IRadAn=       5 diagonalized for initial guess.
 HarFok:  IExCor= 1009 AccDes= 0.00D+00 IRadAn=         5 IDoV= 1 UseB2=F ITyADJ=14
 ICtDFT=  3500011 ScaDFX=  1.000000  1.000000  1.000000  1.000000
 FoFCou: FMM=F IPFlag=           0 FMFlag=      100000 FMFlg1=           0
         NFxFlg=           0 DoJE=T BraDBF=F KetDBF=T FulRan=T
         wScrn=  0.000000 ICntrl=       500 IOpCl=  0 I1Cent=   200000004 NGrid=           0
         NMat0=    1 NMatS0=      1 NMatT0=    0 NMatD0=    1 NMtDS0=    0 NMtDT0=    0
 Symmetry not used in FoFCou.
 Initial guess <Sx>= 0.0000 <Sy>= 0.0000 <Sz>= 0.5000 <S**2>= 0.7500 S= 0.5000
 Requested convergence on RMS density matrix=1.00D-08 within 128 cycles.
 Requested convergence on MAX density matrix=1.00D-06.
 Requested convergence on             energy=1.00D-06.
 No special actions if energy rises.
 Integral accuracy reduced to 1.0D-05 until final iterations.
 Initial convergence to 1.0D-05 achieved.  Increase integral accuracy.
 SCF Done:  E(UM062X) =  -154.355296878     A.U. after   14 cycles
            NFock= 14  Conv=0.94D-08     -V/T= 2.0049
 <Sx>= 0.0000 <Sy>= 0.0000 <Sz>= 0.5000 <S**2>= 0.7539 S= 0.5020
 <L.S>= 0.000000000000E+00
 Annihilation of the first spin contaminant:
 S**2 before annihilation     0.7539,   after     0.7500

 **********************************************************************

            Population analysis using the SCF Density.

 **********************************************************************

 Alpha  occ. eigenvalues --  -19.63744 -10.59914 -10.52737  -1.15973  -0.84451
 Alpha  occ. eigenvalues --   -0.69753  -0.57565  -0.53599  -0.48861  -0.47047
 Alpha  occ. eigenvalues --   -0.44353  -0.35769  -0.28149
 Alpha virt. eigenvalues --    0.04048   0.07167   0.09340   0.11730   0.13445
 Alpha virt. eigenvalues --    0.15437   0.15551   0.16723   0.17478   0.20428
 Alpha virt. eigenvalues --    0.21356   0.22002   0.23809   0.26685   0.27555
 Alpha virt. eigenvalues --    0.28471   0.30506   0.31528   0.32779   0.34705
 Alpha virt. eigenvalues --    0.36914   0.39311   0.40604   0.42083   0.42940
 Alpha virt. eigenvalues --    0.44137   0.45768   0.47577   0.48514   0.49722
 Alpha virt. eigenvalues --    0.50966   0.53517   0.54254   0.55216   0.57551
 Alpha virt. eigenvalues --    0.58732   0.60803   0.60999   0.62934   0.66059
 Alpha virt. eigenvalues --    0.68389   0.70575   0.72233   0.74567   0.76185
 Alpha virt. eigenvalues --    0.78055   0.82002   0.87203   0.88993   0.92364
 Alpha virt. eigenvalues --    0.94620   0.96001   0.99142   1.01658   1.04343
 Alpha virt. eigenvalues --    1.06561   1.07512   1.09812   1.13313   1.14913
 Alpha virt. eigenvalues --    1.17303   1.17741   1.20330   1.23137   1.24034
 Alpha virt. eigenvalues --    1.27228   1.29443   1.33899   1.35385   1.40550
 Alpha virt. eigenvalues --    1.42485   1.44040   1.48603   1.50787   1.52972
 Alpha virt. eigenvalues --    1.57204   1.58946   1.60863   1.62610   1.63334
 Alpha virt. eigenvalues --    1.66524   1.70795   1.71717   1.73093   1.78084
 Alpha virt. eigenvalues --    1.83784   1.86073   1.87413   1.89604   1.90438
 Alpha virt. eigenvalues --    1.92754   1.96702   2.00744   2.02319   2.05916
 Alpha virt. eigenvalues --    2.06970   2.09290   2.14202   2.17818   2.19162
 Alpha virt. eigenvalues --    2.21209   2.24811   2.26337   2.30997   2.31676
 Alpha virt. eigenvalues --    2.32549   2.35455   2.37209   2.41164   2.45770
 Alpha virt. eigenvalues --    2.48861   2.50519   2.54954   2.56800   2.57152
 Alpha virt. eigenvalues --    2.59664   2.61285   2.62598   2.65464   2.68855
 Alpha virt. eigenvalues --    2.72348   2.77095   2.78463   2.80288   2.82332
 Alpha virt. eigenvalues --    2.85870   2.91309   2.92024   2.93257   2.95057
 Alpha virt. eigenvalues --    2.99864   3.02086   3.05384   3.09416   3.10550
 Alpha virt. eigenvalues --    3.13281   3.14783   3.14990   3.16764   3.18809
 Alpha virt. eigenvalues --    3.26678   3.27208   3.29214   3.34428   3.35222
 Alpha virt. eigenvalues --    3.37194   3.41481   3.41786   3.43846   3.46262
 Alpha virt. eigenvalues --    3.52514   3.53123   3.56805   3.60332   3.62344
 Alpha virt. eigenvalues --    3.72432   3.74682   3.82282   3.85602   3.94113
 Alpha virt. eigenvalues --    3.95964   4.01212   4.03312   4.05222   4.06024
 Alpha virt. eigenvalues --    4.09373   4.14422   4.19189   4.21515   4.28114
 Alpha virt. eigenvalues --    4.28467   4.30981   4.31535   4.37048   4.40125
 Alpha virt. eigenvalues --    4.43540   4.47938   4.51650   4.54064   4.57264
 Alpha virt. eigenvalues --    4.63578   4.70647   4.75634   4.79155   4.80129
 Alpha virt. eigenvalues --    4.90002   4.91641   4.93328   4.97147   5.11820
 Alpha virt. eigenvalues --    5.22112   5.30201   5.32440   5.43675   5.49780
 Alpha virt. eigenvalues --    5.58018   5.62912   5.66003   5.68972   5.74956
 Alpha virt. eigenvalues --    5.80415   5.82556   5.88806   6.00442   6.21413
 Alpha virt. eigenvalues --    6.21833   6.24970   6.34091   6.45881   6.54024
 Alpha virt. eigenvalues --    6.63751   6.77371   6.80071   6.81725   6.87949
 Alpha virt. eigenvalues --    6.97594   7.07517   7.10915   7.16795   7.48222
 Alpha virt. eigenvalues --    7.57192   7.79311   7.90179   8.20073   8.41016
 Alpha virt. eigenvalues --    8.76038   8.85820   8.95004   9.12236   9.14977
 Alpha virt. eigenvalues --    9.30532   9.49689   9.56505   9.57357   9.69817
 Alpha virt. eigenvalues --    9.79083   9.88767   9.98657  10.35689  10.38416
 Alpha virt. eigenvalues --   10.75123  11.18411  12.14071  18.59576  18.95784
 Alpha virt. eigenvalues --   22.44798  22.70985  44.11654  59.91013  65.91270
 Alpha virt. eigenvalues --  121.26109 121.91859
  Beta  occ. eigenvalues --  -19.63623 -10.59007 -10.52750  -1.15104  -0.83083
  Beta  occ. eigenvalues --   -0.68011  -0.55585  -0.50859  -0.47579  -0.46040
  Beta  occ. eigenvalues --   -0.43910  -0.35362
  Beta virt. eigenvalues --   -0.02978   0.04953   0.08157   0.10023   0.11798
  Beta virt. eigenvalues --    0.13738   0.15122   0.16742   0.17452   0.18205
  Beta virt. eigenvalues --    0.20725   0.21939   0.22361   0.24040   0.27112
  Beta virt. eigenvalues --    0.27541   0.30209   0.32428   0.32573   0.34878
  Beta virt. eigenvalues --    0.35657   0.37669   0.39946   0.41043   0.42164
  Beta virt. eigenvalues --    0.43349   0.44991   0.45184   0.46754   0.47666
  Beta virt. eigenvalues --    0.49625   0.50034   0.52512   0.53980   0.55508
  Beta virt. eigenvalues --    0.56829   0.59984   0.60656   0.62393   0.64280
  Beta virt. eigenvalues --    0.66595   0.69478   0.71179   0.73941   0.75461
  Beta virt. eigenvalues --    0.77408   0.79152   0.82263   0.85176   0.87728
  Beta virt. eigenvalues --    0.91515   0.92436   0.94946   0.98159   1.01613
  Beta virt. eigenvalues --    1.02825   1.07236   1.09600   1.13501   1.13805
  Beta virt. eigenvalues --    1.16212   1.16651   1.18263   1.18892   1.21261
  Beta virt. eigenvalues --    1.21927   1.25468   1.26232   1.33095   1.37635
  Beta virt. eigenvalues --    1.38053   1.42133   1.45372   1.47811   1.50093
  Beta virt. eigenvalues --    1.52209   1.53525   1.57529   1.58451   1.60448
  Beta virt. eigenvalues --    1.61243   1.63562   1.66148   1.68468   1.70962
  Beta virt. eigenvalues --    1.75302   1.76150   1.78790   1.81288   1.86225
  Beta virt. eigenvalues --    1.89997   1.92953   1.93536   1.97173   1.98623
  Beta virt. eigenvalues --    2.03282   2.06344   2.10753   2.13393   2.17689
  Beta virt. eigenvalues --    2.20744   2.21676   2.23210   2.24502   2.30234
  Beta virt. eigenvalues --    2.30810   2.31608   2.33311   2.35814   2.36811
  Beta virt. eigenvalues --    2.42898   2.45406   2.45968   2.48644   2.53270
  Beta virt. eigenvalues --    2.54257   2.56348   2.57402   2.59336   2.60099
  Beta virt. eigenvalues --    2.63553   2.65000   2.67940   2.71456   2.76522
  Beta virt. eigenvalues --    2.78003   2.79598   2.82500   2.89008   2.90718
  Beta virt. eigenvalues --    2.91434   3.00503   3.05512   3.06372   3.06586
  Beta virt. eigenvalues --    3.10408   3.11270   3.12154   3.15444   3.20225
  Beta virt. eigenvalues --    3.23508   3.24509   3.26801   3.29824   3.30458
  Beta virt. eigenvalues --    3.32890   3.36574   3.39323   3.41832   3.43603
  Beta virt. eigenvalues --    3.47670   3.49614   3.51832   3.56030   3.57946
  Beta virt. eigenvalues --    3.59220   3.61243   3.64669   3.65531   3.67708
  Beta virt. eigenvalues --    3.70093   3.76600   3.78321   3.82302   3.86308
  Beta virt. eigenvalues --    3.88222   3.95657   3.99386   4.02224   4.06669
  Beta virt. eigenvalues --    4.07065   4.09548   4.12520   4.23458   4.24141
  Beta virt. eigenvalues --    4.29542   4.30746   4.34579   4.36028   4.36633
  Beta virt. eigenvalues --    4.46485   4.50836   4.51550   4.55378   4.60793
  Beta virt. eigenvalues --    4.61363   4.68886   4.73740   4.77635   4.84734
  Beta virt. eigenvalues --    4.92440   4.98276   5.08512   5.19108   5.21027
  Beta virt. eigenvalues --    5.29523   5.38683   5.42559   5.49366   5.76305
  Beta virt. eigenvalues --    5.80590   5.86862   5.91674   5.93016   5.95832
  Beta virt. eigenvalues --    5.99115   6.03684   6.04220   6.18488   6.23347
  Beta virt. eigenvalues --    6.31350   6.36509   6.41757   6.46497   6.60965
  Beta virt. eigenvalues --    6.74499   6.77459   6.79942   6.82340   6.93526
  Beta virt. eigenvalues --    6.98310   7.04588   7.07776   7.15530   7.31537
  Beta virt. eigenvalues --    7.80401   8.33132   8.35625   8.49374   8.65790
  Beta virt. eigenvalues --    8.73476   8.85945   9.00265   9.01049   9.11777
  Beta virt. eigenvalues --    9.18751   9.24868   9.31575   9.39364   9.62681
  Beta virt. eigenvalues --    9.74240  10.00404  10.36085  10.95782  17.84160
  Beta virt. eigenvalues --   18.34169  22.44823  22.71993  44.11569  52.08144
  Beta virt. eigenvalues --   65.83719 120.04326 121.01334
          Condensed to atoms (all electrons):
               1          2          3          4          5          6
     1  C    0.041977  -0.003586  -0.004582   0.000467   0.000279   0.000064
     2  O   -0.003586   0.001513   0.000062  -0.000356   0.000039  -0.000004
     3  O   -0.004582   0.000062   0.006489  -0.000002  -0.000244  -0.000097
     4  C    0.000467  -0.000356  -0.000002   0.002753  -0.000407   0.000078
     5  H    0.000279   0.000039  -0.000244  -0.000407   0.000162  -0.000002
     6  H    0.000064  -0.000004  -0.000097   0.000078  -0.000002   0.000045
     7  H    0.000248   0.000055  -0.000228  -0.000387   0.000085  -0.000005
     8  C   -0.042763  -0.000059  -0.027957  -0.002782   0.000699   0.000069
     9  H   -0.017372  -0.000018  -0.001242  -0.000578   0.000032  -0.000013
    10  O    0.013062  -0.000346   0.000937   0.000469  -0.000045   0.000001
    11  C    0.026271  -0.000704   0.007305   0.001348  -0.000095  -0.000021
    12  H    0.004635  -0.000024  -0.000253  -0.000008   0.000002   0.000002
    13  H   -0.005716  -0.000000  -0.000216  -0.000165   0.000005  -0.000006
    14  H   -0.011544   0.000191   0.000041  -0.000194   0.000011  -0.000015
    15  H    0.014175  -0.001286   0.000291   0.000091  -0.000019  -0.000001
               7          8          9         10         11         12
     1  C    0.000248  -0.042763  -0.017372   0.013062   0.026271   0.004635
     2  O    0.000055  -0.000059  -0.000018  -0.000346  -0.000704  -0.000024
     3  O   -0.000228  -0.027957  -0.001242   0.000937   0.007305  -0.000253
     4  C   -0.000387  -0.002782  -0.000578   0.000469   0.001348  -0.000008
     5  H    0.000085   0.000699   0.000032  -0.000045  -0.000095   0.000002
     6  H   -0.000005   0.000069  -0.000013   0.000001  -0.000021   0.000002
     7  H    0.000167   0.000705  -0.000010  -0.000037  -0.000044   0.000003
     8  C    0.000705   5.486187   0.441459   0.231909   0.108577  -0.037899
     9  H   -0.000010   0.441459   0.599183  -0.047069  -0.110484  -0.003944
    10  O   -0.000037   0.231909  -0.047069   8.010011  -0.090836   0.001777
    11  C   -0.000044   0.108577  -0.110484  -0.090836   5.282532   0.400837
    12  H    0.000003  -0.037899  -0.003944   0.001777   0.400837   0.530457
    13  H   -0.000004  -0.020046   0.010182   0.010795   0.368023  -0.024985
    14  H    0.000021  -0.013415   0.002667   0.005475   0.377971  -0.022146
    15  H   -0.000019  -0.067912   0.005943   0.311234   0.004606  -0.000952
              13         14         15
     1  C   -0.005716  -0.011544   0.014175
     2  O   -0.000000   0.000191  -0.001286
     3  O   -0.000216   0.000041   0.000291
     4  C   -0.000165  -0.000194   0.000091
     5  H    0.000005   0.000011  -0.000019
     6  H   -0.000006  -0.000015  -0.000001
     7  H   -0.000004   0.000021  -0.000019
     8  C   -0.020046  -0.013415  -0.067912
     9  H    0.010182   0.002667   0.005943
    10  O    0.010795   0.005475   0.311234
    11  C    0.368023   0.377971   0.004606
    12  H   -0.024985  -0.022146  -0.000952
    13  H    0.548347  -0.017689   0.001237
    14  H   -0.017689   0.547603  -0.000530
    15  H    0.001237  -0.000530   0.396429
          Atomic-Atomic Spin Densities.
               1          2          3          4          5          6
     1  C    0.003179   0.000524  -0.004776   0.000255   0.000174   0.000101
     2  O    0.000524  -0.000231   0.000009   0.000112  -0.000001   0.000001
     3  O   -0.004776   0.000009   0.005253  -0.000449  -0.000214  -0.000104
     4  C    0.000255   0.000112  -0.000449  -0.000211   0.000034  -0.000026
     5  H    0.000174  -0.000001  -0.000214   0.000034   0.000035   0.000020
     6  H    0.000101   0.000001  -0.000104  -0.000026   0.000020   0.000020
     7  H    0.000197  -0.000000  -0.000219   0.000010   0.000027   0.000023
[...]
     7   Atom        0.001852     -0.002615     -0.003719
 --------------------------------------------------------


 ---------------------------------------------------------------------------------
              Anisotropic Spin Dipole Couplings in Principal Axis System
 ---------------------------------------------------------------------------------

       Atom             a.u.   MegaHertz   Gauss  10(-4) cm-1        Axes

              Baa    -0.3665   -49.186   -17.551   -16.407  0.4941  0.5448  0.6775
     1 C(13)  Bbb    -0.2814   -37.755   -13.472   -12.594  0.8609 -0.4151 -0.2941
              Bcc     0.6479    86.941    31.023    29.000  0.1210  0.7286 -0.6742
 
              Baa    -0.7453    53.926    19.242    17.988  0.8609 -0.4152 -0.2942
     2 O(17)  Bbb    -0.6033    43.655    15.577    14.562  0.5074  0.7440  0.4348
              Bcc     1.3486   -97.582   -34.820   -32.550  0.0383 -0.5236  0.8511
 
              Baa    -0.1874    13.557     4.837     4.522  0.8606 -0.4152 -0.2948
     3 O(17)  Bbb    -0.1276     9.232     3.294     3.079  0.3658  0.9069 -0.2094
              Bcc     0.3149   -22.788    -8.131    -7.601  0.3543  0.0723  0.9323
 
              Baa    -0.0413    -5.544    -1.978    -1.849  0.8613 -0.4144 -0.2940
     4 C(13)  Bbb    -0.0340    -4.568    -1.630    -1.524  0.5079  0.6882  0.5181
              Bcc     0.0754    10.112     3.608     3.373 -0.0123 -0.5956  0.8032
 
              Baa    -0.0082    -4.370    -1.559    -1.458  0.8738  0.4588 -0.1609
     5 H(1)   Bbb    -0.0013    -0.707    -0.252    -0.236 -0.2206  0.6690  0.7098
              Bcc     0.0095     5.076     1.811     1.693  0.4333 -0.5848  0.6858
 
              Baa    -0.0079    -4.189    -1.495    -1.397  0.8599 -0.4165 -0.2951
     6 H(1)   Bbb    -0.0022    -1.178    -0.420    -0.393  0.3342  0.8963 -0.2914
              Bcc     0.0101     5.368     1.915     1.790  0.3858  0.1520  0.9100
 
              Baa    -0.0082    -4.358    -1.555    -1.454 -0.1696  0.9655  0.1976
     7 H(1)   Bbb    -0.0013    -0.715    -0.255    -0.238  0.9443  0.1018  0.3131
              Bcc     0.0095     5.073     1.810     1.692 -0.2822 -0.2397  0.9289
 

 ---------------------------------------------------------------------------------

 CPIOFr:  IOpCl= 1 IRwI=-1 IRwCP=  731 ICalc=  3 LCPTot=      109267 Len1MO=      357496 IndFrg=     1539251
 Counterpoise: doing calculation for fragment   2 using the basis set of the fragment.
 Basis read from rwf:  (5D, 7F)
 Pseudo-potential data read from rwf file.
   123 basis functions,   193 primitive gaussians,   138 cartesian basis functions
    13 alpha electrons       12 beta electrons
       nuclear repulsion energy        74.4681128592 Hartrees.
 NAtoms=   15 NActive=    8 NUniq=    8 SFac= 1.00D+00 NAtFMM=   60 NAOKFM=F Big=F
 Integral buffers will be    131072 words long.
 Raffenetti 2 integral format.
 Two-electron integral symmetry is turned off.
 One-electron integrals computed using PRISM.
   1 Symmetry operations used in ECPInt.
 ECPInt:  NShTT=    1431 NPrTT=    4176 LenC2=    1428 LenP2D=    3706.
 LDataN:  DoStor=T MaxTD1= 6 Len=  172
 NBasis=   123 RedAO= T EigKep=  6.06D-04  NBF=   123
 NBsUse=   123 1.00D-06 EigRej= -1.00D+00 NBFU=   123
 ExpMin= 9.52D-02 ExpMax= 2.70D+04 ExpMxC= 9.22D+02 IAcc=3 IRadAn=         5 AccDes= 0.00D+00
 Harris functional with IExCor= 1009 and IRadAn=       5 diagonalized for initial guess.
 HarFok:  IExCor= 1009 AccDes= 0.00D+00 IRadAn=         5 IDoV= 1 UseB2=F ITyADJ=14
 ICtDFT=  3500011 ScaDFX=  1.000000  1.000000  1.000000  1.000000
 FoFCou: FMM=F IPFlag=           0 FMFlag=      100000 FMFlg1=           0
         NFxFlg=           0 DoJE=T BraDBF=F KetDBF=T FulRan=T
         wScrn=  0.000000 ICntrl=       500 IOpCl=  0 I1Cent=   200000004 NGrid=           0
         NMat0=    1 NMatS0=      1 NMatT0=    0 NMatD0=    1 NMtDS0=    0 NMtDT0=    0
 Symmetry not used in FoFCou.
 Initial guess <Sx>= 0.0000 <Sy>= 0.0000 <Sz>= 0.5000 <S**2>= 0.7500 S= 0.5000
 Keep R1 and R2 ints in memory in canonical form, NReq=92898605.
 Requested convergence on RMS density matrix=1.00D-08 within 128 cycles.
 Requested convergence on MAX density matrix=1.00D-06.
 Requested convergence on             energy=1.00D-06.
 No special actions if energy rises.
 Integral accuracy reduced to 1.0D-05 until final iterations.
 Initial convergence to 1.0D-05 achieved.  Increase integral accuracy.
 SCF Done:  E(UM062X) =  -154.354709969     A.U. after   15 cycles
            NFock= 15  Conv=0.71D-08     -V/T= 2.0049
 <Sx>= 0.0000 <Sy>= 0.0000 <Sz>= 0.5000 <S**2>= 0.7539 S= 0.5020
 <L.S>= 0.000000000000E+00
 Annihilation of the first spin contaminant:
 S**2 before annihilation     0.7539,   after     0.7500

 **********************************************************************

            Population analysis using the SCF Density.

 **********************************************************************

 Alpha  occ. eigenvalues --  -19.63679 -10.59911 -10.52730  -1.15947  -0.84441
 Alpha  occ. eigenvalues --   -0.69735  -0.57545  -0.53579  -0.48842  -0.47035
 Alpha  occ. eigenvalues --   -0.44346  -0.35743  -0.28119
 Alpha virt. eigenvalues --    0.07047   0.09824   0.12735   0.15316   0.16162
 Alpha virt. eigenvalues --    0.19811   0.20972   0.24981   0.26015   0.28824
 Alpha virt. eigenvalues --    0.31875   0.35156   0.37893   0.42837   0.44724
 Alpha virt. eigenvalues --    0.45518   0.47530   0.51714   0.53637   0.56738
 Alpha virt. eigenvalues --    0.58247   0.60527   0.63824   0.71551   0.75174
 Alpha virt. eigenvalues --    0.77518   0.88711   0.90730   0.97369   1.03366
 Alpha virt. eigenvalues --    1.05605   1.11378   1.14949   1.18768   1.37880
 Alpha virt. eigenvalues --    1.39762   1.50207   1.53238   1.55561   1.58188
 Alpha virt. eigenvalues --    1.60339   1.60961   1.69037   1.70214   1.78747
 Alpha virt. eigenvalues --    1.83859   1.86319   1.90078   1.91494   1.99707
 Alpha virt. eigenvalues --    2.03633   2.09913   2.15616   2.18142   2.27965
 Alpha virt. eigenvalues --    2.31524   2.34002   2.35723   2.42123   2.48704
 Alpha virt. eigenvalues --    2.50043   2.54214   2.56966   2.59515   2.69767
 Alpha virt. eigenvalues --    2.70511   2.79307   2.83017   2.86667   2.91413
 Alpha virt. eigenvalues --    2.97797   3.01859   3.05483   3.10038   3.11474
 Alpha virt. eigenvalues --    3.14313   3.21622   3.26843   3.32294   3.33732
 Alpha virt. eigenvalues --    3.47242   3.50837   3.59202   3.62630   3.73047
 Alpha virt. eigenvalues --    3.83899   3.89184   3.93359   3.95060   4.16325
 Alpha virt. eigenvalues --    4.32454   4.35926   4.44585   4.55596   4.65817
 Alpha virt. eigenvalues --    5.28007   5.33460   5.47284   5.71860   5.77660
 Alpha virt. eigenvalues --    5.86043   6.18943   6.41632   6.63309   6.75488
 Alpha virt. eigenvalues --    6.92709   7.07876  22.26436  22.41975  43.81608
  Beta  occ. eigenvalues --  -19.63558 -10.59009 -10.52743  -1.15075  -0.83073
  Beta  occ. eigenvalues --   -0.67992  -0.55568  -0.50836  -0.47557  -0.46022
  Beta  occ. eigenvalues --   -0.43897  -0.35334
  Beta virt. eigenvalues --   -0.02460   0.06697   0.09476   0.12796   0.14781
  Beta virt. eigenvalues --    0.15616   0.19708   0.21039   0.23405   0.24604
  Beta virt. eigenvalues --    0.27048   0.30269   0.35137   0.38206   0.42513
  Beta virt. eigenvalues --    0.45582   0.46240   0.48177   0.51750   0.54168
  Beta virt. eigenvalues --    0.56955   0.57900   0.60325   0.63792   0.72266
  Beta virt. eigenvalues --    0.75822   0.78195   0.89059   0.90931   0.97470
  Beta virt. eigenvalues --    1.03495   1.05655   1.11770   1.15069   1.19048
  Beta virt. eigenvalues --    1.38684   1.43096   1.50962   1.53227   1.56633
  Beta virt. eigenvalues --    1.58264   1.60562   1.61459   1.69769   1.71301
  Beta virt. eigenvalues --    1.78929   1.84735   1.87014   1.91105   1.92139
  Beta virt. eigenvalues --    2.00125   2.04294   2.10162   2.16447   2.18315
  Beta virt. eigenvalues --    2.28326   2.32222   2.34373   2.35923   2.43223
  Beta virt. eigenvalues --    2.49597   2.50440   2.55024   2.57160   2.59834
  Beta virt. eigenvalues --    2.70809   2.72306   2.79635   2.85274   2.89029
  Beta virt. eigenvalues --    2.93228   2.99304   3.03519   3.07373   3.11924
  Beta virt. eigenvalues --    3.14023   3.16836   3.24818   3.29081   3.34320
  Beta virt. eigenvalues --    3.36160   3.48891   3.55352   3.60872   3.64173
  Beta virt. eigenvalues --    3.74633   3.85359   3.91666   3.93986   3.96492
  Beta virt. eigenvalues --    4.18919   4.33156   4.37315   4.46072   4.56878
  Beta virt. eigenvalues --    4.70801   5.28206   5.33613   5.47487   5.72573
  Beta virt. eigenvalues --    5.78152   5.86134   6.18820   6.41948   6.63770
  Beta virt. eigenvalues --    6.75527   6.92973   7.08099  22.27473  22.42169
  Beta virt. eigenvalues --   43.81543
          Condensed to atoms (all electrons):
               8          9         10         11         12         13
     8  C    5.345046   0.410604   0.223953   0.206414  -0.028747  -0.032917
     9  H    0.410604   0.607911  -0.048337  -0.103324  -0.005973   0.010699
    10  O    0.223953  -0.048337   8.050075  -0.093347   0.002444   0.009583
    11  C    0.206414  -0.103324  -0.093347   5.202293   0.391203   0.375050
    12  H   -0.028747  -0.005973   0.002444   0.391203   0.548807  -0.030267
    13  H   -0.032917   0.010699   0.009583   0.375050  -0.030267   0.557380
    14  H   -0.027424   0.003098   0.006419   0.377466  -0.023744  -0.017512
    15  H   -0.050198   0.006548   0.298057   0.004272  -0.001237   0.001664
              14         15
     8  C   -0.027424  -0.050198
     9  H    0.003098   0.006548
    10  O    0.006419   0.298057
    11  C    0.377466   0.004272
    12  H   -0.023744  -0.001237
    13  H   -0.017512   0.001664
    14  H    0.554593  -0.000647
    15  H   -0.000647   0.406295
          Atomic-Atomic Spin Densities.
               8          9         10         11         12         13
     8  C    1.252717  -0.043420  -0.096234  -0.066848  -0.009406  -0.019146
     9  H   -0.043420   0.008342   0.005158   0.020139  -0.007463   0.001041
    10  O   -0.096234   0.005158   0.087135   0.011241   0.002603   0.001276
    11  C   -0.066848   0.020139   0.011241  -0.032307  -0.004201   0.016622
    12  H   -0.009406  -0.007463   0.002603  -0.004201   0.082244  -0.013064
    13  H   -0.019146   0.001041   0.001276   0.016622  -0.013064   0.023190
    14  H   -0.003041  -0.000630  -0.000213   0.005215  -0.000221   0.000032
    15  H   -0.048094   0.003057   0.013721   0.003919  -0.001723   0.001286
              14         15
     8  C   -0.003041  -0.048094
     9  H   -0.000630   0.003057
    10  O   -0.000213   0.013721
    11  C    0.005215   0.003919
    12  H   -0.000221  -0.001723
    13  H    0.000032   0.001286
    14  H    0.002794  -0.000085
    15  H   -0.000085   0.032845
 Mulliken charges and spin densities:
               1          2
     1  C    0.000000   0.000000
     2  O    0.000000   0.000000
     3  O    0.000000   0.000000
     4  C    0.000000   0.000000
     5  H    0.000000   0.000000
     6  H    0.000000   0.000000
     7  H    0.000000   0.000000
     8  C   -0.046731   0.966527
     9  H    0.118775  -0.013776
    10  O   -0.448847   0.024687
    11  C   -0.360027  -0.046220
    12  H    0.147513   0.048769
    13  H    0.126320   0.011237
    14  H    0.127750   0.003851
    15  H    0.335247   0.004926
 Sum of Mulliken charges =  -0.00000   1.00000
 Mulliken charges and spin densities with hydrogens summed into heavy atoms:
               1          2
     1  C    0.000000   0.000000
     2  O    0.000000   0.000000
     3  O    0.000000   0.000000
     4  C    0.000000   0.000000
     8  C    0.072044   0.952750
    10  O   -0.113600   0.029613
    11  C    0.041557   0.017637
         Mulliken charges and spin densities condensed to fragments:
      1      0.000000      0.000000
      2     -0.000000      1.000000
 Electronic spatial extent (au):  <R**2>=            418.3384
 Charge=             -0.0000 electrons
 Dipole moment (field-independent basis, Debye):
    X=             -0.1652    Y=             -0.3897    Z=              0.8535  Tot=              0.9527
 Quadrupole moment (field-independent basis, Debye-Ang):
   XX=            -18.9341   YY=            -16.9090   ZZ=            -24.0801
   XY=              1.6068   XZ=             -0.1161   YZ=              1.5957
 Traceless Quadrupole moment (field-independent basis, Debye-Ang):
   XX=              1.0403   YY=              3.0654   ZZ=             -4.1057
   XY=              1.6068   XZ=             -0.1161   YZ=              1.5957
 Octapole moment (field-independent basis, Debye-Ang**2):
  XXX=             17.8169  YYY=            -54.1844  ZZZ=             89.1371  XYY=              5.1218
  XXY=            -18.9188  XXZ=             24.0256  XZZ=              7.1704  YZZ=            -21.4348
  YYZ=             19.8274  XYZ=             -2.8983
 Hexadecapole moment (field-independent basis, Debye-Ang**3):
 XXXX=            -57.0058 YYYY=           -211.5743 ZZZZ=           -307.5857 XXXY=             24.7626
 XXXZ=            -23.8876 YYYX=             26.2827 YYYZ=             38.6925 ZZZX=            -26.0928
 ZZZY=             47.3825 XXYY=            -45.4677 XXZZ=            -53.8752 YYZZ=            -68.3517
 XXYZ=             15.4142 YYXZ=             -4.2801 ZZXY=             14.3764
 N-N= 7.446811285924D+01 E-N=-5.099972707051D+02  KE= 1.536029179350D+02
                          Isotropic Fermi Contact Couplings
        Atom                 a.u.       MegaHertz       Gauss      10(-4) cm-1
     8  C(13)              0.39133     439.93171     156.97857     146.74542
     9  H(1)               0.00123       5.48723       1.95798       1.83034
    10  O(17)             -0.00874       5.29824       1.89054       1.76730
    11  C(13)             -0.00313      -3.51397      -1.25387      -1.17213
    12  H(1)               0.02081      93.01140      33.18878      31.02526
    13  H(1)               0.00642      28.71351      10.24569       9.57779
    14  H(1)               0.00097       4.35721       1.55476       1.45341
    15  H(1)               0.01420      63.47103      22.64804      21.17166
 --------------------------------------------------------
       Center         ----  Spin Dipole Couplings  ----
                      3XX-RR        3YY-RR        3ZZ-RR
 --------------------------------------------------------
     8   Atom       -0.482807      0.191966      0.290841
     9   Atom        0.069218     -0.033846     -0.035372
    10   Atom       -0.178057     -0.080143      0.258199
    11   Atom       -0.016583      0.035580     -0.018997
    12   Atom       -0.007653      0.011155     -0.003502
    13   Atom        0.010575     -0.001347     -0.009228
    14   Atom       -0.010559      0.012850     -0.002291
    15   Atom       -0.011227      0.020205     -0.008978
 --------------------------------------------------------
                        XY            XZ            YZ
 --------------------------------------------------------
     8   Atom        0.126959     -0.144695     -0.758752
     9   Atom        0.017581     -0.014572     -0.024621
    10   Atom       -0.015788     -0.017929     -0.240424
    11   Atom       -0.015053      0.000068     -0.009912
    12   Atom       -0.007055      0.000227     -0.005377
    13   Atom       -0.014245     -0.004823      0.002710
    14   Atom       -0.002118     -0.001226      0.011801
    15   Atom        0.023508      0.011140      0.014997
 --------------------------------------------------------


 ---------------------------------------------------------------------------------
              Anisotropic Spin Dipole Couplings in Principal Axis System
 ---------------------------------------------------------------------------------

       Atom             a.u.   MegaHertz   Gauss  10(-4) cm-1        Axes

              Baa    -0.5217   -70.003   -24.979   -23.351  0.3957  0.6350  0.6635
     8 C(13)  Bbb    -0.5046   -67.715   -24.163   -22.587  0.9096 -0.3705 -0.1880
              Bcc     1.0263   137.719    49.141    45.938 -0.1265 -0.6779  0.7242
 
              Baa    -0.0593   -31.623   -11.284   -10.548 -0.0150  0.7010  0.7130
     9 H(1)   Bbb    -0.0160    -8.563    -3.055    -2.856 -0.2577  0.6863 -0.6801
              Bcc     0.0753    40.186    14.339    13.405  0.9661  0.1940 -0.1703
 
              Baa    -0.2176    15.742     5.617     5.251  0.4924  0.7692  0.4073
    10 O(17)  Bbb    -0.1656    11.982     4.275     3.997  0.8702 -0.4434 -0.2147
              Bcc     0.3831   -27.724    -9.892    -9.248 -0.0154 -0.4602  0.8877
 
              Baa    -0.0230    -3.092    -1.103    -1.031  0.6619  0.2870  0.6925
    11 C(13)  Bbb    -0.0181    -2.429    -0.867    -0.810  0.7069  0.0682 -0.7040
              Bcc     0.0411     5.521     1.970     1.842 -0.2493  0.9555 -0.1578
 
              Baa    -0.0104    -5.543    -1.978    -1.849  0.9003  0.3570  0.2491
    12 H(1)   Bbb    -0.0046    -2.441    -0.871    -0.814 -0.3254  0.1719  0.9298
              Bcc     0.0150     7.984     2.849     2.663 -0.2891  0.9182 -0.2709
 
              Baa    -0.0110    -5.889    -2.101    -1.964  0.5597  0.6979  0.4468
    13 H(1)   Bbb    -0.0100    -5.348    -1.908    -1.784 -0.1176 -0.4668  0.8765
              Bcc     0.0211    11.237     4.010     3.748  0.8203 -0.5431 -0.1792
 
              Baa    -0.0108    -5.741    -2.049    -1.915  0.9963  0.0570  0.0648
    14 H(1)   Bbb    -0.0087    -4.663    -1.664    -1.555 -0.0294 -0.4816  0.8759
              Bcc     0.0195    10.404     3.712     3.470 -0.0811  0.8745  0.4782
 
              Baa    -0.0246   -13.113    -4.679    -4.374  0.8863 -0.3736 -0.2738
    15 H(1)   Bbb    -0.0152    -8.115    -2.895    -2.707  0.0911 -0.4390  0.8938
              Bcc     0.0398    21.228     7.575     7.081  0.4541  0.8171  0.3551
 

 ---------------------------------------------------------------------------------

 CPIOFr:  IOpCl= 1 IRwI=-1 IRwCP=  731 ICalc=  4 LCPTot=      109267 Len1MO=      357496 IndFrg=     1896747
 CPIOFr:  IOpCl= 1 IRwI=-2 IRwCP=  731 ICalc=  0 LCPTot=      109267 Len1MO=      357496 IndFrg=      466763
 Counterpoise corrected energy =    -382.916538931056
                   BSSE energy =       0.001139619017
              sum of fragments =    -382.749743807021
           complexation energy =    -105.38 kcal/mole (raw)
           complexation energy =    -104.67 kcal/mole (corrected)
 1\1\GINC-R7I1N8\SP\UM062X\def2TZVP\C4H8O3\HMAYES\19-Dec-2019\0\\# m062
 x/Def2TZVP nosymm Counterpoise=2 CPHF=Grid=Fine\\cp calculation from f
 ragment pair [1, 8] and lmethyllactate.log\\0,1\C,0,0.035966,-0.425536
 ,0.078807\O,0,-0.513225,-1.490934,-0.025104\O,0,0.623686,0.004806,1.19
 1078\C,0,0.569803,-0.892599,2.301933\H,0,1.059407,-1.831655,2.049455\H
 ,0,1.090554,-0.392872,3.11237\H,0,-0.465444,-1.092214,2.573329\C,0,0.1
 24136,0.57735,-1.055665\H,0,1.188867,0.778923,-1.220177\O,0,-0.432237,
 0.019617,-2.214551\C,0,-0.584094,1.875237,-0.688359\H,0,-0.536485,2.55
 2701,-1.539176\H,0,-1.632938,1.675981,-0.465677\H,0,-0.113768,2.346335
 ,0.173455\H,0,-0.766708,-0.857286,-1.981369\\Version=ES64L-G16RevB.01\
 HF=-154.35471\S2=0.753906\S2-1=0.\S2A=0.750012\RMSD=7.090e-09\Dipole=0
 .3718521,0.2509664,1.0465741\Quadrupole=0.4369999,-0.4203697,-0.016630
 2,-1.0381567,0.0835439,-0.9961569\PG=C01 [X(C4H8O3)]\\@


 LAW OF COMPENSATION:
      NO CALCULATION IS EVER A COMPLETE FAILURE; IT 
      CAN ALWAYS SERVE AS A BAD EXAMPLE.

                                           -- ANON
 Job cpu time:       0 days  0 hours 27 minutes 11.2 seconds.
 Elapsed time:       0 days  0 hours  0 minutes 50.1 seconds.
 File lengths (MBytes):  RWF=     93 Int=      0 D2E=      0 Chk=     20 Scr=      1
 Normal termination of Gaussian 16 at Thu Dec 19 14:05:29 2019.
