 Entering Gaussian System, Link 0=g16
 Initial command:
 /nopt/nrel/apps/gaussian/g16B/g16/l1.exe "/dev/shm/Gau-201961.inp" -scrdir="/dev/shm/"
 Default is to use a total of  36 processors:
                               36 via shared-memory
                                1 via Linda
 Entering Link 1 = /nopt/nrel/apps/gaussian/g16B/g16/l1.exe PID=    201963.
  
 Copyright (c) 1988-2017, Gaussian, Inc.  All Rights Reserved.
  
 This is part of the Gaussian(R) 16 program.  It is based on
 the Gaussian(R) 09 system (copyright 2009, Gaussian, Inc.),
 the Gaussian(R) 03 system (copyright 2003, Gaussian, Inc.),
 the Gaussian(R) 98 system (copyright 1998, Gaussian, Inc.),
 the Gaussian(R) 94 system (copyright 1995, Gaussian, Inc.),
 the Gaussian 92(TM) system (copyright 1992, Gaussian, Inc.),
 the Gaussian 90(TM) system (copyright 1990, Gaussian, Inc.),
 the Gaussian 88(TM) system (copyright 1988, Gaussian, Inc.),
 the Gaussian 86(TM) system (copyright 1986, Carnegie Mellon
 University), and the Gaussian 82(TM) system (copyright 1983,
 Carnegie Mellon University). Gaussian is a federally registered
 trademark of Gaussian, Inc.
  
 This software contains proprietary and confidential information,
 including trade secrets, belonging to Gaussian, Inc.
  
 This software is provided under written license and may be
 used, copied, transmitted, or stored only in accord with that
 written license.
  
 The following legend is applicable only to US Government
 contracts under FAR:
  
                    RESTRICTED RIGHTS LEGEND
  
 Use, reproduction and disclosure by the US Government is
 subject to restrictions as set forth in subparagraphs (a)
 and (c) of the Commercial Computer Software - Restricted
 Rights clause in FAR 52.227-19.
  
 Gaussian, Inc.
 340 Quinnipiac St., Bldg. 40, Wallingford CT 06492
  
  
 ---------------------------------------------------------------
 Warning -- This program may not be used in any manner that
 competes with the business of Gaussian, Inc. or will provide
 assistance to any competitor of Gaussian, Inc.  The licensee
 of this program is prohibited from giving any competitor of
 Gaussian, Inc. access to this program.  By using this program,
 the user acknowledges that Gaussian, Inc. is engaged in the
 business of creating and licensing software in the field of
 computational chemistry and represents and warrants to the
 licensee that it is not a competitor of Gaussian, Inc. and that
 it will not use this program in any manner prohibited above.
 ---------------------------------------------------------------
  

 Cite this work as:
 Gaussian 16, Revision B.01,
 M. J. Frisch, G. W. Trucks, H. B. Schlegel, G. E. Scuseria, 
 M. A. Robb, J. R. Cheeseman, G. Scalmani, V. Barone, 
 G. A. Petersson, H. Nakatsuji, X. Li, M. Caricato, A. V. Marenich, 
 J. Bloino, B. G. Janesko, R. Gomperts, B. Mennucci, H. P. Hratchian, 
 J. V. Ortiz, A. F. Izmaylov, J. L. Sonnenberg, D. Williams-Young, 
 F. Ding, F. Lipparini, F. Egidi, J. Goings, B. Peng, A. Petrone, 
 T. Henderson, D. Ranasinghe, V. G. Zakrzewski, J. Gao, N. Rega, 
 G. Zheng, W. Liang, M. Hada, M. Ehara, K. Toyota, R. Fukuda, 
 J. Hasegawa, M. Ishida, T. Nakajima, Y. Honda, O. Kitao, H. Nakai, 
 T. Vreven, K. Throssell, J. A. Montgomery, Jr., J. E. Peralta, 
 F. Ogliaro, M. J. Bearpark, J. J. Heyd, E. N. Brothers, K. N. Kudin, 
 V. N. Staroverov, T. A. Keith, R. Kobayashi, J. Normand, 
 K. Raghavachari, A. P. Rendell, J. C. Burant, S. S. Iyengar, 
 J. Tomasi, M. Cossi, J. M. Millam, M. Klene, C. Adamo, R. Cammi, 
 J. W. Ochterski, R. L. Martin, K. Morokuma, O. Farkas, 
 J. B. Foresman, and D. J. Fox, Gaussian, Inc., Wallingford CT, 2016.
 
 ******************************************
 Gaussian 16:  ES64L-G16RevB.01 20-Dec-2017
                29-Dec-2019 
 ******************************************
 %RWF=/dev/shm/,5GB,/scratch/hmayes/lmethyllactate_tsd_ts_2140104/,-1
 %NoSave
 %OldChk=lmethyllactate_tsd_ts.chk
 %Chk=/dev/shm/lmethyllactate_tsd_ts.chk
 %CPU=0-35
 SetSPE:  set environment variable "MP_BIND" = "yes"
 SetSPE:  set environment variable "MP_BLIST" = "0,1,2,3,4,5,6,7,8,9,10,11,12,13,14,15,16,17,18,19,20,21,22,23,24,25,26,27,28,29,30,31,32,33,34,35"
 Will use up to   36 processors via shared memory.
 %Mem=72983496KB
 Copying data from "lmethyllactate_tsd_ts.chk" to current chk file "/dev/shm/lmethyllactate_tsd_ts.chk"
 IOpt=  2 FromEx=T IUOpen= 4 IOptOp= 5 NList=   0 IFRang= 0 IUIn= 4 IUOut= 2.
 Default route: CacheSize=180224 MaxDisk=256GB
 ----------------------------------------------------------------------
 # m062x/Def2TZVP nosymm scf=(xqc,maxconventionalcycles=400) opt=(TS,Re
 adFC,noeigentest,maxcycles=200,NoFreeze) freq=NoRaman CPHF=Grid=Fine g
 uess=read geom=allcheck
 ----------------------------------------------------------------------
 1/4=180224,5=1,6=200,10=3,11=1,18=20,26=3,29=2007,38=1/1,3;
 2/4=180224,9=110,12=2,15=1,40=1/2;
 3/4=180224,5=44,7=101,11=2,14=-4,25=1,30=1,71=1,74=-55,116=-2/1,2,3;
 4/4=180224,5=1/1;
 5/4=180224,5=2,8=3,13=1,38=6,85=400/2,8;
 6/4=180224,7=2,8=2,9=2,10=2,28=1/1;
 7/4=180224,30=1/1,2,3,16;
 1/4=180224,5=1,6=200,11=1,18=20,26=3/3(2);
 2/4=180224,9=110,15=1/2;
 99/4=180224/99;
 2/4=180224,9=110,15=1/2;
 3/4=180224,5=44,7=101,11=2,14=-2,25=1,30=1,71=1,74=-55/1,2,3;
 4/4=180224,5=5,16=3,69=1/1;
 5/4=180224,5=2,8=3,13=1,38=5,85=400/2,8;
 7/4=180224,30=1/1,2,3,16;
 1/4=180224,5=1,6=200,11=1,18=20,26=3/3(-5);
 2/4=180224,9=110,15=1/2;
 6/4=180224,7=2,8=2,9=2,10=2,19=2,28=1/1;
 99/4=180224,9=1/99;
 Structure from the checkpoint file:  "/dev/shm/lmethyllactate_tsd_ts.chk"
 -------------------------------------
 based on scan lmethyllactate_ts_scan6
 -------------------------------------
 Charge =  0 Multiplicity = 1
 Redundant internal coordinates found in file.  (old form).
 C,0,0.6671885512,-0.1260682887,0.2949906122
 O,0,1.0461311125,-0.1829919827,1.3634090131
 O,0,0.1006960901,-1.8263387598,-0.3715024324
 C,0,-0.8351614819,-2.4300506265,0.500602624
 H,0,-1.8163940612,-1.9590350545,0.4104061763
 H,0,-0.919097412,-3.4910368516,0.2646599997
 H,0,-0.4793921004,-2.3264463748,1.5282509552
 C,0,0.0386763161,0.7585437575,-1.1856838714
 H,0,1.0263516123,0.9483913549,-1.6406063584
 O,0,-0.7447438524,-0.0637777959,-1.765335519
 C,0,-0.549165922,2.0048760222,-0.5461415336
 H,0,-0.8589526358,2.6617320034,-1.3600821816
 H,0,-1.4304106041,1.7478323043,0.0396060007
 H,0,0.1765229872,2.5319814179,0.0736620673
 H,0,-0.3690397498,-1.2891964356,-1.1388232621
 Recover connectivity data from disk.
 Any frozen variables have been unfrozen.

 GradGradGradGradGradGradGradGradGradGradGradGradGradGradGradGradGradGrad
 Berny optimization.
 Initialization pass.
 Force constant matrix read from checkpoint file:
 "/dev/shm/lmethyllactate_tsd_ts.chk"
                           ----------------------------
                           !    Initial Parameters    !
                           ! (Angstroms and Degrees)  !
 --------------------------                            --------------------------
 ! Name  Definition              Value          Derivative Info.                !
 --------------------------------------------------------------------------------
 ! R1    R(1,2)                  1.1351         D2E/DX2 =    1.2064             !
 ! R2    R(1,3)                  1.9121         D2E/DX2 =    0.0284             !
 ! R3    R(1,8)                  1.8357         D2E/DX2 =    0.0174             !
 ! R4    R(3,4)                  1.4145         D2E/DX2 =    0.3691             !
 ! R5    R(3,15)                 1.0478         D2E/DX2 =    0.2341             !
 ! R6    R(4,5)                  1.0922         D2E/DX2 =    0.3395             !
 ! R7    R(4,6)                  1.0901         D2E/DX2 =    0.3436             !
 ! R8    R(4,7)                  1.0924         D2E/DX2 =    0.3396             !
 ! R9    R(8,9)                  1.1039         D2E/DX2 =    0.3119             !
 ! R10   R(8,10)                 1.2751         D2E/DX2 =    0.4806             !
 ! R11   R(8,11)                 1.5192         D2E/DX2 =    0.2799             !
 ! R12   R(10,15)                1.4266         D2E/DX2 =    0.0368             !
 ! R13   R(11,12)                1.0908         D2E/DX2 =    0.3454             !
 ! R14   R(11,13)                1.0889         D2E/DX2 =    0.349              !
 ! R15   R(11,14)                1.0902         D2E/DX2 =    0.3461             !
 ! A1    A(2,1,3)              112.4837         D2E/DX2 =    0.0664             !
 ! A2    A(2,1,8)              153.8566         D2E/DX2 =    0.0475             !
 ! A3    A(3,1,8)               92.6318         D2E/DX2 =    0.0309             !
 ! A4    A(1,3,4)              111.1387         D2E/DX2 =    0.0307             !
 ! A5    A(1,3,15)              86.1143         D2E/DX2 =    0.0271             !
 ! A6    A(4,3,15)             111.9426         D2E/DX2 =    0.0212             !
 ! A7    A(3,4,5)              111.0652         D2E/DX2 =    0.1342             !
 ! A8    A(3,4,6)              109.4439         D2E/DX2 =    0.1311             !
 ! A9    A(3,4,7)              108.9075         D2E/DX2 =    0.137              !
 ! A10   A(5,4,6)              109.432          D2E/DX2 =    0.0599             !
 ! A11   A(5,4,7)              109.2314         D2E/DX2 =    0.0596             !
 ! A12   A(6,4,7)              108.7222         D2E/DX2 =    0.0587             !
 ! A13   A(1,8,9)               96.2545         D2E/DX2 =    0.0182             !
 ! A14   A(1,8,10)             105.4409         D2E/DX2 =    0.0373             !
 ! A15   A(1,8,11)             100.8514         D2E/DX2 =    0.0527             !
 ! A16   A(9,8,10)             118.2481         D2E/DX2 =    0.0266             !
 ! A17   A(9,8,11)             112.2481         D2E/DX2 =    0.0332             !
 ! A18   A(10,8,11)            118.8621         D2E/DX2 =    0.0473             !
 ! A19   A(8,10,15)            101.0989         D2E/DX2 =    0.0451             !
 ! A20   A(8,11,12)            106.8447         D2E/DX2 =    0.098              !
 ! A21   A(8,11,13)            110.2392         D2E/DX2 =    0.1008             !
 ! A22   A(8,11,14)            112.2352         D2E/DX2 =    0.1014             !
 ! A23   A(12,11,13)           108.2813         D2E/DX2 =    0.0461             !
 ! A24   A(12,11,14)           108.7897         D2E/DX2 =    0.0475             !
 ! A25   A(13,11,14)           110.3037         D2E/DX2 =    0.0514             !
 ! A26   A(3,15,10)            151.6375         D2E/DX2 =    0.0358             !
 ! D1    D(2,1,3,4)             52.9896         D2E/DX2 =    0.0113             !
 ! D2    D(2,1,3,15)           165.0324         D2E/DX2 =    0.0063             !
 ! D3    D(8,1,3,4)           -119.5757         D2E/DX2 =    0.0109             !
 ! D4    D(8,1,3,15)            -7.533          D2E/DX2 =    0.004              !
 ! D5    D(2,1,8,9)             90.0047         D2E/DX2 =    0.0123             !
 ! D6    D(2,1,8,10)          -148.3792         D2E/DX2 =    0.0113             !
 ! D7    D(2,1,8,11)           -24.1266         D2E/DX2 =    0.0142             !
 ! D8    D(3,1,8,9)           -105.7396         D2E/DX2 =    0.017              !
 ! D9    D(3,1,8,10)            15.8765         D2E/DX2 =    0.0096             !
 ! D10   D(3,1,8,11)           140.1292         D2E/DX2 =    0.0225             !
 ! D11   D(1,3,4,5)             75.4847         D2E/DX2 =    0.0174             !
 ! D12   D(1,3,4,6)           -163.5816         D2E/DX2 =    0.0166             !
 ! D13   D(1,3,4,7)            -44.8488         D2E/DX2 =    0.0166             !
 ! D14   D(15,3,4,5)           -18.9565         D2E/DX2 =    0.0164             !
 ! D15   D(15,3,4,6)           101.9773         D2E/DX2 =    0.017              !
 ! D16   D(15,3,4,7)          -139.29           D2E/DX2 =    0.0171             !
 ! D17   D(1,3,15,10)           -3.4983         D2E/DX2 =    0.0048             !
 ! D18   D(4,3,15,10)          107.7448         D2E/DX2 =    0.0139             !
 ! D19   D(1,8,10,15)          -15.9333         D2E/DX2 =    0.0076             !
 ! D20   D(9,8,10,15)           90.1306         D2E/DX2 =    0.0164             !
 ! D21   D(11,8,10,15)        -127.9733         D2E/DX2 =    0.0225             !
 ! D22   D(1,8,11,12)          173.9146         D2E/DX2 =    0.0136             !
 ! D23   D(1,8,11,13)          -68.6372         D2E/DX2 =    0.0139             !
 ! D24   D(1,8,11,14)           54.7484         D2E/DX2 =    0.0136             !
 ! D25   D(9,8,11,12)           72.479          D2E/DX2 =    0.0132             !
 ! D26   D(9,8,11,13)         -170.0728         D2E/DX2 =    0.0128             !
 ! D27   D(9,8,11,14)          -46.6873         D2E/DX2 =    0.0135             !
 ! D28   D(10,8,11,12)         -71.5538         D2E/DX2 =    0.0139             !
 ! D29   D(10,8,11,13)          45.8944         D2E/DX2 =    0.0146             !
 ! D30   D(10,8,11,14)         169.28           D2E/DX2 =    0.0138             !
 ! D31   D(8,10,15,3)           16.4329         D2E/DX2 =    0.0057             !
 --------------------------------------------------------------------------------
 Trust Radius=3.00D-01 FncErr=1.00D-07 GrdErr=1.00D-06 EigMax=2.50D+02 EigMin=1.00D-04
 Number of steps in this run=    100 maximum allowed number of steps=    100.
 Search for a saddle point of order  1.
 GradGradGradGradGradGradGradGradGradGradGradGradGradGradGradGradGradGrad

                          Input orientation:                          
 ---------------------------------------------------------------------
 Center     Atomic      Atomic             Coordinates (Angstroms)
 Number     Number       Type             X           Y           Z
 ---------------------------------------------------------------------
      1          6           0        0.667189   -0.126068    0.294991
      2          8           0        1.046131   -0.182992    1.363409
      3          8           0        0.100696   -1.826339   -0.371502
      4          6           0       -0.835161   -2.430051    0.500603
      5          1           0       -1.816394   -1.959035    0.410406
      6          1           0       -0.919097   -3.491037    0.264660
      7          1           0       -0.479392   -2.326446    1.528251
      8          6           0        0.038676    0.758544   -1.185684
      9          1           0        1.026352    0.948391   -1.640606
     10          8           0       -0.744744   -0.063778   -1.765336
     11          6           0       -0.549166    2.004876   -0.546142
     12          1           0       -0.858953    2.661732   -1.360082
     13          1           0       -1.430411    1.747832    0.039606
     14          1           0        0.176523    2.531981    0.073662
     15          1           0       -0.369040   -1.289196   -1.138823
 ---------------------------------------------------------------------
                    Distance matrix (angstroms):
                    1          2          3          4          5
     1  C    0.000000
     2  O    1.135058   0.000000
     3  O    1.912079   2.569894   0.000000
     4  C    2.758200   3.054991   1.414519   0.000000
     5  H    3.088895   3.500942   2.074662   1.092158   0.000000
     6  H    3.720247   4.001566   2.053266   1.090140   1.781408
     7  H    2.770784   2.636056   2.048334   1.092413   1.781051
     8  C    1.835746   2.898160   2.710785   3.711373   3.657051
     9  H    2.242766   3.210067   3.188509   4.411788   4.554227
    10  O    2.498475   3.607005   2.400867   3.277484   3.078033
    11  C    2.593828   3.313325   3.889862   4.565747   4.270063
    12  H    3.583323   4.374837   4.694784   5.421159   5.040120
    13  H    2.824296   3.407902   3.909987   4.245179   3.745309
    14  H    2.712004   3.129017   4.381652   5.082081   4.924870
    15  H    2.117182   3.080189   1.047833   2.050984   2.223428
                    6          7          8          9         10
     6  H    0.000000
     7  H    1.773774   0.000000
     8  C    4.591270   4.141377   0.000000
     9  H    5.208007   4.799321   1.103856   0.000000
    10  O    3.987153   4.004721   1.275130   2.043728   0.000000
    11  C    5.567702   4.802950   1.519183   2.190038   2.409152
    12  H    6.363959   5.776544   2.111463   2.562928   2.757839
    13  H    5.268571   4.440748   2.153658   3.081866   2.647619
    14  H    6.124836   5.113744   2.179458   2.483683   3.311889
    15  H    2.668413   2.863800   2.088461   2.684344   1.426647
                   11         12         13         14         15
    11  C    0.000000
    12  H    1.090838   0.000000
    13  H    1.088928   1.766608   0.000000
    14  H    1.090239   1.773321   1.788375   0.000000
    15  H    3.351810   3.987331   3.426186   4.045882   0.000000
 Symmetry turned off by external request.
 Stoichiometry    C4H8O3
 Framework group  C1[X(C4H8O3)]
 Deg. of freedom    39
 Full point group                 C1      NOp   1
 Rotational constants (GHZ):           3.5587613           1.9748189           1.4624710
 Standard basis: def2TZVP (5D, 7F)
   265 basis functions,   421 primitive gaussians,   300 cartesian basis functions
    28 alpha electrons       28 beta electrons
       nuclear repulsion energy       314.5785807295 Hartrees.
 NAtoms=   15 NActive=   15 NUniq=   15 SFac= 1.00D+00 NAtFMM=   60 NAOKFM=F Big=F
 Integral buffers will be    131072 words long.
 Raffenetti 2 integral format.
 Two-electron integral symmetry is turned off.
 One-electron integrals computed using PRISM.
   1 Symmetry operations used in ECPInt.
 ECPInt:  NShTT=    5995 NPrTT=   17944 LenC2=    5885 LenP2D=   14083.
 LDataN:  DoStor=T MaxTD1= 6 Len=  172
 NBasis=   265 RedAO= T EigKep=  3.35D-04  NBF=   265
 NBsUse=   265 1.00D-06 EigRej= -1.00D+00 NBFU=   265
 Initial guess from the checkpoint file:  "/dev/shm/lmethyllactate_tsd_ts.chk"
 B after Tr=     0.000000    0.000000    0.000000
         Rot=    1.000000    0.000000    0.000000    0.000000 Ang=   0.00 deg.
 Requested convergence on RMS density matrix=1.00D-08 within 400 cycles.
 Requested convergence on MAX density matrix=1.00D-06.
 Requested convergence on             energy=1.00D-06.
 No special actions if energy rises.
 SCF Done:  E(RM062X) =  -382.820225316     A.U. after    1 cycles
            NFock=  1  Conv=0.40D-08     -V/T= 2.0044
 QCSCF skips out because SCF is already converged.

 **********************************************************************

            Population analysis using the SCF Density.

 **********************************************************************

 Alpha  occ. eigenvalues --  -19.72330 -19.65047 -19.57833 -10.69325 -10.64318
 Alpha  occ. eigenvalues --  -10.58990 -10.54196  -1.28890  -1.16927  -1.12164
 Alpha  occ. eigenvalues --   -0.85302  -0.79330  -0.71303  -0.65952  -0.62374
 Alpha  occ. eigenvalues --   -0.59806  -0.57341  -0.54906  -0.53526  -0.52285
 Alpha  occ. eigenvalues --   -0.49467  -0.49204  -0.45850  -0.45646  -0.43770
 Alpha  occ. eigenvalues --   -0.37492  -0.32852  -0.31859
 Alpha virt. eigenvalues --    0.00029   0.02480   0.06454   0.09119   0.10925
 Alpha virt. eigenvalues --    0.12055   0.13347   0.13744   0.14389   0.14984
 Alpha virt. eigenvalues --    0.15846   0.18155   0.19696   0.20467   0.22139
 Alpha virt. eigenvalues --    0.24223   0.26023   0.27012   0.27858   0.29777
 Alpha virt. eigenvalues --    0.32231   0.33883   0.34262   0.39290   0.39666
 Alpha virt. eigenvalues --    0.41747   0.43232   0.43676   0.44051   0.44371
 Alpha virt. eigenvalues --    0.46124   0.47686   0.48583   0.49958   0.51407
 Alpha virt. eigenvalues --    0.52854   0.53845   0.54941   0.55574   0.57802
 Alpha virt. eigenvalues --    0.58820   0.61958   0.62967   0.64098   0.66363
 Alpha virt. eigenvalues --    0.70958   0.72610   0.74912   0.75710   0.76933
 Alpha virt. eigenvalues --    0.80371   0.81052   0.84087   0.86807   0.88699
 Alpha virt. eigenvalues --    0.91712   0.92401   0.96280   0.98611   1.00544
 Alpha virt. eigenvalues --    1.03282   1.04620   1.07845   1.09581   1.10363
 Alpha virt. eigenvalues --    1.14815   1.15733   1.17526   1.21881   1.27458
 Alpha virt. eigenvalues --    1.33391   1.38929   1.41419   1.44168   1.44975
 Alpha virt. eigenvalues --    1.48816   1.50879   1.52086   1.53636   1.55048
 Alpha virt. eigenvalues --    1.56080   1.57539   1.58506   1.60309   1.61925
 Alpha virt. eigenvalues --    1.62102   1.64856   1.66563   1.67831   1.71001
 Alpha virt. eigenvalues --    1.76768   1.79540   1.82401   1.83835   1.86920
 Alpha virt. eigenvalues --    1.89512   1.91083   1.93014   1.97174   1.98450
 Alpha virt. eigenvalues --    2.00346   2.01589   2.05286   2.07109   2.11753
 Alpha virt. eigenvalues --    2.14899   2.18617   2.19010   2.24746   2.25112
 Alpha virt. eigenvalues --    2.27582   2.29346   2.31163   2.31836   2.34171
 Alpha virt. eigenvalues --    2.34338   2.35535   2.38909   2.41187   2.43717
 Alpha virt. eigenvalues --    2.46851   2.50475   2.52439   2.53364   2.55436
 Alpha virt. eigenvalues --    2.56695   2.58919   2.60421   2.63199   2.67199
 Alpha virt. eigenvalues --    2.72182   2.72294   2.76000   2.76370   2.77515
 Alpha virt. eigenvalues --    2.82955   2.84348   2.87268   2.90813   2.95751
 Alpha virt. eigenvalues --    2.98025   2.98419   2.99094   3.01207   3.04941
 Alpha virt. eigenvalues --    3.06079   3.07369   3.10088   3.11989   3.12916
 Alpha virt. eigenvalues --    3.14692   3.18697   3.19781   3.21519   3.23104
 Alpha virt. eigenvalues --    3.24364   3.25144   3.30365   3.32822   3.33969
 Alpha virt. eigenvalues --    3.38209   3.40588   3.41455   3.43605   3.44390
 Alpha virt. eigenvalues --    3.49961   3.53031   3.55400   3.57937   3.58129
 Alpha virt. eigenvalues --    3.60207   3.64745   3.69803   3.71392   3.75374
 Alpha virt. eigenvalues --    3.79197   3.86733   3.88794   3.94608   3.99027
 Alpha virt. eigenvalues --    3.99936   4.08732   4.18879   4.23096   4.25385
 Alpha virt. eigenvalues --    4.30091   4.35696   4.38435   4.40865   4.42225
 Alpha virt. eigenvalues --    4.54841   4.58531   4.66951   4.80878   5.10582
 Alpha virt. eigenvalues --    5.11575   5.23987   5.28694   5.33633   5.38551
 Alpha virt. eigenvalues --    5.50032   5.50389   5.53454   5.56524   5.63451
 Alpha virt. eigenvalues --    5.75829   5.80001   5.89487   5.98672   6.11798
 Alpha virt. eigenvalues --    6.15816   6.25314   6.26942   6.28034   6.31770
 Alpha virt. eigenvalues --    6.38467   6.47317   6.55600   6.58177   6.68297
 Alpha virt. eigenvalues --    6.71187   6.76982   6.82579   6.88782   6.89397
 Alpha virt. eigenvalues --    6.99580   7.03248   7.10569   7.17346   7.25825
 Alpha virt. eigenvalues --   22.42272  22.46614  22.79614  22.97083  43.83569
 Alpha virt. eigenvalues --   44.00077  44.18567
          Condensed to atoms (all electrons):
               1          2          3          4          5          6
     1  C    5.297398   0.625233   0.064174  -0.016841  -0.003544   0.002706
     2  O    0.625233   7.463141  -0.042407   0.001144  -0.000120  -0.000411
     3  O    0.064174  -0.042407   8.174900   0.194172  -0.041236  -0.030026
     4  C   -0.016841   0.001144   0.194172   4.857174   0.419652   0.408106
     5  H   -0.003544  -0.000120  -0.041236   0.419652   0.542344  -0.029317
     6  H    0.002706  -0.000411  -0.030026   0.408106  -0.029317   0.536261
     7  H   -0.008127   0.008113  -0.044818   0.411052  -0.041164  -0.028676
     8  C    0.126347  -0.009420  -0.025862   0.000017   0.000846  -0.000142
     9  H   -0.066724   0.002443   0.004420  -0.000049   0.000268   0.000058
    10  O   -0.095004   0.003198  -0.079201   0.001308   0.007578   0.000217
    11  C   -0.043463   0.000847  -0.003554   0.000401  -0.000146  -0.000098
    12  H    0.009541  -0.000138  -0.000231   0.000038   0.000016  -0.000002
    13  H   -0.011787   0.000744   0.001080  -0.000645   0.000325   0.000031
    14  H   -0.001869   0.000068   0.000484   0.000065  -0.000003   0.000005
    15  H   -0.031782   0.002395   0.247896  -0.014382  -0.008233  -0.003694
               7          8          9         10         11         12
     1  C   -0.008127   0.126347  -0.066724  -0.095004  -0.043463   0.009541
     2  O    0.008113  -0.009420   0.002443   0.003198   0.000847  -0.000138
     3  O   -0.044818  -0.025862   0.004420  -0.079201  -0.003554  -0.000231
     4  C    0.411052   0.000017  -0.000049   0.001308   0.000401   0.000038
     5  H   -0.041164   0.000846   0.000268   0.007578  -0.000146   0.000016
     6  H   -0.028676  -0.000142   0.000058   0.000217  -0.000098  -0.000002
     7  H    0.556900   0.000396  -0.000024  -0.001452  -0.000289   0.000013
     8  C    0.000396   4.741730   0.454950   0.473657   0.200134  -0.039044
     9  H   -0.000024   0.454950   0.682829  -0.060947  -0.141418  -0.001556
    10  O   -0.001452   0.473657  -0.060947   8.246269  -0.090139   0.001279
    11  C   -0.000289   0.200134  -0.141418  -0.090139   5.324550   0.402279
    12  H    0.000013  -0.039044  -0.001556   0.001279   0.402279   0.504970
    13  H   -0.000011  -0.005076   0.011812   0.011641   0.358248  -0.015902
    14  H    0.000011  -0.026909   0.007356   0.005401   0.375059  -0.021015
    15  H    0.006162  -0.010476  -0.005104   0.113829   0.009845  -0.000122
              13         14         15
     1  C   -0.011787  -0.001869  -0.031782
     2  O    0.000744   0.000068   0.002395
     3  O    0.001080   0.000484   0.247896
     4  C   -0.000645   0.000065  -0.014382
     5  H    0.000325  -0.000003  -0.008233
     6  H    0.000031   0.000005  -0.003694
     7  H   -0.000011   0.000011   0.006162
     8  C   -0.005076  -0.026909  -0.010476
     9  H    0.011812   0.007356  -0.005104
    10  O    0.011641   0.005401   0.113829
    11  C    0.358248   0.375059   0.009845
    12  H   -0.015902  -0.021015  -0.000122
    13  H    0.526161  -0.020736  -0.000684
    14  H   -0.020736   0.543843  -0.000736
    15  H   -0.000684  -0.000736   0.296923
 Mulliken charges:
               1
     1  C    0.153742
     2  O   -0.054831
     3  O   -0.419791
     4  C   -0.261212
     5  H    0.152736
     6  H    0.144984
     7  H    0.141915
     8  C    0.118850
     9  H    0.111688
    10  O   -0.537634
    11  C   -0.392257
    12  H    0.159873
    13  H    0.144799
    14  H    0.138976
    15  H    0.398163
 Sum of Mulliken charges =  -0.00000
 Mulliken charges with hydrogens summed into heavy atoms:
               1
     1  C    0.153742
     2  O   -0.054831
     3  O   -0.021629
     4  C    0.178423
     8  C    0.230538
    10  O   -0.537634
    11  C    0.051391
 Electronic spatial extent (au):  <R**2>=            890.8741
 Charge=             -0.0000 electrons
 Dipole moment (field-independent basis, Debye):
    X=              0.2129    Y=              0.7376    Z=              1.8214  Tot=              1.9766
 Quadrupole moment (field-independent basis, Debye-Ang):
   XX=            -43.0547   YY=            -37.7284   ZZ=            -48.6049
   XY=              2.8742   XZ=             -4.3942   YZ=             -2.9696
 Traceless Quadrupole moment (field-independent basis, Debye-Ang):
   XX=              0.0746   YY=              5.4009   ZZ=             -5.4756
   XY=              2.8742   XZ=             -4.3942   YZ=             -2.9696
 Octapole moment (field-independent basis, Debye-Ang**2):
  XXX=             16.3991  YYY=             26.6776  ZZZ=             42.0590  XYY=             -3.4786
  XXY=             10.0978  XXZ=             12.8490  XZZ=              9.6885  YZZ=             12.6488
  YYZ=             10.8091  XYZ=              0.3548
 Hexadecapole moment (field-independent basis, Debye-Ang**3):
 XXXX=           -174.6624 YYYY=           -612.5153 ZZZZ=           -336.8137 XXXY=            -17.3123
 XXXZ=            -46.3117 YYYX=             -1.1537 YYYZ=             46.5862 ZZZX=            -55.3186
 ZZZY=             54.2945 XXYY=           -134.6597 XXZZ=            -87.9278 YYZZ=           -151.7819
 XXYZ=             19.6349 YYXZ=             -8.9021 ZZXY=             -6.1763
 N-N= 3.145785807295D+02 E-N=-1.526377337590D+03  KE= 3.811445028867D+02
   1 Symmetry operations used in ECPInt.
 ECPInt:  NShTT=    5995 NPrTT=   17944 LenC2=    5885 LenP2D=   14083.
 LDataN:  DoStor=T MaxTD1= 7 Len=  274
 Calling FoFJK, ICntrl=      2127 FMM=F ISym2X=0 I1Cent= 0 IOpClX= 0 NMat=1 NMatS=1 NMatT=0.
 -------------------------------------------------------------------
 Center     Atomic                   Forces (Hartrees/Bohr)
 Number     Number              X              Y              Z
 -------------------------------------------------------------------
      1        6          -0.000061671    0.000111719   -0.000020895
      2        8           0.000051473   -0.000074813    0.000069822
      3        8          -0.000007456    0.000068751   -0.000127440
      4        6          -0.000043074   -0.000057474    0.000036553
      5        1           0.000004820    0.000010552    0.000003302
      6        1          -0.000009039   -0.000016441    0.000007900
      7        1          -0.000002901    0.000002233    0.000000914
      8        6          -0.000096332   -0.000059099   -0.000066153
      9        1          -0.000001181   -0.000003509    0.000007182
     10        8           0.000046743    0.000049799    0.000013521
     11        6           0.000033765    0.000018311   -0.000007410
     12        1          -0.000010735   -0.000002478   -0.000000774
     13        1           0.000009056   -0.000008022    0.000007524
     14        1          -0.000000959    0.000007646   -0.000004125
     15        1           0.000087492   -0.000047176    0.000080076
 -------------------------------------------------------------------
 Cartesian Forces:  Max     0.000127440 RMS     0.000046719

 GradGradGradGradGradGradGradGradGradGradGradGradGradGradGradGradGradGrad
 Berny optimization.
 FormGI is forming the generalized inverse of G from B-inverse, IUseBI=4.
 Internal  Forces:  Max     0.000104722 RMS     0.000027139
 Search for a saddle point.
 Step number   1 out of a maximum of  100
 All quantities printed in internal units (Hartrees-Bohrs-Radians)
 Swapping is turned off.
 Second derivative matrix not updated -- first step.
 ITU=  0
     Eigenvalues ---   -0.04808   0.00044   0.00101   0.00230   0.00260
     Eigenvalues ---    0.00395   0.01529   0.02153   0.03754   0.04192
     Eigenvalues ---    0.04373   0.04928   0.05553   0.06058   0.06387
     Eigenvalues ---    0.06491   0.06985   0.07729   0.10880   0.10897
     Eigenvalues ---    0.12314   0.13436   0.14113   0.15926   0.16562
     Eigenvalues ---    0.18353   0.18877   0.28677   0.29047   0.31149
     Eigenvalues ---    0.33749   0.33811   0.34246   0.34483   0.34691
     Eigenvalues ---    0.35194   0.40140   0.54887   1.21017
 Eigenvectors required to have negative eigenvalues:
                          R3        R2        R12       R5        A2
   1                   -0.61466  -0.49488  -0.39792   0.18964  -0.18369
                          R10       A3        A19       D27       D20
   1                    0.13641   0.13517  -0.10824  -0.09816   0.09811
 RFO step:  Lambda0=1.687628377D-07 Lambda=-7.52049704D-07.
 Linear search not attempted -- option 19 set.
 Iteration  1 RMS(Cart)=  0.00258985 RMS(Int)=  0.00000351
 Iteration  2 RMS(Cart)=  0.00000431 RMS(Int)=  0.00000112
 Iteration  3 RMS(Cart)=  0.00000000 RMS(Int)=  0.00000112
 Variable       Old X    -DE/DX   Delta X   Delta X   Delta X     New X
                                 (Linear)    (Quad)   (Total)
    R1        2.14495   0.00009   0.00000   0.00010   0.00010   2.14504
    R2        3.61331   0.00002   0.00000  -0.00071  -0.00071   3.61259
    R3        3.46906   0.00003   0.00000  -0.00134  -0.00134   3.46771
    R4        2.67305   0.00009   0.00000   0.00025   0.00025   2.67331
    R5        1.98012  -0.00010   0.00000   0.00001   0.00001   1.98013
    R6        2.06388   0.00000   0.00000  -0.00001  -0.00001   2.06387
    R7        2.06007   0.00001   0.00000   0.00002   0.00002   2.06009
    R8        2.06436   0.00000   0.00000  -0.00002  -0.00002   2.06434
    R9        2.08599  -0.00000   0.00000   0.00010   0.00010   2.08608
   R10        2.40965  -0.00007   0.00000   0.00013   0.00013   2.40978
   R11        2.87084  -0.00000   0.00000  -0.00004  -0.00004   2.87080
   R12        2.69597   0.00002   0.00000  -0.00047  -0.00047   2.69550
   R13        2.06138   0.00000   0.00000  -0.00001  -0.00001   2.06137
   R14        2.05778  -0.00000   0.00000  -0.00000  -0.00000   2.05777
   R15        2.06025   0.00000   0.00000   0.00000   0.00000   2.06026
    A1        1.96321  -0.00006   0.00000  -0.00031  -0.00031   1.96290
    A2        2.68530   0.00009   0.00000   0.00137   0.00137   2.68667
    A3        1.61673  -0.00003   0.00000  -0.00028  -0.00028   1.61644
    A4        1.93974   0.00000   0.00000   0.00029   0.00029   1.94003
    A5        1.50298  -0.00001   0.00000   0.00007   0.00007   1.50305
    A6        1.95377   0.00002   0.00000   0.00029   0.00029   1.95406
    A7        1.93845  -0.00001   0.00000  -0.00012  -0.00012   1.93834
    A8        1.91016   0.00003   0.00000   0.00011   0.00011   1.91027
    A9        1.90079  -0.00000   0.00000  -0.00012  -0.00012   1.90068
   A10        1.90995  -0.00000   0.00000   0.00009   0.00009   1.91004
   A11        1.90645  -0.00000   0.00000  -0.00002  -0.00002   1.90643
   A12        1.89756  -0.00001   0.00000   0.00005   0.00005   1.89761
   A13        1.67996   0.00000   0.00000  -0.00035  -0.00035   1.67961
   A14        1.84029  -0.00001   0.00000   0.00015   0.00015   1.84044
   A15        1.76019  -0.00000   0.00000   0.00075   0.00075   1.76094
   A16        2.06382  -0.00001   0.00000  -0.00020  -0.00020   2.06361
   A17        1.95910  -0.00002   0.00000  -0.00032  -0.00032   1.95877
   A18        2.07453   0.00003   0.00000   0.00016   0.00016   2.07469
   A19        1.76451   0.00001   0.00000  -0.00083  -0.00083   1.76368
   A20        1.86479   0.00000   0.00000   0.00002   0.00002   1.86481
   A21        1.92404  -0.00001   0.00000   0.00009   0.00009   1.92412
   A22        1.95887   0.00001   0.00000  -0.00010  -0.00010   1.95877
   A23        1.88987   0.00000   0.00000  -0.00004  -0.00004   1.88983
   A24        1.89874  -0.00000   0.00000   0.00010   0.00010   1.89884
   A25        1.92516   0.00000   0.00000  -0.00007  -0.00007   1.92510
   A26        2.64657   0.00003   0.00000  -0.00022  -0.00022   2.64635
    D1        0.92484   0.00002   0.00000   0.00097   0.00097   0.92581
    D2        2.88036   0.00003   0.00000   0.00134   0.00134   2.88169
    D3       -2.08699  -0.00002   0.00000  -0.00199  -0.00199  -2.08898
    D4       -0.13148  -0.00000   0.00000  -0.00162  -0.00162  -0.13310
    D5        1.57088  -0.00000   0.00000  -0.00224  -0.00224   1.56864
    D6       -2.58971  -0.00001   0.00000  -0.00255  -0.00255  -2.59225
    D7       -0.42109   0.00001   0.00000  -0.00196  -0.00196  -0.42305
    D8       -1.84550   0.00001   0.00000   0.00335   0.00335  -1.84215
    D9        0.27710   0.00000   0.00000   0.00304   0.00304   0.28013
   D10        2.44572   0.00003   0.00000   0.00362   0.00362   2.44934
   D11        1.31746  -0.00001   0.00000  -0.00122  -0.00122   1.31624
   D12       -2.85504  -0.00000   0.00000  -0.00110  -0.00110  -2.85614
   D13       -0.78276   0.00000   0.00000  -0.00104  -0.00104  -0.78380
   D14       -0.33085  -0.00001   0.00000  -0.00155  -0.00155  -0.33240
   D15        1.77984   0.00000   0.00000  -0.00143  -0.00143   1.77841
   D16       -2.43107   0.00001   0.00000  -0.00137  -0.00137  -2.43244
   D17       -0.06106   0.00000   0.00000  -0.00002  -0.00002  -0.06107
   D18        1.88050   0.00000   0.00000   0.00036   0.00035   1.88086
   D19       -0.27809  -0.00000   0.00000  -0.00286  -0.00286  -0.28095
   D20        1.57308  -0.00001   0.00000  -0.00328  -0.00328   1.56979
   D21       -2.23356  -0.00001   0.00000  -0.00399  -0.00399  -2.23754
   D22        3.03538   0.00001   0.00000   0.00192   0.00192   3.03730
   D23       -1.19794   0.00001   0.00000   0.00194   0.00194  -1.19601
   D24        0.95554   0.00000   0.00000   0.00185   0.00185   0.95738
   D25        1.26500   0.00001   0.00000   0.00206   0.00206   1.26706
   D26       -2.96833   0.00001   0.00000   0.00207   0.00207  -2.96626
   D27       -0.81485   0.00000   0.00000   0.00198   0.00198  -0.81286
   D28       -1.24885   0.00001   0.00000   0.00269   0.00269  -1.24616
   D29        0.80101   0.00001   0.00000   0.00271   0.00271   0.80372
   D30        2.95449   0.00001   0.00000   0.00262   0.00262   2.95711
   D31        0.28681   0.00001   0.00000   0.00230   0.00230   0.28911
         Item               Value     Threshold  Converged?
 Maximum Force            0.000105     0.000450     YES
 RMS     Force            0.000027     0.000300     YES
 Maximum Displacement     0.008483     0.001800     NO 
 RMS     Displacement     0.002590     0.001200     NO 
 Predicted change in Energy=-2.916431D-07
 GradGradGradGradGradGradGradGradGradGradGradGradGradGradGradGradGradGrad

                          Input orientation:                          
 ---------------------------------------------------------------------
 Center     Atomic      Atomic             Coordinates (Angstroms)
 Number     Number       Type             X           Y           Z
 ---------------------------------------------------------------------
      1          6           0        0.664248   -0.125314    0.296734
      2          8           0        1.044194   -0.183142    1.364801
      3          8           0        0.100653   -1.825552   -0.371213
      4          6           0       -0.834311   -2.432005    0.500166
      5          1           0       -1.816018   -1.961759    0.411204
      6          1           0       -0.917232   -3.492662    0.262340
      7          1           0       -0.478218   -2.329828    1.527833
      8          6           0        0.037575    0.758423   -1.184361
      9          1           0        1.025822    0.946017   -1.639101
     10          8           0       -0.746902   -0.063284   -1.763605
     11          6           0       -0.548252    2.006931   -0.547261
     12          1           0       -0.858431    2.662026   -1.362461
     13          1           0       -1.429009    1.752321    0.040277
     14          1           0        0.178777    2.534792    0.070327
     15          1           0       -0.369685   -1.288548   -1.138267
 ---------------------------------------------------------------------
                    Distance matrix (angstroms):
                    1          2          3          4          5
     1  C    0.000000
     2  O    1.135108   0.000000
     3  O    1.911702   2.569343   0.000000
     4  C    2.758240   3.055119   1.414653   0.000000
     5  H    3.088261   3.500520   2.074694   1.092152   0.000000
     6  H    3.720390   4.001942   2.053469   1.090152   1.781472
     7  H    2.771411   2.636774   2.048356   1.092402   1.781023
     8  C    1.835034   2.897939   2.709634   3.711691   3.658009
     9  H    2.241862   3.209169   3.185134   4.409943   4.553567
    10  O    2.498037   3.606843   2.400561   3.277673   3.078476
    11  C    2.594022   3.314858   3.891015   4.569801   4.275089
    12  H    3.583398   4.376405   4.694760   5.423939   5.044031
    13  H    2.823652   3.408389   3.912847   4.251324   3.752567
    14  H    2.713504   3.132375   4.383339   5.087257   4.930961
    15  H    2.116922   3.079988   1.047837   2.051301   2.223950
                    6          7          8          9         10
     6  H    0.000000
     7  H    1.773807   0.000000
     8  C    4.590896   4.142383   0.000000
     9  H    5.205076   4.798205   1.103908   0.000000
    10  O    3.986741   4.005369   1.275198   2.043708   0.000000
    11  C    5.571097   4.808160   1.519164   2.189832   2.409303
    12  H    6.365817   5.780741   2.111457   2.563518   2.756931
    13  H    5.274569   4.447558   2.153704   3.081661   2.648714
    14  H    6.129300   5.120595   2.179373   2.482707   3.312128
    15  H    2.668263   2.864286   2.087601   2.681708   1.426398
                   11         12         13         14         15
    11  C    0.000000
    12  H    1.090830   0.000000
    13  H    1.088926   1.766578   0.000000
    14  H    1.090241   1.773378   1.788334   0.000000
    15  H    3.352813   3.987000   3.428998   4.047152   0.000000
 Symmetry turned off by external request.
 Stoichiometry    C4H8O3
 Framework group  C1[X(C4H8O3)]
 Deg. of freedom    39
 Full point group                 C1      NOp   1
 Rotational constants (GHZ):           3.5620925           1.9738968           1.4615334
 Standard basis: def2TZVP (5D, 7F)
   265 basis functions,   421 primitive gaussians,   300 cartesian basis functions
    28 alpha electrons       28 beta electrons
       nuclear repulsion energy       314.5749043453 Hartrees.
 NAtoms=   15 NActive=   15 NUniq=   15 SFac= 1.00D+00 NAtFMM=   60 NAOKFM=F Big=F
 Integral buffers will be    131072 words long.
 Raffenetti 2 integral format.
 Two-electron integral symmetry is turned off.
 One-electron integrals computed using PRISM.
   1 Symmetry operations used in ECPInt.
 ECPInt:  NShTT=    5995 NPrTT=   17944 LenC2=    5885 LenP2D=   14081.
 LDataN:  DoStor=T MaxTD1= 6 Len=  172
 NBasis=   265 RedAO= T EigKep=  3.35D-04  NBF=   265
 NBsUse=   265 1.00D-06 EigRej= -1.00D+00 NBFU=   265
 Initial guess from the checkpoint file:  "/dev/shm/lmethyllactate_tsd_ts.chk"
 B after Tr=    -0.001538    0.000373    0.001154
         Rot=    1.000000   -0.000048    0.000105   -0.000071 Ang=  -0.02 deg.
 Requested convergence on RMS density matrix=1.00D-08 within 400 cycles.
 Requested convergence on MAX density matrix=1.00D-06.
 Requested convergence on             energy=1.00D-06.
 No special actions if energy rises.
 SCF Done:  E(RM062X) =  -382.820225607     A.U. after    8 cycles
            NFock=  8  Conv=0.84D-08     -V/T= 2.0044
 QCSCF skips out because SCF is already converged.
   1 Symmetry operations used in ECPInt.
 ECPInt:  NShTT=    5995 NPrTT=   17944 LenC2=    5885 LenP2D=   14081.
 LDataN:  DoStor=T MaxTD1= 7 Len=  274
 Calling FoFJK, ICntrl=      2127 FMM=F ISym2X=0 I1Cent= 0 IOpClX= 0 NMat=1 NMatS=1 NMatT=0.
 -------------------------------------------------------------------
 Center     Atomic                   Forces (Hartrees/Bohr)
 Number     Number              X              Y              Z
 -------------------------------------------------------------------
      1        6           0.000000544   -0.000000126    0.000000411
      2        8          -0.000000357    0.000000379    0.000000630
      3        8           0.000000388   -0.000000063   -0.000000724
      4        6           0.000000773   -0.000000385   -0.000000800
      5        1           0.000000463   -0.000000758   -0.000000800
      6        1           0.000001081   -0.000000415   -0.000001137
      7        1           0.000000442   -0.000000632   -0.000000657
      8        6          -0.000000815    0.000000626    0.000000067
      9        1           0.000000025    0.000000904    0.000000664
     10        8           0.000000275    0.000000534   -0.000000250
     11        6          -0.000000678    0.000000019    0.000000706
     12        1          -0.000000804    0.000000148    0.000000775
     13        1          -0.000000735   -0.000000426    0.000000431
     14        1          -0.000001078    0.000000119    0.000000933
     15        1           0.000000477    0.000000076   -0.000000250
 -------------------------------------------------------------------
 Cartesian Forces:  Max     0.000001137 RMS     0.000000606

 GradGradGradGradGradGradGradGradGradGradGradGradGradGradGradGradGradGrad
 Berny optimization.
 FormGI is forming the generalized inverse of G from B-inverse, IUseBI=4.
 Internal  Forces:  Max     0.000000475 RMS     0.000000127
 Search for a saddle point.
 Step number   2 out of a maximum of  100
 All quantities printed in internal units (Hartrees-Bohrs-Radians)
 Swapping is turned off.
 Update second derivatives using D2CorX and points    1    2
 ITU=  0  0
     Eigenvalues ---   -0.04806   0.00044   0.00101   0.00230   0.00260
     Eigenvalues ---    0.00395   0.01529   0.02153   0.03754   0.04192
     Eigenvalues ---    0.04373   0.04928   0.05553   0.06058   0.06387
     Eigenvalues ---    0.06491   0.06985   0.07729   0.10880   0.10897
     Eigenvalues ---    0.12314   0.13436   0.14113   0.15926   0.16562
     Eigenvalues ---    0.18353   0.18877   0.28677   0.29047   0.31149
     Eigenvalues ---    0.33749   0.33811   0.34246   0.34483   0.34691
     Eigenvalues ---    0.35194   0.40140   0.54887   1.21017
 Eigenvectors required to have negative eigenvalues:
                          R3        R2        R12       R5        A2
   1                   -0.61468  -0.49490  -0.39792   0.18966  -0.18395
                          R10       A3        A19       D20       D27
   1                    0.13646   0.13518  -0.10815   0.09840  -0.09828
 RFO step:  Lambda0=5.949244569D-12 Lambda= 0.00000000D+00.
 Linear search not attempted -- option 19 set.
 Iteration  1 RMS(Cart)=  0.00002744 RMS(Int)=  0.00000000
 Iteration  2 RMS(Cart)=  0.00000000 RMS(Int)=  0.00000000
 Variable       Old X    -DE/DX   Delta X   Delta X   Delta X     New X
                                 (Linear)    (Quad)   (Total)
    R1        2.14504   0.00000   0.00000   0.00000   0.00000   2.14504
    R2        3.61259   0.00000   0.00000  -0.00001  -0.00001   3.61258
    R3        3.46771   0.00000   0.00000  -0.00000  -0.00000   3.46771
    R4        2.67331   0.00000   0.00000  -0.00000  -0.00000   2.67331
    R5        1.98013   0.00000   0.00000   0.00000   0.00000   1.98013
    R6        2.06387   0.00000   0.00000  -0.00000  -0.00000   2.06387
    R7        2.06009   0.00000   0.00000   0.00000   0.00000   2.06009
    R8        2.06434   0.00000   0.00000   0.00000   0.00000   2.06434
    R9        2.08608   0.00000   0.00000   0.00000   0.00000   2.08608
   R10        2.40978  -0.00000   0.00000   0.00000   0.00000   2.40978
   R11        2.87080   0.00000   0.00000  -0.00000  -0.00000   2.87080
   R12        2.69550   0.00000   0.00000  -0.00001  -0.00001   2.69550
   R13        2.06137   0.00000   0.00000   0.00000   0.00000   2.06137
   R14        2.05777  -0.00000   0.00000  -0.00000  -0.00000   2.05777
   R15        2.06026  -0.00000   0.00000  -0.00000  -0.00000   2.06026
    A1        1.96290   0.00000   0.00000   0.00000   0.00000   1.96290
    A2        2.68667  -0.00000   0.00000  -0.00001  -0.00001   2.68666
    A3        1.61644  -0.00000   0.00000  -0.00000  -0.00000   1.61644
    A4        1.94003   0.00000   0.00000   0.00001   0.00001   1.94004
    A5        1.50305   0.00000   0.00000   0.00000   0.00000   1.50305
    A6        1.95406   0.00000   0.00000   0.00001   0.00001   1.95407
    A7        1.93834   0.00000   0.00000   0.00000   0.00000   1.93834
    A8        1.91027  -0.00000   0.00000  -0.00000  -0.00000   1.91027
    A9        1.90068   0.00000   0.00000   0.00000   0.00000   1.90068
   A10        1.91004  -0.00000   0.00000   0.00000   0.00000   1.91004
   A11        1.90643  -0.00000   0.00000  -0.00000  -0.00000   1.90643
   A12        1.89761  -0.00000   0.00000  -0.00000  -0.00000   1.89761
   A13        1.67961  -0.00000   0.00000   0.00000   0.00000   1.67961
   A14        1.84044   0.00000   0.00000  -0.00000  -0.00000   1.84044
   A15        1.76094   0.00000   0.00000   0.00000   0.00000   1.76094
   A16        2.06361  -0.00000   0.00000  -0.00000  -0.00000   2.06361
   A17        1.95877  -0.00000   0.00000  -0.00000  -0.00000   1.95877
   A18        2.07469   0.00000   0.00000   0.00000   0.00000   2.07469
   A19        1.76368   0.00000   0.00000  -0.00000  -0.00000   1.76367
   A20        1.86481  -0.00000   0.00000  -0.00000  -0.00000   1.86481
   A21        1.92412   0.00000   0.00000   0.00000   0.00000   1.92413
   A22        1.95877   0.00000   0.00000  -0.00000  -0.00000   1.95877
   A23        1.88983  -0.00000   0.00000   0.00000   0.00000   1.88983
   A24        1.89884  -0.00000   0.00000  -0.00000  -0.00000   1.89884
   A25        1.92510  -0.00000   0.00000  -0.00000  -0.00000   1.92510
   A26        2.64635   0.00000   0.00000  -0.00000  -0.00000   2.64635
    D1        0.92581  -0.00000   0.00000  -0.00005  -0.00005   0.92577
    D2        2.88169  -0.00000   0.00000  -0.00004  -0.00004   2.88166
    D3       -2.08898  -0.00000   0.00000  -0.00003  -0.00003  -2.08901
    D4       -0.13310   0.00000   0.00000  -0.00002  -0.00002  -0.13312
    D5        1.56864   0.00000   0.00000   0.00006   0.00006   1.56870
    D6       -2.59225  -0.00000   0.00000   0.00006   0.00006  -2.59220
    D7       -0.42305   0.00000   0.00000   0.00006   0.00006  -0.42299
    D8       -1.84215  -0.00000   0.00000   0.00002   0.00002  -1.84213
    D9        0.28013  -0.00000   0.00000   0.00002   0.00002   0.28016
   D10        2.44934   0.00000   0.00000   0.00002   0.00002   2.44936
   D11        1.31624   0.00000   0.00000   0.00002   0.00002   1.31626
   D12       -2.85614   0.00000   0.00000   0.00002   0.00002  -2.85611
   D13       -0.78380   0.00000   0.00000   0.00002   0.00002  -0.78378
   D14       -0.33240  -0.00000   0.00000   0.00002   0.00002  -0.33238
   D15        1.77841  -0.00000   0.00000   0.00002   0.00002   1.77843
   D16       -2.43244  -0.00000   0.00000   0.00002   0.00002  -2.43243
   D17       -0.06107  -0.00000   0.00000   0.00002   0.00002  -0.06105
   D18        1.88086   0.00000   0.00000   0.00003   0.00003   1.88089
   D19       -0.28095   0.00000   0.00000  -0.00002  -0.00002  -0.28097
   D20        1.56979  -0.00000   0.00000  -0.00002  -0.00002   1.56978
   D21       -2.23754  -0.00000   0.00000  -0.00002  -0.00002  -2.23756
   D22        3.03730  -0.00000   0.00000   0.00000   0.00000   3.03731
   D23       -1.19601  -0.00000   0.00000   0.00000   0.00000  -1.19601
   D24        0.95738  -0.00000   0.00000   0.00000   0.00000   0.95739
   D25        1.26706   0.00000   0.00000   0.00000   0.00000   1.26706
   D26       -2.96626   0.00000   0.00000   0.00000   0.00000  -2.96626
   D27       -0.81286   0.00000   0.00000   0.00000   0.00000  -0.81286
   D28       -1.24616   0.00000   0.00000   0.00000   0.00000  -1.24615
   D29        0.80372   0.00000   0.00000   0.00000   0.00000   0.80372
   D30        2.95711   0.00000   0.00000   0.00000   0.00000   2.95711
   D31        0.28911  -0.00000   0.00000  -0.00001  -0.00001   0.28911
         Item               Value     Threshold  Converged?
 Maximum Force            0.000000     0.000450     YES
 RMS     Force            0.000000     0.000300     YES
 Maximum Displacement     0.000097     0.001800     YES
 RMS     Displacement     0.000027     0.001200     YES
 Predicted change in Energy=-7.399624D-12
 Optimization completed.
    -- Stationary point found.
                           ----------------------------
                           !   Optimized Parameters   !
                           ! (Angstroms and Degrees)  !
 --------------------------                            --------------------------
 ! Name  Definition              Value          Derivative Info.                !
 --------------------------------------------------------------------------------
 ! R1    R(1,2)                  1.1351         -DE/DX =    0.0                 !
 ! R2    R(1,3)                  1.9117         -DE/DX =    0.0                 !
 ! R3    R(1,8)                  1.835          -DE/DX =    0.0                 !
 ! R4    R(3,4)                  1.4147         -DE/DX =    0.0                 !
 ! R5    R(3,15)                 1.0478         -DE/DX =    0.0                 !
 ! R6    R(4,5)                  1.0922         -DE/DX =    0.0                 !
 ! R7    R(4,6)                  1.0902         -DE/DX =    0.0                 !
 ! R8    R(4,7)                  1.0924         -DE/DX =    0.0                 !
 ! R9    R(8,9)                  1.1039         -DE/DX =    0.0                 !
 ! R10   R(8,10)                 1.2752         -DE/DX =    0.0                 !
 ! R11   R(8,11)                 1.5192         -DE/DX =    0.0                 !
 ! R12   R(10,15)                1.4264         -DE/DX =    0.0                 !
 ! R13   R(11,12)                1.0908         -DE/DX =    0.0                 !
 ! R14   R(11,13)                1.0889         -DE/DX =    0.0                 !
 ! R15   R(11,14)                1.0902         -DE/DX =    0.0                 !
 ! A1    A(2,1,3)              112.4659         -DE/DX =    0.0                 !
 ! A2    A(2,1,8)              153.9349         -DE/DX =    0.0                 !
 ! A3    A(3,1,8)               92.6155         -DE/DX =    0.0                 !
 ! A4    A(1,3,4)              111.1556         -DE/DX =    0.0                 !
 ! A5    A(1,3,15)              86.1184         -DE/DX =    0.0                 !
 ! A6    A(4,3,15)             111.9594         -DE/DX =    0.0                 !
 ! A7    A(3,4,5)              111.0586         -DE/DX =    0.0                 !
 ! A8    A(3,4,6)              109.4503         -DE/DX =    0.0                 !
 ! A9    A(3,4,7)              108.9007         -DE/DX =    0.0                 !
 ! A10   A(5,4,6)              109.4374         -DE/DX =    0.0                 !
 ! A11   A(5,4,7)              109.2302         -DE/DX =    0.0                 !
 ! A12   A(6,4,7)              108.7252         -DE/DX =    0.0                 !
 ! A13   A(1,8,9)               96.2345         -DE/DX =    0.0                 !
 ! A14   A(1,8,10)             105.4493         -DE/DX =    0.0                 !
 ! A15   A(1,8,11)             100.8942         -DE/DX =    0.0                 !
 ! A16   A(9,8,10)             118.2364         -DE/DX =    0.0                 !
 ! A17   A(9,8,11)             112.2295         -DE/DX =    0.0                 !
 ! A18   A(10,8,11)            118.8711         -DE/DX =    0.0                 !
 ! A19   A(8,10,15)            101.0512         -DE/DX =    0.0                 !
 ! A20   A(8,11,12)            106.8459         -DE/DX =    0.0                 !
 ! A21   A(8,11,13)            110.2442         -DE/DX =    0.0                 !
 ! A22   A(8,11,14)            112.2295         -DE/DX =    0.0                 !
 ! A23   A(12,11,13)           108.2793         -DE/DX =    0.0                 !
 ! A24   A(12,11,14)           108.7953         -DE/DX =    0.0                 !
 ! A25   A(13,11,14)           110.2999         -DE/DX =    0.0                 !
 ! A26   A(3,15,10)            151.6248         -DE/DX =    0.0                 !
 ! D1    D(2,1,3,4)             53.0452         -DE/DX =    0.0                 !
 ! D2    D(2,1,3,15)           165.1089         -DE/DX =    0.0                 !
 ! D3    D(8,1,3,4)           -119.6898         -DE/DX =    0.0                 !
 ! D4    D(8,1,3,15)            -7.626          -DE/DX =    0.0                 !
 ! D5    D(2,1,8,9)             89.8765         -DE/DX =    0.0                 !
 ! D6    D(2,1,8,10)          -148.5253         -DE/DX =    0.0                 !
 ! D7    D(2,1,8,11)           -24.239          -DE/DX =    0.0                 !
 ! D8    D(3,1,8,9)           -105.5477         -DE/DX =    0.0                 !
 ! D9    D(3,1,8,10)            16.0505         -DE/DX =    0.0                 !
 ! D10   D(3,1,8,11)           140.3368         -DE/DX =    0.0                 !
 ! D11   D(1,3,4,5)             75.415          -DE/DX =    0.0                 !
 ! D12   D(1,3,4,6)           -163.6446         -DE/DX =    0.0                 !
 ! D13   D(1,3,4,7)            -44.9085         -DE/DX =    0.0                 !
 ! D14   D(15,3,4,5)           -19.0452         -DE/DX =    0.0                 !
 ! D15   D(15,3,4,6)           101.8952         -DE/DX =    0.0                 !
 ! D16   D(15,3,4,7)          -139.3688         -DE/DX =    0.0                 !
 ! D17   D(1,3,15,10)           -3.4992         -DE/DX =    0.0                 !
 ! D18   D(4,3,15,10)          107.7651         -DE/DX =    0.0                 !
 ! D19   D(1,8,10,15)          -16.0972         -DE/DX =    0.0                 !
 ! D20   D(9,8,10,15)           89.9425         -DE/DX =    0.0                 !
 ! D21   D(11,8,10,15)        -128.2017         -DE/DX =    0.0                 !
 ! D22   D(1,8,11,12)          174.0246         -DE/DX =    0.0                 !
 ! D23   D(1,8,11,13)          -68.5263         -DE/DX =    0.0                 !
 ! D24   D(1,8,11,14)           54.8541         -DE/DX =    0.0                 !
 ! D25   D(9,8,11,12)           72.597          -DE/DX =    0.0                 !
 ! D26   D(9,8,11,13)         -169.954          -DE/DX =    0.0                 !
 ! D27   D(9,8,11,14)          -46.5736         -DE/DX =    0.0                 !
 ! D28   D(10,8,11,12)         -71.3995         -DE/DX =    0.0                 !
 ! D29   D(10,8,11,13)          46.0496         -DE/DX =    0.0                 !
 ! D30   D(10,8,11,14)         169.43           -DE/DX =    0.0                 !
 ! D31   D(8,10,15,3)           16.5649         -DE/DX =    0.0                 !
 --------------------------------------------------------------------------------
 GradGradGradGradGradGradGradGradGradGradGradGradGradGradGradGradGradGrad

                          Input orientation:                          
 ---------------------------------------------------------------------
 Center     Atomic      Atomic             Coordinates (Angstroms)
 Number     Number       Type             X           Y           Z
 ---------------------------------------------------------------------
      1          6           0        0.664248   -0.125314    0.296734
      2          8           0        1.044194   -0.183142    1.364801
      3          8           0        0.100653   -1.825552   -0.371213
      4          6           0       -0.834311   -2.432005    0.500166
      5          1           0       -1.816018   -1.961759    0.411204
      6          1           0       -0.917232   -3.492662    0.262340
      7          1           0       -0.478218   -2.329828    1.527833
      8          6           0        0.037575    0.758423   -1.184361
      9          1           0        1.025822    0.946017   -1.639101
     10          8           0       -0.746902   -0.063284   -1.763605
     11          6           0       -0.548252    2.006931   -0.547261
     12          1           0       -0.858431    2.662026   -1.362461
     13          1           0       -1.429009    1.752321    0.040277
     14          1           0        0.178777    2.534792    0.070327
     15          1           0       -0.369685   -1.288548   -1.138267
 ---------------------------------------------------------------------
                    Distance matrix (angstroms):
                    1          2          3          4          5
     1  C    0.000000
     2  O    1.135108   0.000000
     3  O    1.911702   2.569343   0.000000
     4  C    2.758240   3.055119   1.414653   0.000000
     5  H    3.088261   3.500520   2.074694   1.092152   0.000000
     6  H    3.720390   4.001942   2.053469   1.090152   1.781472
     7  H    2.771411   2.636774   2.048356   1.092402   1.781023
     8  C    1.835034   2.897939   2.709634   3.711691   3.658009
     9  H    2.241862   3.209169   3.185134   4.409943   4.553567
    10  O    2.498037   3.606843   2.400561   3.277673   3.078476
    11  C    2.594022   3.314858   3.891015   4.569801   4.275089
    12  H    3.583398   4.376405   4.694760   5.423939   5.044031
    13  H    2.823652   3.408389   3.912847   4.251324   3.752567
    14  H    2.713504   3.132375   4.383339   5.087257   4.930961
    15  H    2.116922   3.079988   1.047837   2.051301   2.223950
                    6          7          8          9         10
     6  H    0.000000
     7  H    1.773807   0.000000
     8  C    4.590896   4.142383   0.000000
     9  H    5.205076   4.798205   1.103908   0.000000
    10  O    3.986741   4.005369   1.275198   2.043708   0.000000
    11  C    5.571097   4.808160   1.519164   2.189832   2.409303
    12  H    6.365817   5.780741   2.111457   2.563518   2.756931
    13  H    5.274569   4.447558   2.153704   3.081661   2.648714
    14  H    6.129300   5.120595   2.179373   2.482707   3.312128
    15  H    2.668263   2.864286   2.087601   2.681708   1.426398
                   11         12         13         14         15
    11  C    0.000000
    12  H    1.090830   0.000000
    13  H    1.088926   1.766578   0.000000
    14  H    1.090241   1.773378   1.788334   0.000000
    15  H    3.352813   3.987000   3.428998   4.047152   0.000000
 Symmetry turned off by external request.
 Stoichiometry    C4H8O3
 Framework group  C1[X(C4H8O3)]
 Deg. of freedom    39
 Full point group                 C1      NOp   1
 Rotational constants (GHZ):           3.5620925           1.9738968           1.4615334

 **********************************************************************

            Population analysis using the SCF Density.

 **********************************************************************

 Alpha  occ. eigenvalues --  -19.72332 -19.65050 -19.57823 -10.69335 -10.64314
 Alpha  occ. eigenvalues --  -10.58994 -10.54192  -1.28890  -1.16928  -1.12157
 Alpha  occ. eigenvalues --   -0.85301  -0.79336  -0.71311  -0.65949  -0.62376
 Alpha  occ. eigenvalues --   -0.59808  -0.57344  -0.54911  -0.53518  -0.52288
 Alpha  occ. eigenvalues --   -0.49467  -0.49199  -0.45847  -0.45645  -0.43771
 Alpha  occ. eigenvalues --   -0.37493  -0.32850  -0.31853
 Alpha virt. eigenvalues --    0.00036   0.02482   0.06450   0.09117   0.10926
 Alpha virt. eigenvalues --    0.12052   0.13348   0.13751   0.14391   0.14984
 Alpha virt. eigenvalues --    0.15849   0.18152   0.19694   0.20464   0.22143
 Alpha virt. eigenvalues --    0.24222   0.26010   0.27011   0.27870   0.29782
 Alpha virt. eigenvalues --    0.32227   0.33881   0.34273   0.39283   0.39671
 Alpha virt. eigenvalues --    0.41746   0.43231   0.43685   0.44050   0.44362
 Alpha virt. eigenvalues --    0.46129   0.47673   0.48582   0.49953   0.51398
 Alpha virt. eigenvalues --    0.52863   0.53841   0.54928   0.55571   0.57794
 Alpha virt. eigenvalues --    0.58827   0.61958   0.62963   0.64092   0.66372
 Alpha virt. eigenvalues --    0.70965   0.72599   0.74911   0.75737   0.76924
 Alpha virt. eigenvalues --    0.80374   0.81063   0.84084   0.86807   0.88707
 Alpha virt. eigenvalues --    0.91720   0.92377   0.96270   0.98600   1.00527
 Alpha virt. eigenvalues --    1.03280   1.04586   1.07850   1.09585   1.10360
 Alpha virt. eigenvalues --    1.14811   1.15762   1.17521   1.21929   1.27460
 Alpha virt. eigenvalues --    1.33402   1.38939   1.41428   1.44199   1.44980
 Alpha virt. eigenvalues --    1.48817   1.50866   1.52097   1.53616   1.55057
 Alpha virt. eigenvalues --    1.56088   1.57529   1.58499   1.60312   1.61930
 Alpha virt. eigenvalues --    1.62103   1.64870   1.66568   1.67832   1.71017
 Alpha virt. eigenvalues --    1.76795   1.79585   1.82418   1.83828   1.86928
 Alpha virt. eigenvalues --    1.89509   1.91072   1.93038   1.97173   1.98449
 Alpha virt. eigenvalues --    2.00344   2.01576   2.05280   2.07114   2.11746
 Alpha virt. eigenvalues --    2.14899   2.18614   2.18977   2.24789   2.25156
 Alpha virt. eigenvalues --    2.27580   2.29360   2.31134   2.31823   2.34171
 Alpha virt. eigenvalues --    2.34340   2.35534   2.38868   2.41209   2.43733
 Alpha virt. eigenvalues --    2.46884   2.50446   2.52454   2.53366   2.55463
 Alpha virt. eigenvalues --    2.56693   2.58906   2.60433   2.63216   2.67202
 Alpha virt. eigenvalues --    2.72199   2.72294   2.75999   2.76373   2.77511
 Alpha virt. eigenvalues --    2.82961   2.84361   2.87276   2.90854   2.95748
 Alpha virt. eigenvalues --    2.98032   2.98411   2.99081   3.01214   3.04940
 Alpha virt. eigenvalues --    3.06095   3.07354   3.10072   3.11988   3.12944
 Alpha virt. eigenvalues --    3.14683   3.18702   3.19788   3.21529   3.23117
 Alpha virt. eigenvalues --    3.24339   3.25132   3.30352   3.32842   3.33982
 Alpha virt. eigenvalues --    3.38242   3.40573   3.41442   3.43601   3.44429
 Alpha virt. eigenvalues --    3.49947   3.53033   3.55397   3.57962   3.58131
 Alpha virt. eigenvalues --    3.60208   3.64750   3.69821   3.71412   3.75394
 Alpha virt. eigenvalues --    3.79248   3.86755   3.88808   3.94640   3.99050
 Alpha virt. eigenvalues --    3.99976   4.08731   4.18863   4.23105   4.25387
 Alpha virt. eigenvalues --    4.30057   4.35705   4.38433   4.40895   4.42242
 Alpha virt. eigenvalues --    4.54879   4.58530   4.67076   4.80898   5.10580
 Alpha virt. eigenvalues --    5.11575   5.23986   5.28691   5.33648   5.38559
 Alpha virt. eigenvalues --    5.50039   5.50407   5.53426   5.56536   5.63457
 Alpha virt. eigenvalues --    5.75818   5.80015   5.89469   5.98677   6.11775
 Alpha virt. eigenvalues --    6.15819   6.25322   6.26941   6.28033   6.31794
 Alpha virt. eigenvalues --    6.38484   6.47341   6.55634   6.58186   6.68285
 Alpha virt. eigenvalues --    6.71179   6.76979   6.82584   6.88766   6.89395
 Alpha virt. eigenvalues --    6.99604   7.03265   7.10572   7.17365   7.25852
 Alpha virt. eigenvalues --   22.42279  22.46586  22.79676  22.97112  43.83604
 Alpha virt. eigenvalues --   44.00117  44.18549
          Condensed to atoms (all electrons):
               1          2          3          4          5          6
     1  C    5.296028   0.625494   0.064382  -0.016771  -0.003545   0.002708
     2  O    0.625494   7.463095  -0.042509   0.001154  -0.000119  -0.000411
     3  O    0.064382  -0.042509   8.175085   0.194162  -0.041229  -0.030012
     4  C   -0.016771   0.001154   0.194162   4.857120   0.419638   0.408086
     5  H   -0.003545  -0.000119  -0.041229   0.419638   0.542300  -0.029324
     6  H    0.002708  -0.000411  -0.030012   0.408086  -0.029324   0.536240
     7  H   -0.008141   0.008103  -0.044770   0.411054  -0.041153  -0.028651
     8  C    0.126751  -0.009432  -0.025920  -0.000008   0.000834  -0.000145
     9  H   -0.066672   0.002438   0.004450  -0.000052   0.000268   0.000058
    10  O   -0.094961   0.003199  -0.079352   0.001302   0.007578   0.000216
    11  C   -0.043589   0.000867  -0.003556   0.000404  -0.000138  -0.000097
    12  H    0.009557  -0.000139  -0.000231   0.000038   0.000015  -0.000002
    13  H   -0.011824   0.000750   0.001079  -0.000638   0.000322   0.000030
    14  H   -0.001821   0.000063   0.000482   0.000064  -0.000004   0.000005
    15  H   -0.031781   0.002397   0.247682  -0.014349  -0.008216  -0.003703
               7          8          9         10         11         12
     1  C   -0.008141   0.126751  -0.066672  -0.094961  -0.043589   0.009557
     2  O    0.008103  -0.009432   0.002438   0.003199   0.000867  -0.000139
     3  O   -0.044770  -0.025920   0.004450  -0.079352  -0.003556  -0.000231
     4  C    0.411054  -0.000008  -0.000052   0.001302   0.000404   0.000038
     5  H   -0.041153   0.000834   0.000268   0.007578  -0.000138   0.000015
     6  H   -0.028651  -0.000145   0.000058   0.000216  -0.000097  -0.000002
     7  H    0.556777   0.000409  -0.000023  -0.001450  -0.000291   0.000013
     8  C    0.000409   4.741506   0.454733   0.473317   0.200750  -0.039070
     9  H   -0.000023   0.454733   0.682958  -0.060978  -0.141273  -0.001579
    10  O   -0.001450   0.473317  -0.060978   8.246541  -0.089943   0.001270
    11  C   -0.000291   0.200750  -0.141273  -0.089943   5.323602   0.402395
    12  H    0.000013  -0.039070  -0.001579   0.001270   0.402395   0.504905
    13  H   -0.000010  -0.005212   0.011819   0.011631   0.358405  -0.015932
    14  H    0.000011  -0.026904   0.007346   0.005397   0.375006  -0.021020
    15  H    0.006152  -0.010465  -0.005158   0.114046   0.009858  -0.000121
              13         14         15
     1  C   -0.011824  -0.001821  -0.031781
     2  O    0.000750   0.000063   0.002397
     3  O    0.001079   0.000482   0.247682
     4  C   -0.000638   0.000064  -0.014349
     5  H    0.000322  -0.000004  -0.008216
     6  H    0.000030   0.000005  -0.003703
     7  H   -0.000010   0.000011   0.006152
     8  C   -0.005212  -0.026904  -0.010465
     9  H    0.011819   0.007346  -0.005158
    10  O    0.011631   0.005397   0.114046
    11  C    0.358405   0.375006   0.009858
    12  H   -0.015932  -0.021020  -0.000121
    13  H    0.526200  -0.020741  -0.000687
    14  H   -0.020741   0.543954  -0.000737
    15  H   -0.000687  -0.000737   0.297033
 Mulliken charges:
               1
     1  C    0.154184
     2  O   -0.054950
     3  O   -0.419743
     4  C   -0.261204
     5  H    0.152772
     6  H    0.145004
     7  H    0.141971
     8  C    0.118855
     9  H    0.111664
    10  O   -0.537813
    11  C   -0.392400
    12  H    0.159901
    13  H    0.144809
    14  H    0.138899
    15  H    0.398051
 Sum of Mulliken charges =  -0.00000
 Mulliken charges with hydrogens summed into heavy atoms:
               1
     1  C    0.154184
     2  O   -0.054950
     3  O   -0.021692
     4  C    0.178543
     8  C    0.230518
    10  O   -0.537813
    11  C    0.051209
 Electronic spatial extent (au):  <R**2>=            891.0744
 Charge=             -0.0000 electrons
 Dipole moment (field-independent basis, Debye):
    X=              0.2163    Y=              0.7320    Z=              1.8215  Tot=              1.9750
 Quadrupole moment (field-independent basis, Debye-Ang):
   XX=            -43.0673   YY=            -37.7113   ZZ=            -48.5985
   XY=              2.8760   XZ=             -4.3993   YZ=             -2.9649
 Traceless Quadrupole moment (field-independent basis, Debye-Ang):
   XX=              0.0584   YY=              5.4144   ZZ=             -5.4728
   XY=              2.8760   XZ=             -4.3993   YZ=             -2.9649
 Octapole moment (field-independent basis, Debye-Ang**2):
  XXX=             16.4989  YYY=             26.5822  ZZZ=             41.9580  XYY=             -3.4531
  XXY=             10.0916  XXZ=             12.8492  XZZ=              9.7185  YZZ=             12.6288
  YYZ=             10.7864  XYZ=              0.3547
 Hexadecapole moment (field-independent basis, Debye-Ang**3):
 XXXX=           -174.4289 YYYY=           -613.0531 ZZZZ=           -336.5938 XXXY=            -17.3064
 XXXZ=            -46.4058 YYYX=             -1.1466 YYYZ=             46.6983 ZZZX=            -55.3957
 ZZZY=             54.3885 XXYY=           -134.7313 XXZZ=            -87.8785 YYZZ=           -151.8745
 XXYZ=             19.6725 YYXZ=             -8.9240 ZZXY=             -6.1912
 N-N= 3.145749043453D+02 E-N=-1.526369731355D+03  KE= 3.811442012015D+02
 1\1\GINC-R3I1N27\FTS\RM062X\def2TZVP\C4H8O3\HMAYES\29-Dec-2019\0\\# m0
 62x/Def2TZVP nosymm scf=(xqc,maxconventionalcycles=400) opt=(TS,ReadFC
 ,noeigentest,maxcycles=200,NoFreeze) freq=NoRaman CPHF=Grid=Fine guess
 =read geom=allcheck\\based on scan lmethyllactate_ts_scan6\\0,1\C,0.66
 42477006,-0.1253137985,0.2967337212\O,1.0441939853,-0.1831423567,1.364
 8007513\O,0.1006525703,-1.8255521259,-0.3712130079\C,-0.834310514,-2.4
 320049642,0.5001663324\H,-1.8160184051,-1.9617591035,0.4112041784\H,-0
 .9172324378,-3.4926624652,0.2623397043\H,-0.478218343,-2.329828209,1.5
 278332746\C,0.0375747691,0.7584231159,-1.1843609802\H,1.0258222799,0.9
 460173218,-1.6391011337\O,-0.7469020843,-0.0632842464,-1.7636051702\C,
 -0.5482524661,2.006930538,-0.5472613855\H,-0.8584311371,2.6620259034,-
 1.3624610079\H,-1.4290093156,1.7523213771,0.040277181\H,0.1787769963,2
 .5347919819,0.0703271645\H,-0.3696847486,-1.2885482786,-1.1382673321\\
 Version=ES64L-G16RevB.01\HF=-382.8202256\RMSD=8.375e-09\RMSF=6.059e-07
 \Dipole=0.0850845,0.2879951,0.7166395\Quadrupole=0.0433966,4.0254768,-
 4.0688734,2.1382085,-3.2707434,-2.2043528\PG=C01 [X(C4H8O3)]\\@


 I WOULD TAKE COUNSEL OF MYSELF.
 I WOULD STOP AND LOOK WITHIN
 AND LOOKING WITHIN, LOOK BACK, ALSO
 THAT I MAY LOOK AHEAD WITH CLEARER UNDERSTANDING
 OF THE WAY I HAVE BEEN MOVING, AND IN WHAT DIRECTION.
 I NEED TO KNOW IF I AM GOING FORWARD OR RETREATING,
 WHETHER I HAVE BEEN WASTING, OR ENJOYING
 THE PRECIOUS MOMENTS OF LIFE.  THERE HAVE BEEN FRICTIONS,
 ANNOYANCES AND SOMETIMES WRATH,
 BUT WERE THEY BECAUSE I WAS RIGHT AND OTHERS WRONG.....
 HAVE I HAD MY THOUGHTS TOO SHARPLY FOCUSED
 ON THAT WHICH PLEASED ME, SERVED MY SELF-ESTEEM,
 UNDERGIRDED MY SECURITY,
 OF WHICH I DID NOT INQUIRE WHETHER IT SERVED OR HAMPERED OTHERS.....
 HAVE I BEEN TRYING TO STOP THE CLOCK
 TO HOLD THE WORLD
 IN PERPETUATION OF WHAT WAS AN IS ALREADY SLIPPING AWAY.....
 HAVE I BEEN CRITICAL OF OTHERS FOR WHAT REALLY NEEDED CHANGING IN ME...
 LET ME INDEED TAKE COUNSEL OF MYSELF
 AND SET MY DIRECTIONS STRAIGHT.

                          R.T. WESTON AS ADAPTED BY D. OSBORN 1967
 Job cpu time:       0 days  0 hours  8 minutes 22.8 seconds.
 Elapsed time:       0 days  0 hours  0 minutes 14.8 seconds.
 File lengths (MBytes):  RWF=     43 Int=      0 D2E=      0 Chk=      7 Scr=      1
 Normal termination of Gaussian 16 at Sun Dec 29 15:59:50 2019.
 Link1:  Proceeding to internal job step number  2.
 --------------------------------------------------------------------
 #N Geom=AllCheck Guess=TCheck SCRF=Check GenChk RM062X/def2TZVP Freq
 --------------------------------------------------------------------
 1/4=180224,5=1,6=200,10=4,11=1,29=7,30=1,38=1,40=1/1,3;
 2/4=180224,12=2,15=1,40=1/2;
 3/4=180224,5=44,7=101,11=2,14=-4,25=1,30=1,70=2,71=2,74=-55,116=1,140=1/1,2,3;
 4/4=180224,5=101/1;
 5/4=180224,5=2,8=3,13=1,38=6,85=400,98=1/2,8;
 8/4=180224,6=4,10=90,11=11/1;
 11/4=180224,6=1,8=1,9=11,15=111,16=1,31=1/1,2,10;
 10/4=180224,6=1,31=1,60=4/2;
 6/4=180224,7=2,8=2,9=2,10=2,28=1/1;
 7/4=180224,8=1,10=1,25=1,30=1/1,2,3,16;
 1/4=180224,5=1,6=200,10=4,11=1,30=1/3;
 99/4=180224/99;
 Structure from the checkpoint file:  "/dev/shm/lmethyllactate_tsd_ts.chk"
 -------------------------------------
 based on scan lmethyllactate_ts_scan6
 -------------------------------------
 Charge =  0 Multiplicity = 1
 Redundant internal coordinates found in file.  (old form).
 C,0,0.6642477006,-0.1253137985,0.2967337212
 O,0,1.0441939853,-0.1831423567,1.3648007513
 O,0,0.1006525703,-1.8255521259,-0.3712130079
 C,0,-0.834310514,-2.4320049642,0.5001663324
 H,0,-1.8160184051,-1.9617591035,0.4112041784
 H,0,-0.9172324378,-3.4926624652,0.2623397043
 H,0,-0.478218343,-2.329828209,1.5278332746
 C,0,0.0375747691,0.7584231159,-1.1843609802
 H,0,1.0258222799,0.9460173218,-1.6391011337
 O,0,-0.7469020843,-0.0632842464,-1.7636051702
 C,0,-0.5482524661,2.006930538,-0.5472613855
 H,0,-0.8584311371,2.6620259034,-1.3624610079
 H,0,-1.4290093156,1.7523213771,0.040277181
 H,0,0.1787769963,2.5347919819,0.0703271645
 H,0,-0.3696847486,-1.2885482786,-1.1382673321
 Recover connectivity data from disk.

 GradGradGradGradGradGradGradGradGradGradGradGradGradGradGradGradGradGrad
 Berny optimization.
 Initialization pass.
                           ----------------------------
                           !    Initial Parameters    !
                           ! (Angstroms and Degrees)  !
 --------------------------                            --------------------------
 ! Name  Definition              Value          Derivative Info.                !
 --------------------------------------------------------------------------------
 ! R1    R(1,2)                  1.1351         calculate D2E/DX2 analytically  !
 ! R2    R(1,3)                  1.9117         calculate D2E/DX2 analytically  !
 ! R3    R(1,8)                  1.835          calculate D2E/DX2 analytically  !
 ! R4    R(3,4)                  1.4147         calculate D2E/DX2 analytically  !
 ! R5    R(3,15)                 1.0478         calculate D2E/DX2 analytically  !
 ! R6    R(4,5)                  1.0922         calculate D2E/DX2 analytically  !
 ! R7    R(4,6)                  1.0902         calculate D2E/DX2 analytically  !
 ! R8    R(4,7)                  1.0924         calculate D2E/DX2 analytically  !
 ! R9    R(8,9)                  1.1039         calculate D2E/DX2 analytically  !
 ! R10   R(8,10)                 1.2752         calculate D2E/DX2 analytically  !
 ! R11   R(8,11)                 1.5192         calculate D2E/DX2 analytically  !
 ! R12   R(10,15)                1.4264         calculate D2E/DX2 analytically  !
 ! R13   R(11,12)                1.0908         calculate D2E/DX2 analytically  !
 ! R14   R(11,13)                1.0889         calculate D2E/DX2 analytically  !
 ! R15   R(11,14)                1.0902         calculate D2E/DX2 analytically  !
 ! A1    A(2,1,3)              112.4659         calculate D2E/DX2 analytically  !
 ! A2    A(2,1,8)              153.9349         calculate D2E/DX2 analytically  !
 ! A3    A(3,1,8)               92.6155         calculate D2E/DX2 analytically  !
 ! A4    A(1,3,4)              111.1556         calculate D2E/DX2 analytically  !
 ! A5    A(1,3,15)              86.1184         calculate D2E/DX2 analytically  !
 ! A6    A(4,3,15)             111.9594         calculate D2E/DX2 analytically  !
 ! A7    A(3,4,5)              111.0586         calculate D2E/DX2 analytically  !
 ! A8    A(3,4,6)              109.4503         calculate D2E/DX2 analytically  !
 ! A9    A(3,4,7)              108.9007         calculate D2E/DX2 analytically  !
 ! A10   A(5,4,6)              109.4374         calculate D2E/DX2 analytically  !
 ! A11   A(5,4,7)              109.2302         calculate D2E/DX2 analytically  !
 ! A12   A(6,4,7)              108.7252         calculate D2E/DX2 analytically  !
 ! A13   A(1,8,9)               96.2345         calculate D2E/DX2 analytically  !
 ! A14   A(1,8,10)             105.4493         calculate D2E/DX2 analytically  !
 ! A15   A(1,8,11)             100.8942         calculate D2E/DX2 analytically  !
 ! A16   A(9,8,10)             118.2364         calculate D2E/DX2 analytically  !
 ! A17   A(9,8,11)             112.2295         calculate D2E/DX2 analytically  !
 ! A18   A(10,8,11)            118.8711         calculate D2E/DX2 analytically  !
 ! A19   A(8,10,15)            101.0512         calculate D2E/DX2 analytically  !
 ! A20   A(8,11,12)            106.8459         calculate D2E/DX2 analytically  !
 ! A21   A(8,11,13)            110.2442         calculate D2E/DX2 analytically  !
 ! A22   A(8,11,14)            112.2295         calculate D2E/DX2 analytically  !
 ! A23   A(12,11,13)           108.2793         calculate D2E/DX2 analytically  !
 ! A24   A(12,11,14)           108.7953         calculate D2E/DX2 analytically  !
 ! A25   A(13,11,14)           110.2999         calculate D2E/DX2 analytically  !
 ! A26   A(3,15,10)            151.6248         calculate D2E/DX2 analytically  !
 ! D1    D(2,1,3,4)             53.0452         calculate D2E/DX2 analytically  !
 ! D2    D(2,1,3,15)           165.1089         calculate D2E/DX2 analytically  !
 ! D3    D(8,1,3,4)           -119.6898         calculate D2E/DX2 analytically  !
 ! D4    D(8,1,3,15)            -7.626          calculate D2E/DX2 analytically  !
 ! D5    D(2,1,8,9)             89.8765         calculate D2E/DX2 analytically  !
 ! D6    D(2,1,8,10)          -148.5253         calculate D2E/DX2 analytically  !
 ! D7    D(2,1,8,11)           -24.239          calculate D2E/DX2 analytically  !
 ! D8    D(3,1,8,9)           -105.5477         calculate D2E/DX2 analytically  !
 ! D9    D(3,1,8,10)            16.0505         calculate D2E/DX2 analytically  !
 ! D10   D(3,1,8,11)           140.3368         calculate D2E/DX2 analytically  !
[...]
 ! D26   D(9,8,11,13)         -169.954          -DE/DX =    0.0                 !
 ! D27   D(9,8,11,14)          -46.5736         -DE/DX =    0.0                 !
 ! D28   D(10,8,11,12)         -71.3995         -DE/DX =    0.0                 !
 ! D29   D(10,8,11,13)          46.0496         -DE/DX =    0.0                 !
 ! D30   D(10,8,11,14)         169.43           -DE/DX =    0.0                 !
 ! D31   D(8,10,15,3)           16.5649         -DE/DX =    0.0                 !
 --------------------------------------------------------------------------------
 GradGradGradGradGradGradGradGradGradGradGradGradGradGradGradGradGradGrad


 ----------------------------------------------------------------------

 Electric dipole moment (input orientation):
 (Debye = 10**-18 statcoulomb cm , SI units = C m)
                  (au)            (Debye)         (10**-30 SI)
   Tot        0.777014D+00      0.197497D+01      0.658780D+01
   x          0.850852D-01      0.216265D+00      0.721382D+00
   y          0.287994D+00      0.732008D+00      0.244172D+01
   z          0.716639D+00      0.182151D+01      0.607592D+01

 Dipole polarizability, Alpha (input orientation).
 (esu units = cm**3 , SI units = C**2 m**2 J**-1)
 Alpha(0;0):
               (au)            (10**-24 esu)      (10**-40 SI)
   iso        0.634244D+02      0.939853D+01      0.104573D+02
   aniso      0.232301D+02      0.344235D+01      0.383013D+01
   xx         0.544641D+02      0.807075D+01      0.897992D+01
   yx         0.354196D+01      0.524864D+00      0.583990D+00
   yy         0.752081D+02      0.111447D+02      0.124001D+02
   zx         0.549011D+01      0.813550D+00      0.905197D+00
   zy        -0.486174D+01     -0.720436D+00     -0.801593D+00
   zz         0.606010D+02      0.898014D+01      0.999176D+01

 ----------------------------------------------------------------------

 Dipole orientation:
     6          1.19101299         -0.45422382          0.56685602
     8          1.68582073         -1.31894062          2.46649858
     8          0.33867149         -2.94727058         -1.90479422
     6         -1.57324967         -4.58442103         -1.00431423
     1         -3.41718988         -3.65781187         -1.03314466
     1         -1.63743968         -6.27564864         -2.17887631
     1         -1.12126249         -5.13913152          0.93204890
     6          0.28538308          2.15883004         -1.52522767
     1          2.22786579          2.76707328         -1.98189858
     8         -1.03516809          1.15400707         -3.27265255
     6         -0.99641324          3.92670043          0.33841150
     1         -1.43635771          5.65953335         -0.68774097
     1         -2.76184130          3.10356518          1.00184050
     1          0.22004470          4.39135357          1.93496561
     1         -0.40729208         -1.44898172         -2.96288907

 Electric dipole moment (dipole orientation):
 (Debye = 10**-18 statcoulomb cm , SI units = C m)
                  (au)            (Debye)         (10**-30 SI)
   Tot        0.777014D+00      0.197497D+01      0.658780D+01
   x          0.000000D+00      0.000000D+00      0.000000D+00
   y          0.000000D+00      0.000000D+00      0.000000D+00
   z          0.777014D+00      0.197497D+01      0.658780D+01

 Dipole polarizability, Alpha (dipole orientation).
 (esu units = cm**3 , SI units = C**2 m**2 J**-1)
 Alpha(0;0):
               (au)            (10**-24 esu)      (10**-40 SI)
   iso        0.634244D+02      0.939853D+01      0.104573D+02
   aniso      0.232301D+02      0.344235D+01      0.383013D+01
   xx         0.531810D+02      0.788061D+01      0.876836D+01
   yx         0.155910D+01      0.231035D+00      0.257061D+00
   yy         0.764856D+02      0.113340D+02      0.126108D+02
   zx         0.577239D+01      0.855380D+00      0.951739D+00
   zy         0.154831D+01      0.229436D+00      0.255282D+00
   zz         0.606066D+02      0.898097D+01      0.999268D+01

 ----------------------------------------------------------------------
 1\1\GINC-R3I1N27\Freq\RM062X\def2TZVP\C4H8O3\HMAYES\29-Dec-2019\0\\#N 
 Geom=AllCheck Guess=TCheck SCRF=Check GenChk RM062X/def2TZVP Freq\\bas
 ed on scan lmethyllactate_ts_scan6\\0,1\C,0.6642477006,-0.1253137985,0
 .2967337212\O,1.0441939853,-0.1831423567,1.3648007513\O,0.1006525703,-
 1.8255521259,-0.3712130079\C,-0.834310514,-2.4320049642,0.5001663324\H
 ,-1.8160184051,-1.9617591035,0.4112041784\H,-0.9172324378,-3.492662465
 2,0.2623397043\H,-0.478218343,-2.329828209,1.5278332746\C,0.0375747691
 ,0.7584231159,-1.1843609802\H,1.0258222799,0.9460173218,-1.6391011337\
 O,-0.7469020843,-0.0632842464,-1.7636051702\C,-0.5482524661,2.00693053
 8,-0.5472613855\H,-0.8584311371,2.6620259034,-1.3624610079\H,-1.429009
 3156,1.7523213771,0.040277181\H,0.1787769963,2.5347919819,0.0703271645
 \H,-0.3696847486,-1.2885482786,-1.1382673321\\Version=ES64L-G16RevB.01
 \HF=-382.8202256\RMSD=3.366e-09\RMSF=6.057e-07\ZeroPoint=0.1180048\The
 rmal=0.1267913\Dipole=0.0850852,0.2879942,0.7166389\DipoleDeriv=0.3124
 312,0.6508246,0.0662532,0.3505375,1.2181793,0.1565038,0.4587874,0.8515
 673,0.6246685,-0.3014342,-0.1901141,-0.2602805,0.0277211,-0.2857207,0.
 1292032,-0.594536,-0.3540891,-1.0003306,-0.549976,-0.3722428,0.0895639
 ,-0.3354057,-1.6509665,0.2566515,0.107302,0.2973041,-0.7838968,0.45637
 75,0.3481287,-0.1971929,0.1653419,0.4216636,-0.1419292,-0.2479806,-0.4
 241305,0.4425573,-0.0937134,-0.0098927,0.0320902,0.0889981,0.0052199,0
 .0168033,-0.0123742,0.0473332,0.0390835,0.0396381,-0.0695449,0.0254094
 ,-0.0531547,-0.1536778,-0.0013108,0.0198353,0.002646,0.0472995,0.01444
 35,-0.0333114,-0.0786889,-0.0250245,0.0636082,-0.0531462,-0.005368,0.0
 611341,-0.1016109,0.9174744,-0.0888515,0.4836612,0.0908006,0.9319323,0
 .0845672,0.4362266,-0.1571553,1.1965745,-0.1934434,-0.0282605,0.045183
 4,-0.0119922,-0.090186,0.0490942,0.0649667,0.0661561,-0.0510373,-0.815
 6874,-0.1153321,-0.3947342,-0.3091606,-1.1080146,-0.1978767,-0.2632606
 ,-0.0212341,-0.9263241,0.0219157,0.1478267,0.0704152,0.0765963,-0.2313
 564,-0.0416735,0.0068605,0.0819038,-0.0773897,0.0715898,0.0608781,-0.0
 28353,0.0339913,-0.0206597,0.0563139,-0.0225823,0.0365984,-0.0005457,-
 0.0170369,-0.0103073,0.0679198,-0.0624662,0.041071,0.0247968,0.0623981
 ,-0.0138045,0.0224977,-0.0321401,-0.0648345,-0.0723261,-0.0080097,0.03
 21683,-0.0298169,-0.046758,-0.0798062,0.0199269,0.1695611,-0.2249663,0
 .1510793,-0.028773,0.8267391,-0.3081805,0.0364832,-0.3944232,0.5485273
 \Polar=54.4641125,3.5419601,75.208069,5.49011,-4.8617435,60.6010036\Qu
 adrupole=0.0433952,4.0254782,-4.0688734,2.138209,-3.2707433,-2.2043531
 \PG=C01 [X(C4H8O3)]\NImag=1\\0.19803240,-0.03924964,0.13136760,0.33515
 593,-0.14268835,1.07628786,-0.14969430,0.03125412,-0.36052442,0.146186
 61,0.02427125,-0.06470337,0.08013330,-0.01343909,0.05056893,-0.3572390
 8,0.10784189,-1.04298926,0.38078726,-0.05279619,1.06638800,0.01038711,
 0.01337043,0.03666733,-0.00962524,-0.01161308,-0.02307848,0.28609487,0
 .03603913,-0.01845047,0.06781812,-0.01783406,0.00664466,-0.04592870,0.
 01323886,0.23477308,0.02375398,0.02759348,0.00881396,-0.01369852,-0.02
 396652,-0.02290903,-0.02416983,-0.20159513,0.34944338,-0.00909340,-0.0
 1305612,-0.00940404,0.00362784,0.00198121,0.00683478,-0.15932936,-0.05
 248740,0.07998241,0.54373548,-0.00922718,-0.01409227,0.00332434,0.0018
 8050,0.00176340,0.00331411,-0.04069689,-0.09217147,0.04515981,-0.03016
 327,0.57965004,0.01107575,0.01237870,0.02460452,-0.00623103,-0.0021507
 5,-0.01372761,0.04953475,0.04732246,-0.14883423,0.05030798,0.02321823,
 0.54810935,0.00104338,0.00267010,0.00298369,-0.00067200,-0.00035668,-0
 .00166944,-0.02611230,-0.00188453,0.00955794,-0.25362871,0.10371193,-0
 .02527852,0.28418161,-0.00008449,0.00111122,0.00148838,0.00002210,0.00
 001060,-0.00079406,-0.02180497,0.00676639,0.00232885,0.10938141,-0.109
 02727,0.01206445,-0.11044896,0.10792399,-0.00150541,-0.00164061,-0.002
 53860,0.00046483,0.00002158,0.00110503,0.02999604,-0.00323835,-0.00301
 247,-0.03156311,0.01359529,-0.05584032,0.01957598,-0.01664016,0.055595
 08,0.00170519,0.00196027,0.00564827,-0.00054516,0.00020917,-0.00247996
 ,-0.00758500,-0.03082319,0.00109148,-0.05015919,-0.00634787,-0.0047626
 9,0.00375949,0.02775179,0.00773624,0.05403867,0.00189944,0.00237311,0.
 00286249,-0.00040508,0.00014100,-0.00124213,-0.01078011,-0.01505037,0.
 00773198,-0.01047163,-0.30045356,-0.06555384,-0.00028746,-0.01171830,-
 0.00472238,0.02062027,0.32724053,-0.00213815,-0.00189039,-0.00543420,0
 .00101153,0.00011882,0.00316401,0.01005735,0.03008722,0.00187760,-0.00
 732168,-0.06999231,-0.06498475,-0.00065477,0.00487727,0.00187690,-0.00
 145849,0.06403912,0.06875349,0.00065596,0.00041486,0.00165372,-0.00028
 624,0.00096441,-0.00087008,0.00850688,-0.00427176,0.03120637,-0.086266
 66,-0.00877238,-0.09393735,-0.00765751,-0.00468979,-0.02616577,0.00012
 953,0.00083595,-0.00060074,0.08793465,-0.00045323,0.00049126,0.0017983
 5,0.00026807,0.00024880,-0.00097753,0.00366982,-0.00190171,0.02182168,
 -0.01013961,-0.05445992,-0.03252356,0.00557870,0.00233666,0.01462034,-
 0.01190156,-0.00164241,-0.02947390,0.01519497,0.05490420,-0.00232811,-
 0.00225767,-0.00412211,0.00097185,-0.00025330,0.00312346,0.00373002,0.
 01080977,-0.02708164,-0.08682962,-0.02721283,-0.27190617,-0.00167324,-
 0.00095034,-0.00032210,-0.00422498,-0.00156940,-0.00601107,0.08731706,
 0.02339646,0.30644405,-0.01665913,0.01394000,0.06712268,0.01409420,-0.
 00783192,0.00108516,-0.02043332,-0.01254040,-0.03793926,-0.00020479,-0
 .00067773,-0.00339587,-0.00078644,-0.00086649,0.00145243,-0.00138642,-
 0.00034104,0.00062712,0.00046534,0.00111853,-0.00052502,0.58426080,-0.
 01600535,-0.02223534,-0.01100042,0.00065288,0.00943765,-0.01258653,-0.
 00597333,-0.00569496,-0.00522807,-0.00072075,-0.00310071,-0.00121604,-
 0.00022341,-0.00018959,0.00044916,-0.00055182,0.00015401,0.00053779,0.
 00005948,0.00025314,-0.00032426,0.15742667,0.53619798,0.07424044,0.016
 33376,0.04203110,-0.01040879,-0.00861867,0.01227325,-0.03531617,-0.015
 17074,-0.03657035,-0.00044323,-0.00298620,-0.00589155,-0.00064506,-0.0
 0119096,0.00182485,-0.00191985,-0.00081464,0.00115273,0.00057013,0.001
 63104,-0.00052358,-0.10702670,0.17264914,0.27253862,0.01213270,-0.0015
 0524,-0.00554973,-0.00432943,0.00024666,0.00034343,0.00109606,0.001561
 17,0.00343451,-0.00023308,-0.00004059,0.00011665,0.00014042,0.00008515
 ,-0.00020746,0.00013343,0.00001879,-0.00004477,0.00003848,-0.00007409,
 0.00007500,-0.22915664,-0.01728959,0.09370752,0.26037293,-0.00619564,-
 0.00280165,0.02087350,0.00288208,-0.00142691,0.00160804,-0.00075439,-0
 .00392065,-0.00164023,0.00052306,0.00015229,-0.00052768,-0.00004443,-0
 .00000222,0.00000377,-0.00015080,-0.00012875,0.00012189,-0.00001484,0.
 00006011,0.00007889,-0.02910403,-0.05598431,0.00212235,0.03901065,0.06
 364509,0.01186112,0.00333337,-0.02156079,-0.00354112,0.00155268,-0.001
 12832,0.00180847,0.00322753,0.00261249,-0.00030277,0.00014905,0.000517
 51,0.00010700,0.00004882,-0.00017959,0.00019094,0.00011712,-0.00014462
 ,0.00002338,-0.00009842,-0.00000114,0.09730518,0.01220346,-0.09379631,
 -0.09626818,-0.00969562,0.10069286,-0.02665423,-0.00865946,-0.04966918
 ,-0.00179758,0.00539345,-0.00499858,0.01514591,0.01452206,0.00467870,-
 0.00325454,-0.00003459,-0.00003105,0.00092480,0.00082943,-0.00130515,0
 .00078391,0.00017630,-0.00022330,0.00045043,-0.00033671,-0.00043388,-0
 .22920250,-0.17140829,-0.07051372,-0.02809779,-0.02960333,-0.02098465,
 0.27844525,-0.02949523,-0.01849075,-0.05001912,0.00237535,0.00696506,0
 .00295287,0.04400361,-0.03421327,0.07898548,0.01058410,0.00515388,0.00
 014089,-0.00108592,0.00099169,-0.00150186,0.00041242,-0.00034440,-0.00
 019567,-0.00166957,-0.00175641,0.00230669,-0.12491656,-0.26221805,-0.0
 6465533,-0.02562209,-0.00209254,-0.01124365,0.17615543,0.29581933,-0.0
 4410073,-0.00646382,-0.04101081,0.00315479,0.00488244,-0.00881291,-0.0
 0705602,0.02468311,-0.01153317,-0.00323833,-0.00087787,0.00229239,0.00
 051150,-0.00044285,-0.00021403,0.00027841,0.00050913,-0.00033535,0.000
 23537,-0.00025601,-0.00029483,-0.09073528,-0.12740054,-0.13560644,-0.0
 0272442,0.00377212,0.01553470,0.16100754,0.12609463,0.19754539,-0.0047
 4900,0.00815273,0.00068379,0.00031616,-0.00058960,-0.00032369,0.001124
 93,-0.00019640,0.00182973,0.00044100,0.00028278,0.00001151,-0.00011432
 ,-0.00002986,-0.00008016,0.00001406,0.00006000,-0.00005120,-0.00004010
 ,-0.00004146,0.00008269,-0.11462638,0.04377042,0.02826584,-0.00937775,
 0.02269565,0.01135541,0.01625592,-0.02813757,-0.01358374,0.57699999,0.
 01589150,-0.01803103,0.00847379,-0.00174397,0.00028228,0.00058131,-0.0
 0143229,-0.00390486,0.00076205,0.00065482,-0.00015038,-0.00085094,-0.0
 0011005,-0.00002234,0.00000837,-0.00025061,-0.00014574,0.00017072,0.00
 002468,0.00004952,0.00014597,0.03554882,-0.14061561,-0.04825854,-0.002
 59368,0.00537786,0.00092675,0.00097979,-0.02795368,-0.01960867,0.04973
 768,0.49882023,-0.01802137,0.01255934,0.00474129,0.00296942,-0.0012725
 7,-0.00393051,0.00588244,0.00610957,0.00359111,-0.00076501,0.00060014,
 0.00188941,0.00025249,0.00018086,-0.00021740,0.00055924,0.00022613,-0.
 00037336,-0.00006702,-0.00020571,-0.00006284,0.03321404,-0.03741876,-0
 .09150249,0.00908979,-0.01581447,-0.00196395,-0.00405359,-0.03361429,-
 0.00534923,0.01348853,-0.02340455,0.56344926,-0.00158257,0.00136346,0.
 00075725,0.00028699,-0.00015729,-0.00034946,0.00078875,0.00123460,0.00
 039873,-0.00025477,0.00003781,0.00039683,0.00008905,0.00003972,-0.0000
 2539,0.00013127,0.00002933,-0.00007029,-0.00001266,-0.00001988,-0.0000
 3189,-0.00436252,0.00841971,-0.01055704,-0.00001501,-0.00075362,0.0002
 0021,-0.00000911,-0.00195809,0.00021299,-0.06672303,0.04622344,-0.0579
 0132,0.06939034,0.00374301,-0.00111107,-0.00236075,-0.00074203,0.00006
 511,0.00110907,-0.00133793,-0.00141303,-0.00056972,0.00024766,-0.00014
 990,-0.00054765,-0.00005691,-0.00001727,0.00005742,-0.00013661,-0.0000
 7226,0.00011747,0.00001109,0.00004804,0.00002781,0.00741087,-0.0190770
 2,0.02137887,-0.00036979,0.00116632,-0.00069296,-0.00055311,0.00345291
 ,-0.00225669,0.04576570,-0.14250623,0.12440727,-0.05253536,0.15427736,
 0.00184644,-0.00196651,-0.00026315,-0.00012831,0.00019709,0.00130849,-
 0.00067955,-0.00116039,0.00002622,0.00021397,-0.00010344,-0.00030940,-
 0.00006247,-0.00001740,0.00000307,-0.00010491,-0.00003683,0.00008765,0
 .00002074,-0.00000737,0.00003820,0.00230713,-0.00751935,0.00846055,-0.
 00045077,0.00102474,0.00039647,0.00048564,0.00100872,0.00007305,-0.057
 17695,0.12267798,-0.19933108,0.06269960,-0.13381667,0.21389844,0.00026
 722,-0.00027361,0.00074991,-0.00036172,0.00012938,-0.00047795,-0.00013
 053,0.00007397,-0.00022720,-0.00007524,-0.00003751,0.00006962,0.000046
 11,0.00007586,0.00002071,0.00002730,-0.00002819,-0.00001874,-0.0000217
 1,0.00003910,-0.00003111,-0.01459718,-0.00334148,0.00719096,-0.0001231
 3,0.00275431,0.00067069,0.00293670,-0.00021206,-0.00184793,-0.22562315
 ,-0.05471931,0.12085479,0.00861956,0.00219017,-0.00579199,0.24332132,-
 0.00061634,0.00085890,-0.00099853,0.00021835,-0.00003679,-0.00013680,0
 .00011292,0.00032034,0.00008540,0.00010677,-0.00001893,0.00007292,-0.0
 0010512,-0.00002682,-0.00000588,-0.00003653,0.00003136,0.00000171,-0.0
 0000487,-0.00001229,0.00000036,0.02806523,0.00644784,-0.01571517,0.002
 05358,-0.00462455,-0.00269374,-0.00240865,0.00190015,0.00304001,-0.057
 42841,-0.06281941,0.03672299,-0.01624509,-0.00446600,0.00929836,0.0566
 6831,0.06635173,-0.00116434,0.00010366,0.00045044,0.00045473,-0.000088
 82,-0.00014980,-0.00007123,-0.00042645,-0.00011067,0.00014568,-0.00001
 887,-0.00009015,-0.00001853,-0.00005735,0.00004334,-0.00004087,-0.0000
 1116,0.00001085,-0.00002494,0.00001195,-0.00000078,0.01105579,0.005926
 81,-0.00673633,0.00088772,-0.00237973,0.00052404,-0.00247389,0.0001447
 8,0.00070372,0.12004383,0.03495708,-0.12846934,0.01967076,0.00437262,-
 0.01237897,-0.13269118,-0.03893193,0.13433639,0.00049233,-0.00026427,-
 0.00042495,-0.00005753,0.00024741,0.00039731,-0.00006409,-0.00002218,-
 0.00004334,-0.00007617,0.00003578,-0.00001320,0.00001572,0.00001733,-0
 .00000241,0.00001700,-0.00000675,0.00000090,-0.00000020,-0.00001541,0.
 00000547,0.01102537,0.00600228,0.00809259,-0.00003458,-0.00105106,-0.0
 0034032,-0.00001712,0.00295743,0.00088358,-0.17254475,-0.08819382,-0.1
 0277331,-0.00592054,-0.00422887,-0.00342981,-0.01426362,-0.01046360,-0
 .01588626,0.18131597,-0.00039971,-0.00189422,-0.00031996,0.00028156,0.
 00002977,0.00135667,0.00060103,0.00026471,0.00106975,0.00007304,0.0001
 1315,0.00001058,0.00001370,0.00003125,-0.00003718,0.00004535,0.0000082
 2,-0.00001107,-0.00000662,-0.00003906,0.00005966,-0.02471996,-0.009281
 08,-0.01248610,0.00099050,0.00073189,0.00057399,0.00383718,-0.00696885
 ,-0.00380197,-0.08552558,-0.10867396,-0.07460493,0.01357365,0.01092861
 ,0.01066295,-0.00314657,-0.00396448,-0.00353838,0.09488601,0.11760390,
 0.00037044,-0.00018165,0.00050351,-0.00001774,0.00009909,0.00017562,0.
 00024005,-0.00047752,0.00084463,0.00022547,0.00006984,-0.00010339,-0.0
 0002826,-0.00000209,-0.00002345,-0.00002064,-0.00002100,0.00002298,-0.
 00002310,-0.00001549,0.00004547,-0.01109613,0.00042692,-0.00733454,0.0
 0070245,0.00022932,0.00001427,0.00126297,-0.00470702,0.00042216,-0.101
 22528,-0.07570214,-0.13493645,-0.01456339,-0.01272620,-0.01255248,0.01
 121733,0.00940160,0.01175060,0.11340322,0.08258939,0.14231057,-0.01628
 366,-0.01011763,-0.02585023,0.00285742,0.00054472,0.00203876,-0.099864
 66,0.05339011,-0.07985570,0.01477159,-0.00995079,0.02213661,-0.0012293
 0,-0.00027825,0.00160862,-0.00106407,-0.00131981,0.00088522,-0.0038962
 1,-0.00288724,0.00389576,0.02156960,-0.00081744,0.02476307,-0.00254661
 ,-0.00019362,-0.00208536,-0.02591004,-0.02339127,-0.00299774,-0.001353
 58,-0.00001699,-0.00272912,-0.00042575,0.00059211,0.00025126,-0.000021
 91,0.00008344,0.00011272,0.00011220,-0.00050359,-0.00044739,0.11328500
 ,0.01988248,0.02560807,0.02061485,-0.00567078,-0.00999020,-0.00430202,
 0.01939632,-0.07204840,0.04746121,-0.00651330,-0.01320834,0.00816220,0
 .00262905,0.00183200,-0.00096950,-0.00080029,-0.00039244,0.00149133,0.
 00192440,0.00142007,-0.00425783,-0.04251199,-0.03409394,-0.04421881,0.
 00352856,-0.00015199,0.00229160,0.01111048,0.03975491,-0.00187301,0.00
 148393,0.00029335,0.00552897,0.00074760,-0.00112557,-0.00024189,-0.000
 17238,0.00005895,-0.00006423,0.00009970,0.00111016,0.00101696,-0.00513
 377,0.06093337,-0.03180693,-0.02305521,-0.03951375,0.00473551,0.002141
 82,0.00610958,-0.04754518,0.07793949,-0.11715785,0.00215749,0.01176071
 ,-0.01572561,-0.00295829,-0.00089343,0.00189968,-0.00049218,-0.0015145
 8,0.00033715,0.00066223,0.00027814,0.00067509,0.03654872,0.01050068,0.
 03968047,-0.00311173,0.00022312,-0.00151762,-0.01274787,-0.04569714,-0
 .01341464,-0.00332032,-0.00087919,-0.00753442,-0.00083759,0.00150011,0
 .00054295,0.00031208,-0.00014130,0.00011668,0.00013054,-0.00152340,-0.
 00113949,0.05827351,-0.03063983,0.14664178\\-0.00000054,0.00000017,-0.
 00000039,0.00000036,-0.00000040,-0.00000066,-0.00000038,0.00000006,0.0
 0000071,-0.00000077,0.00000042,0.00000078,-0.00000048,0.00000076,0.000
 00081,-0.00000109,0.00000036,0.00000113,-0.00000043,0.00000063,0.00000
 069,0.00000075,-0.00000059,0.,0.,-0.00000091,-0.00000070,-0.00000026,-
 0.00000053,0.00000024,0.00000067,-0.00000003,-0.00000068,0.00000081,-0
 .00000017,-0.00000076,0.00000078,0.00000044,-0.00000046,0.00000106,-0.
 00000013,-0.00000095,-0.00000049,-0.00000009,0.00000026\\\@


 IT CANNOT BE MY BEAUTY, FOR I HAVE NONE; AND IT CANNOT BE MY WIT,
 FOR HE HAS NOT ENOUGH TO KNOW THAT I HAVE ANY.
 -- CATHARINE SEDLEY, PUZZLED ABOUT WHY SHE WAS MISTRESS TO JAMES II
 Job cpu time:       0 days  1 hours  5 minutes 42.9 seconds.
 Elapsed time:       0 days  0 hours  1 minutes 50.1 seconds.
 File lengths (MBytes):  RWF=     96 Int=      0 D2E=      0 Chk=      7 Scr=      1
 Normal termination of Gaussian 16 at Sun Dec 29 16:01:40 2019.
