 Entering Gaussian System, Link 0=g16
 Initial command:
 /nopt/nrel/apps/gaussian/g16B/g16/l1.exe "/dev/shm/Gau-344977.inp" -scrdir="/dev/shm/"
 Default is to use a total of  36 processors:
                               36 via shared-memory
                                1 via Linda
 Entering Link 1 = /nopt/nrel/apps/gaussian/g16B/g16/l1.exe PID=    344978.
  
 Copyright (c) 1988-2017, Gaussian, Inc.  All Rights Reserved.
  
 This is part of the Gaussian(R) 16 program.  It is based on
 the Gaussian(R) 09 system (copyright 2009, Gaussian, Inc.),
 the Gaussian(R) 03 system (copyright 2003, Gaussian, Inc.),
 the Gaussian(R) 98 system (copyright 1998, Gaussian, Inc.),
 the Gaussian(R) 94 system (copyright 1995, Gaussian, Inc.),
 the Gaussian 92(TM) system (copyright 1992, Gaussian, Inc.),
 the Gaussian 90(TM) system (copyright 1990, Gaussian, Inc.),
 the Gaussian 88(TM) system (copyright 1988, Gaussian, Inc.),
 the Gaussian 86(TM) system (copyright 1986, Carnegie Mellon
 University), and the Gaussian 82(TM) system (copyright 1983,
 Carnegie Mellon University). Gaussian is a federally registered
 trademark of Gaussian, Inc.
  
 This software contains proprietary and confidential information,
 including trade secrets, belonging to Gaussian, Inc.
  
 This software is provided under written license and may be
 used, copied, transmitted, or stored only in accord with that
 written license.
  
 The following legend is applicable only to US Government
 contracts under FAR:
  
                    RESTRICTED RIGHTS LEGEND
  
 Use, reproduction and disclosure by the US Government is
 subject to restrictions as set forth in subparagraphs (a)
 and (c) of the Commercial Computer Software - Restricted
 Rights clause in FAR 52.227-19.
  
 Gaussian, Inc.
 340 Quinnipiac St., Bldg. 40, Wallingford CT 06492
  
  
 ---------------------------------------------------------------
 Warning -- This program may not be used in any manner that
 competes with the business of Gaussian, Inc. or will provide
 assistance to any competitor of Gaussian, Inc.  The licensee
 of this program is prohibited from giving any competitor of
 Gaussian, Inc. access to this program.  By using this program,
 the user acknowledges that Gaussian, Inc. is engaged in the
 business of creating and licensing software in the field of
 computational chemistry and represents and warrants to the
 licensee that it is not a competitor of Gaussian, Inc. and that
 it will not use this program in any manner prohibited above.
 ---------------------------------------------------------------
  

 Cite this work as:
 Gaussian 16, Revision B.01,
 M. J. Frisch, G. W. Trucks, H. B. Schlegel, G. E. Scuseria, 
 M. A. Robb, J. R. Cheeseman, G. Scalmani, V. Barone, 
 G. A. Petersson, H. Nakatsuji, X. Li, M. Caricato, A. V. Marenich, 
 J. Bloino, B. G. Janesko, R. Gomperts, B. Mennucci, H. P. Hratchian, 
 J. V. Ortiz, A. F. Izmaylov, J. L. Sonnenberg, D. Williams-Young, 
 F. Ding, F. Lipparini, F. Egidi, J. Goings, B. Peng, A. Petrone, 
 T. Henderson, D. Ranasinghe, V. G. Zakrzewski, J. Gao, N. Rega, 
 G. Zheng, W. Liang, M. Hada, M. Ehara, K. Toyota, R. Fukuda, 
 J. Hasegawa, M. Ishida, T. Nakajima, Y. Honda, O. Kitao, H. Nakai, 
 T. Vreven, K. Throssell, J. A. Montgomery, Jr., J. E. Peralta, 
 F. Ogliaro, M. J. Bearpark, J. J. Heyd, E. N. Brothers, K. N. Kudin, 
 V. N. Staroverov, T. A. Keith, R. Kobayashi, J. Normand, 
 K. Raghavachari, A. P. Rendell, J. C. Burant, S. S. Iyengar, 
 J. Tomasi, M. Cossi, J. M. Millam, M. Klene, C. Adamo, R. Cammi, 
 J. W. Ochterski, R. L. Martin, K. Morokuma, O. Farkas, 
 J. B. Foresman, and D. J. Fox, Gaussian, Inc., Wallingford CT, 2016.
 
 ******************************************
 Gaussian 16:  ES64L-G16RevB.01 20-Dec-2017
                 9-Oct-2019 
 ******************************************
 %RWF=/dev/shm/,5GB,/tmp/scratch/1515143/,-1
 %NoSave
 %Chk=/dev/shm/methanol_gas.chk
 Default route: CacheSize=180224 MaxDisk=256GB
 ---------------------------------------------------------------
 # m062x/Def2TZVP nosymm scf=xqc opt freq=NoRaman CPHF=Grid=Fine
 ---------------------------------------------------------------
 1/4=180224,18=20,19=15,26=3,38=1/1,3;
 2/4=180224,9=110,12=2,15=1,17=6,18=5,40=1/2;
 3/4=180224,5=44,7=101,11=2,25=1,30=1,71=1,74=-55/1,2,3;
 4/4=180224/1;
 5/4=180224,5=2,8=3,13=1,38=5/2,8;
 6/4=180224,7=2,8=2,9=2,10=2,28=1/1;
 7/4=180224,30=1/1,2,3,16;
 1/4=180224,18=20,19=15,26=3/3(2);
 2/4=180224,9=110,15=1/2;
 99/4=180224/99;
 2/4=180224,9=110,15=1/2;
 3/4=180224,5=44,7=101,11=2,25=1,30=1,71=1,74=-55/1,2,3;
 4/4=180224,5=5,16=3,69=1/1;
 5/4=180224,5=2,8=3,13=1,38=5/2,8;
 7/4=180224,30=1/1,2,3,16;
 1/4=180224,18=20,19=15,26=3/3(-5);
 2/4=180224,9=110,15=1/2;
 6/4=180224,7=2,8=2,9=2,10=2,19=2,28=1/1;
 99/4=180224,9=1/99;
 ----------------------------------------------------------------------
 optimization of fragment 1 from fragment pair [1, 12] and complete/lme
 2meoxprpnt_tsa_ts_ircr_opt.log
 ----------------------------------------------------------------------
 Symbolic Z-matrix:
 Charge =  0 Multiplicity = 1
 O                     1.90855  -0.49742  -0.50859 
 H                     1.30297  -0.3302   -1.23711 
 C                     1.90273  -1.88683  -0.23715 
 H                     0.89749  -2.24361   0.00167 
 H                     2.30108  -2.46481  -1.07581 
 H                     2.55081  -2.04413   0.62402 
 

 GradGradGradGradGradGradGradGradGradGradGradGradGradGradGradGradGradGrad
 Berny optimization.
 Initialization pass.
                           ----------------------------
                           !    Initial Parameters    !
                           ! (Angstroms and Degrees)  !
 --------------------------                            --------------------------
 ! Name  Definition              Value          Derivative Info.                !
 --------------------------------------------------------------------------------
 ! R1    R(1,2)                  0.962          estimate D2E/DX2                !
 ! R2    R(1,3)                  1.4157         estimate D2E/DX2                !
 ! R3    R(3,4)                  1.0931         estimate D2E/DX2                !
 ! R4    R(3,5)                  1.0937         estimate D2E/DX2                !
 ! R5    R(3,6)                  1.0892         estimate D2E/DX2                !
 ! A1    A(2,1,3)              108.2532         estimate D2E/DX2                !
 ! A2    A(1,3,4)              111.4694         estimate D2E/DX2                !
 ! A3    A(1,3,5)              111.7242         estimate D2E/DX2                !
 ! A4    A(1,3,6)              106.9109         estimate D2E/DX2                !
 ! A5    A(4,3,5)              109.2699         estimate D2E/DX2                !
 ! A6    A(4,3,6)              109.1058         estimate D2E/DX2                !
 ! A7    A(5,3,6)              108.2551         estimate D2E/DX2                !
 ! D1    D(2,1,3,4)            -57.7685         estimate D2E/DX2                !
 ! D2    D(2,1,3,5)             64.809          estimate D2E/DX2                !
 ! D3    D(2,1,3,6)           -176.9244         estimate D2E/DX2                !
 --------------------------------------------------------------------------------
 Trust Radius=3.00D-01 FncErr=1.00D-07 GrdErr=1.00D-06 EigMax=2.50D+02 EigMin=1.00D-04
 Number of steps in this run=     25 maximum allowed number of steps=    100.
 GradGradGradGradGradGradGradGradGradGradGradGradGradGradGradGradGradGrad

                          Input orientation:                          
 ---------------------------------------------------------------------
 Center     Atomic      Atomic             Coordinates (Angstroms)
 Number     Number       Type             X           Y           Z
 ---------------------------------------------------------------------
      1          8           0        1.908546   -0.497422   -0.508592
      2          1           0        1.302972   -0.330203   -1.237110
      3          6           0        1.902727   -1.886834   -0.237150
      4          1           0        0.897494   -2.243605    0.001668
      5          1           0        2.301079   -2.464806   -1.075805
      6          1           0        2.550808   -2.044130    0.624015
 ---------------------------------------------------------------------
                    Distance matrix (angstroms):
                    1          2          3          4          5
     1  O    0.000000
     2  H    0.961988   0.000000
     3  C    1.415691   1.944923   0.000000
     4  H    2.081285   2.315187   1.093075   0.000000
     5  H    2.084805   2.361941   1.093654   1.783235   0.000000
     6  H    2.021783   2.821068   1.089200   1.777794   1.768819
                    6
     6  H    0.000000
 Symmetry turned off by external request.
 Stoichiometry    CH4O
 Framework group  C1[X(CH4O)]
 Deg. of freedom    12
 Full point group                 C1      NOp   1
 Rotational constants (GHZ):         128.0628161          24.9737828          24.0878398
 Standard basis: def2TZVP (5D, 7F)
    86 basis functions,   134 primitive gaussians,    96 cartesian basis functions
     9 alpha electrons        9 beta electrons
       nuclear repulsion energy        40.3905570958 Hartrees.
 NAtoms=    6 NActive=    6 NUniq=    6 SFac= 1.00D+00 NAtFMM=   60 NAOKFM=F Big=F
 Integral buffers will be    131072 words long.
 Raffenetti 2 integral format.
 Two-electron integral symmetry is turned off.
 One-electron integrals computed using PRISM.
   1 Symmetry operations used in ECPInt.
 ECPInt:  NShTT=     741 NPrTT=    2136 LenC2=     741 LenP2D=    1964.
 LDataN:  DoStor=T MaxTD1= 6 Len=  172
 NBasis=    86 RedAO= T EigKep=  1.64D-03  NBF=    86
 NBsUse=    86 1.00D-06 EigRej= -1.00D+00 NBFU=    86
 ExpMin= 9.52D-02 ExpMax= 2.70D+04 ExpMxC= 9.22D+02 IAcc=3 IRadAn=         5 AccDes= 0.00D+00
 Harris functional with IExCor= 1009 and IRadAn=       5 diagonalized for initial guess.
 HarFok:  IExCor= 1009 AccDes= 0.00D+00 IRadAn=         5 IDoV= 1 UseB2=F ITyADJ=14
 ICtDFT=  3500011 ScaDFX=  1.000000  1.000000  1.000000  1.000000
 FoFCou: FMM=F IPFlag=           0 FMFlag=      100000 FMFlg1=           0
         NFxFlg=           0 DoJE=T BraDBF=F KetDBF=T FulRan=T
         wScrn=  0.000000 ICntrl=       500 IOpCl=  0 I1Cent=   200000004 NGrid=           0
         NMat0=    1 NMatS0=      1 NMatT0=    0 NMatD0=    1 NMtDS0=    0 NMtDT0=    0
 Symmetry not used in FoFCou.
 Keep R1 ints in memory in canonical form, NReq=40233665.
 Requested convergence on RMS density matrix=1.00D-08 within  32 cycles.
 Requested convergence on MAX density matrix=1.00D-06.
 Requested convergence on             energy=1.00D-06.
 No special actions if energy rises.
 Integral accuracy reduced to 1.0D-05 until final iterations.
 Initial convergence to 1.0D-05 achieved.  Increase integral accuracy.
 SCF Done:  E(RM062X) =  -115.715149781     A.U. after   11 cycles
            NFock= 11  Conv=0.84D-08     -V/T= 2.0045
 QCSCF skips out because SCF is already converged.

 **********************************************************************

            Population analysis using the SCF Density.

 **********************************************************************

 Alpha  occ. eigenvalues --  -19.62094 -10.57571  -1.14105  -0.77480  -0.58440
 Alpha  occ. eigenvalues --   -0.51667  -0.49835  -0.40881  -0.35322
 Alpha virt. eigenvalues --    0.06215   0.10710   0.15217   0.15580   0.17277
 Alpha virt. eigenvalues --    0.24977   0.25757   0.35498   0.39621   0.44116
 Alpha virt. eigenvalues --    0.49189   0.49309   0.52351   0.55146   0.56352
 Alpha virt. eigenvalues --    0.62125   0.73431   0.78138   0.80925   0.93663
 Alpha virt. eigenvalues --    0.96349   1.06037   1.33619   1.45659   1.49783
 Alpha virt. eigenvalues --    1.55201   1.56696   1.57367   1.60842   1.64142
 Alpha virt. eigenvalues --    1.71922   1.89860   1.97095   1.98606   2.03754
 Alpha virt. eigenvalues --    2.04863   2.20736   2.27280   2.27779   2.30624
 Alpha virt. eigenvalues --    2.35066   2.42650   2.52358   2.56117   2.64407
 Alpha virt. eigenvalues --    2.75699   2.80531   2.81345   2.92180   3.03281
 Alpha virt. eigenvalues --    3.10585   3.21932   3.33266   3.35040   3.39847
 Alpha virt. eigenvalues --    3.52094   3.55063   3.56867   3.91880   4.12797
 Alpha virt. eigenvalues --    4.17398   4.35260   4.48053   5.26868   5.34642
 Alpha virt. eigenvalues --    5.46337   5.71994   5.72135   5.86494   6.25047
 Alpha virt. eigenvalues --    6.43724   6.63560   6.70154   6.92755   7.09766
 Alpha virt. eigenvalues --   22.40905  43.73555
          Condensed to atoms (all electrons):
               1          2          3          4          5          6
     1  O    8.069017   0.295039   0.241084  -0.044626  -0.045496  -0.037660
     2  H    0.295039   0.437982  -0.040810  -0.008702  -0.006862   0.010858
     3  C    0.241084  -0.040810   4.772976   0.420835   0.418198   0.395104
     4  H   -0.044626  -0.008702   0.420835   0.595919  -0.050685  -0.032223
     5  H   -0.045496  -0.006862   0.418198  -0.050685   0.600414  -0.034859
     6  H   -0.037660   0.010858   0.395104  -0.032223  -0.034859   0.565303
 Mulliken charges:
               1
     1  O   -0.477359
     2  H    0.312496
     3  C   -0.207387
     4  H    0.119482
     5  H    0.119290
     6  H    0.133477
 Sum of Mulliken charges =  -0.00000
 Mulliken charges with hydrogens summed into heavy atoms:
               1
     1  O   -0.164862
     3  C    0.164862
 Electronic spatial extent (au):  <R**2>=            419.6073
 Charge=             -0.0000 electrons
 Dipole moment (field-independent basis, Debye):
    X=             -0.9720    Y=             -1.1630    Z=             -0.8744  Tot=              1.7498
 Quadrupole moment (field-independent basis, Debye-Ang):
   XX=            -16.5312   YY=            -11.0667   ZZ=            -11.3743
   XY=             -2.1927   XZ=              0.0186   YZ=              0.1751
 Traceless Quadrupole moment (field-independent basis, Debye-Ang):
   XX=             -3.5405   YY=              1.9241   ZZ=              1.6164
   XY=             -2.1927   XZ=              0.0186   YZ=              0.1751
 Octapole moment (field-independent basis, Debye-Ang**2):
  XXX=            -83.9384  YYY=             49.3801  ZZZ=             11.9926  XYY=            -20.3692
  XXY=             12.9136  XXZ=              7.7987  XZZ=            -22.9442  YZZ=             16.8150
  YYZ=              4.6866  XYZ=             -0.0849
 Hexadecapole moment (field-independent basis, Debye-Ang**3):
 XXXX=           -327.0013 YYYY=           -196.0582 ZZZZ=            -29.9934 XXXY=             90.2234
 XXXZ=             38.3539 YYYX=             92.5243 YYYZ=            -14.2210 ZZZX=             24.5757
 ZZZY=            -13.8717 XXYY=            -73.3478 XXZZ=            -54.2352 YYZZ=            -37.9383
 XXYZ=             -6.3218 YYXZ=              8.3527 ZZXY=             31.2782
 N-N= 4.039055709583D+01 E-N=-3.523237294286D+02  KE= 1.152003076351D+02
   1 Symmetry operations used in ECPInt.
 ECPInt:  NShTT=     741 NPrTT=    2136 LenC2=     741 LenP2D=    1964.
 LDataN:  DoStor=T MaxTD1= 7 Len=  274
 Calling FoFJK, ICntrl=      2127 FMM=F ISym2X=0 I1Cent= 0 IOpClX= 0 NMat=1 NMatS=1 NMatT=0.
 -------------------------------------------------------------------
 Center     Atomic                   Forces (Hartrees/Bohr)
 Number     Number              X              Y              Z
 -------------------------------------------------------------------
      1        8          -0.001598513   -0.001138785   -0.001508391
      2        1           0.001740450    0.000404694    0.001460664
      3        6           0.000940033    0.002647374   -0.000536407
      4        1           0.000478416   -0.001260652    0.000808190
      5        1          -0.000408568   -0.000531954   -0.000063792
      6        1          -0.001151817   -0.000120678   -0.000160265
 -------------------------------------------------------------------
 Cartesian Forces:  Max     0.002647374 RMS     0.001152919

 GradGradGradGradGradGradGradGradGradGradGradGradGradGradGradGradGradGrad
 Berny optimization.
 FormGI is forming the generalized inverse of G from B-inverse, IUseBI=4.
 Internal  Forces:  Max     0.002129728 RMS     0.000999257
 Search for a local minimum.
 Step number   1 out of a maximum of   25
 All quantities printed in internal units (Hartrees-Bohrs-Radians)
 Mixed Optimization -- En-DIIS/RFO-DIIS
 Second derivative matrix not updated -- first step.
 The second derivative matrix:
                          R1        R2        R3        R4        R5
           R1           0.55048
           R2           0.00000   0.43116
           R3           0.00000   0.00000   0.34460
           R4           0.00000   0.00000   0.00000   0.34394
           R5           0.00000   0.00000   0.00000   0.00000   0.34905
           A1           0.00000   0.00000   0.00000   0.00000   0.00000
           A2           0.00000   0.00000   0.00000   0.00000   0.00000
           A3           0.00000   0.00000   0.00000   0.00000   0.00000
           A4           0.00000   0.00000   0.00000   0.00000   0.00000
           A5           0.00000   0.00000   0.00000   0.00000   0.00000
           A6           0.00000   0.00000   0.00000   0.00000   0.00000
           A7           0.00000   0.00000   0.00000   0.00000   0.00000
           D1           0.00000   0.00000   0.00000   0.00000   0.00000
           D2           0.00000   0.00000   0.00000   0.00000   0.00000
           D3           0.00000   0.00000   0.00000   0.00000   0.00000
                          A1        A2        A3        A4        A5
           A1           0.16000
           A2           0.00000   0.16000
           A3           0.00000   0.00000   0.16000
           A4           0.00000   0.00000   0.00000   0.16000
           A5           0.00000   0.00000   0.00000   0.00000   0.16000
           A6           0.00000   0.00000   0.00000   0.00000   0.00000
           A7           0.00000   0.00000   0.00000   0.00000   0.00000
           D1           0.00000   0.00000   0.00000   0.00000   0.00000
           D2           0.00000   0.00000   0.00000   0.00000   0.00000
           D3           0.00000   0.00000   0.00000   0.00000   0.00000
                          A6        A7        D1        D2        D3
           A6           0.16000
           A7           0.00000   0.16000
           D1           0.00000   0.00000   0.01484
           D2           0.00000   0.00000   0.00000   0.01484
           D3           0.00000   0.00000   0.00000   0.00000   0.01484
 ITU=  0
     Eigenvalues ---    0.01484   0.10021   0.10572   0.16000   0.16000
     Eigenvalues ---    0.16000   0.16000   0.34394   0.34460   0.34905
     Eigenvalues ---    0.43116   0.55048
 RFO step:  Lambda=-7.77756440D-05 EMin= 1.48422172D-02
 Linear search not attempted -- first point.
 Iteration  1 RMS(Cart)=  0.00859304 RMS(Int)=  0.00006843
 Iteration  2 RMS(Cart)=  0.00005488 RMS(Int)=  0.00001403
 Iteration  3 RMS(Cart)=  0.00000000 RMS(Int)=  0.00001403
 Variable       Old X    -DE/DX   Delta X   Delta X   Delta X     New X
                                 (Linear)    (Quad)   (Total)
    R1        1.81789  -0.00213   0.00000  -0.00387  -0.00387   1.81403
    R2        2.67527  -0.00071   0.00000  -0.00165  -0.00165   2.67362
    R3        2.06561   0.00015   0.00000   0.00043   0.00043   2.06604
    R4        2.06671   0.00018   0.00000   0.00053   0.00053   2.06723
    R5        2.05829  -0.00079   0.00000  -0.00227  -0.00227   2.05601
    A1        1.88937   0.00151   0.00000   0.00945   0.00945   1.89882
    A2        1.94551   0.00177   0.00000   0.01075   0.01074   1.95625
    A3        1.94995   0.00053   0.00000   0.00428   0.00425   1.95421
    A4        1.86595  -0.00005   0.00000  -0.00095  -0.00095   1.86500
    A5        1.90712  -0.00088   0.00000  -0.00436  -0.00439   1.90273
    A6        1.90426  -0.00152   0.00000  -0.01145  -0.01144   1.89281
    A7        1.88941   0.00007   0.00000   0.00112   0.00112   1.89053
    D1       -1.00825  -0.00063   0.00000  -0.01590  -0.01592  -1.02417
    D2        1.13113  -0.00011   0.00000  -0.01067  -0.01066   1.12048
    D3       -3.08791   0.00024   0.00000  -0.00750  -0.00750  -3.09541
         Item               Value     Threshold  Converged?
 Maximum Force            0.002130     0.000450     NO 
 RMS     Force            0.000999     0.000300     NO 
 Maximum Displacement     0.018879     0.001800     NO 
 RMS     Displacement     0.008602     0.001200     NO 
 Predicted change in Energy=-3.894358D-05
 GradGradGradGradGradGradGradGradGradGradGradGradGradGradGradGradGradGrad

                          Input orientation:                          
 ---------------------------------------------------------------------
 Center     Atomic      Atomic             Coordinates (Angstroms)
 Number     Number       Type             X           Y           Z
 ---------------------------------------------------------------------
      1          8           0        1.905475   -0.496946   -0.508511
      2          1           0        1.309310   -0.322333   -1.240348
      3          6           0        1.901266   -1.885763   -0.238554
      4          1           0        0.901610   -2.253595    0.007811
      5          1           0        2.298469   -2.466656   -1.076099
      6          1           0        2.547495   -2.041706    0.622726
 ---------------------------------------------------------------------
                    Distance matrix (angstroms):
                    1          2          3          4          5
     1  O    0.000000
     2  H    0.959941   0.000000
     3  C    1.414817   1.948926   0.000000
     4  H    2.088097   2.335357   1.093301   0.000000
     5  H    2.087190   2.367178   1.093932   1.780863   0.000000
     6  H    2.019449   2.821416   1.087996   1.769733   1.768786
                    6
     6  H    0.000000
 Symmetry turned off by external request.
 Stoichiometry    CH4O
 Framework group  C1[X(CH4O)]
 Deg. of freedom    12
 Full point group                 C1      NOp   1
 Rotational constants (GHZ):         128.7618360          24.9440840          24.0777786
 Standard basis: def2TZVP (5D, 7F)
    86 basis functions,   134 primitive gaussians,    96 cartesian basis functions
     9 alpha electrons        9 beta electrons
       nuclear repulsion energy        40.4022758129 Hartrees.
 NAtoms=    6 NActive=    6 NUniq=    6 SFac= 1.00D+00 NAtFMM=   60 NAOKFM=F Big=F
 Integral buffers will be    131072 words long.
 Raffenetti 2 integral format.
 Two-electron integral symmetry is turned off.
 One-electron integrals computed using PRISM.
   1 Symmetry operations used in ECPInt.
 ECPInt:  NShTT=     741 NPrTT=    2136 LenC2=     741 LenP2D=    1964.
 LDataN:  DoStor=T MaxTD1= 6 Len=  172
 NBasis=    86 RedAO= T EigKep=  1.64D-03  NBF=    86
 NBsUse=    86 1.00D-06 EigRej= -1.00D+00 NBFU=    86
 Initial guess from the checkpoint file:  "/dev/shm/methanol_gas.chk"
 B after Tr=    -0.005495   -0.002797   -0.000734
         Rot=    1.000000   -0.000186    0.000131   -0.000484 Ang=  -0.06 deg.
 Keep R1 ints in memory in canonical form, NReq=40233665.
 Requested convergence on RMS density matrix=1.00D-08 within  32 cycles.
 Requested convergence on MAX density matrix=1.00D-06.
 Requested convergence on             energy=1.00D-06.
 No special actions if energy rises.
 SCF Done:  E(RM062X) =  -115.715192888     A.U. after    9 cycles
            NFock=  9  Conv=0.28D-08     -V/T= 2.0044
 QCSCF skips out because SCF is already converged.
   1 Symmetry operations used in ECPInt.
 ECPInt:  NShTT=     741 NPrTT=    2136 LenC2=     741 LenP2D=    1964.
 LDataN:  DoStor=T MaxTD1= 7 Len=  274
 Calling FoFJK, ICntrl=      2127 FMM=F ISym2X=0 I1Cent= 0 IOpClX= 0 NMat=1 NMatS=1 NMatT=0.
 -------------------------------------------------------------------
 Center     Atomic                   Forces (Hartrees/Bohr)
 Number     Number              X              Y              Z
 -------------------------------------------------------------------
      1        8          -0.000416597   -0.001311432    0.000319245
      2        1           0.000258696   -0.000029944   -0.000050740
      3        6           0.000579765    0.001484202   -0.000482294
      4        1          -0.000187033   -0.000053564    0.000124414
      5        1          -0.000212415   -0.000020269   -0.000071655
      6        1          -0.000022416   -0.000068992    0.000161030
 -------------------------------------------------------------------
 Cartesian Forces:  Max     0.001484202 RMS     0.000525595

 GradGradGradGradGradGradGradGradGradGradGradGradGradGradGradGradGradGrad
 Berny optimization.
 Using GEDIIS/GDIIS optimizer.
 FormGI is forming the generalized inverse of G from B-inverse, IUseBI=4.
 Internal  Forces:  Max     0.001369546 RMS     0.000375154
 Search for a local minimum.
 Step number   2 out of a maximum of   25
 All quantities printed in internal units (Hartrees-Bohrs-Radians)
 Mixed Optimization -- En-DIIS/RFO-DIIS
 Swapping is turned off.
 Update second derivatives using D2CorX and points    1    2
 DE= -4.31D-05 DEPred=-3.89D-05 R= 1.11D+00
 TightC=F SS=  1.41D+00  RLast= 2.87D-02 DXNew= 5.0454D-01 8.5991D-02
 Trust test= 1.11D+00 RLast= 2.87D-02 DXMaxT set to 3.00D-01
 The second derivative matrix:
                          R1        R2        R3        R4        R5
           R1           0.55005
           R2          -0.03853   0.43088
           R3           0.00603   0.00070   0.34439
           R4          -0.00060   0.00349  -0.00054   0.34405
           R5           0.00480  -0.01600   0.00242  -0.00070   0.35311
           A1          -0.00117   0.02784  -0.00433   0.00057  -0.00408
           A2          -0.00707   0.03352  -0.00512   0.00120  -0.00727
           A3           0.00453   0.01088  -0.00178  -0.00023   0.00048
           A4           0.00117  -0.00314   0.00047  -0.00016   0.00089
           A5           0.00394  -0.01406   0.00213  -0.00059   0.00345
           A6          -0.00969  -0.03007   0.00487   0.00038  -0.00015
           A7           0.00672   0.00104  -0.00028  -0.00059   0.00266
           D1           0.00837  -0.00704   0.00096  -0.00088   0.00439
           D2          -0.00890   0.00005   0.00014   0.00081  -0.00371
           D3          -0.01000   0.00126  -0.00003   0.00093  -0.00432
                          A1        A2        A3        A4        A5
           A1           0.16192
           A2           0.00640   0.17264
           A3          -0.00285  -0.00184   0.15748
           A4          -0.00096  -0.00162   0.00003   0.16019
           A5          -0.00339  -0.00615   0.00050   0.00076   0.16294
           A6           0.00585   0.00264   0.00617   0.00015  -0.00035
           A7          -0.00481  -0.00565  -0.00201   0.00052   0.00234
           D1          -0.00632  -0.00866  -0.00155   0.00090   0.00381
           D2           0.00643   0.00776   0.00250  -0.00073  -0.00326
           D3           0.00727   0.00895   0.00267  -0.00086  -0.00379
                          A6        A7        D1        D2        D3
           A6           0.14515
           A7           0.00548   0.15964
           D1           0.00481   0.00101   0.01793
           D2          -0.00691   0.00022  -0.00165   0.01488
           D3          -0.00748   0.00004  -0.00212   0.00032   0.01552
 ITU=  1  0
     Eigenvalues ---    0.01309   0.09948   0.10182   0.15704   0.16000
     Eigenvalues ---    0.16000   0.16584   0.34328   0.34427   0.35099
     Eigenvalues ---    0.43291   0.56330
 En-DIIS/RFO-DIIS/Sim-DIIS IScMMF=       -3 using points:     2    1
 RFO step:  Lambda=-1.11971957D-05.
 DidBck=F Rises=F RFO-DIIS coefs:    1.56407   -0.56407
 Iteration  1 RMS(Cart)=  0.00355753 RMS(Int)=  0.00002217
 Iteration  2 RMS(Cart)=  0.00001756 RMS(Int)=  0.00000806
 Iteration  3 RMS(Cart)=  0.00000000 RMS(Int)=  0.00000806
 Variable       Old X    -DE/DX   Delta X   Delta X   Delta X     New X
                                 (Linear)    (Quad)   (Total)
    R1        1.81403  -0.00013  -0.00218   0.00142  -0.00076   1.81326
    R2        2.67362  -0.00137  -0.00093  -0.00285  -0.00378   2.66984
    R3        2.06604   0.00022   0.00024   0.00052   0.00076   2.06680
    R4        2.06723  -0.00001   0.00030  -0.00027   0.00003   2.06726
    R5        2.05601   0.00012  -0.00128   0.00139   0.00010   2.05612
    A1        1.89882   0.00004   0.00533  -0.00382   0.00151   1.90033
    A2        1.95625  -0.00011   0.00606  -0.00573   0.00032   1.95657
    A3        1.95421   0.00004   0.00240  -0.00143   0.00096   1.95517
    A4        1.86500   0.00014  -0.00053   0.00158   0.00104   1.86604
    A5        1.90273  -0.00008  -0.00248   0.00101  -0.00148   1.90124
    A6        1.89281  -0.00012  -0.00645   0.00387  -0.00258   1.89023
    A7        1.89053   0.00013   0.00063   0.00111   0.00174   1.89227
    D1       -1.02417  -0.00012  -0.00898  -0.00281  -0.01181  -1.03598
    D2        1.12048  -0.00027  -0.00601  -0.00680  -0.01280   1.10767
    D3       -3.09541  -0.00000  -0.00423  -0.00527  -0.00949  -3.10490
         Item               Value     Threshold  Converged?
 Maximum Force            0.001370     0.000450     NO 
 RMS     Force            0.000375     0.000300     NO 
 Maximum Displacement     0.007195     0.001800     NO 
 RMS     Displacement     0.003558     0.001200     NO 
 Predicted change in Energy=-5.600469D-06
 GradGradGradGradGradGradGradGradGradGradGradGradGradGradGradGradGradGrad

                          Input orientation:                          
 ---------------------------------------------------------------------
 Center     Atomic      Atomic             Coordinates (Angstroms)
 Number     Number       Type             X           Y           Z
 ---------------------------------------------------------------------
      1          8           0        1.902545   -0.497586   -0.506260
      2          1           0        1.313118   -0.323020   -1.243020
      3          6           0        1.901275   -1.884797   -0.238496
      4          1           0        0.902556   -2.255091    0.009758
      5          1           0        2.296496   -2.464893   -1.077551
      6          1           0        2.547636   -2.041614    0.622596
 ---------------------------------------------------------------------
                    Distance matrix (angstroms):
                    1          2          3          4          5
     1  O    0.000000
     2  H    0.959538   0.000000
     3  C    1.412817   1.947856   0.000000
     4  H    2.086882   2.338998   1.093704   0.000000
     5  H    2.086113   2.362633   1.093949   1.780261   0.000000
     6  H    2.018534   2.821014   1.088050   1.768454   1.769954
                    6
     6  H    0.000000
 Symmetry turned off by external request.
 Stoichiometry    CH4O
 Framework group  C1[X(CH4O)]
 Deg. of freedom    12
 Full point group                 C1      NOp   1
 Rotational constants (GHZ):         128.8398837          24.9945428          24.1256015
 Standard basis: def2TZVP (5D, 7F)
    86 basis functions,   134 primitive gaussians,    96 cartesian basis functions
     9 alpha electrons        9 beta electrons
       nuclear repulsion energy        40.4325853949 Hartrees.
 NAtoms=    6 NActive=    6 NUniq=    6 SFac= 1.00D+00 NAtFMM=   60 NAOKFM=F Big=F
 Integral buffers will be    131072 words long.
 Raffenetti 2 integral format.
 Two-electron integral symmetry is turned off.
 One-electron integrals computed using PRISM.
   1 Symmetry operations used in ECPInt.
 ECPInt:  NShTT=     741 NPrTT=    2136 LenC2=     741 LenP2D=    1964.
 LDataN:  DoStor=T MaxTD1= 6 Len=  172
 NBasis=    86 RedAO= T EigKep=  1.64D-03  NBF=    86
 NBsUse=    86 1.00D-06 EigRej= -1.00D+00 NBFU=    86
 Initial guess from the checkpoint file:  "/dev/shm/methanol_gas.chk"
 B after Tr=    -0.005520   -0.005199    0.002144
         Rot=    1.000000   -0.000411    0.000207   -0.000652 Ang=  -0.09 deg.
 Keep R1 ints in memory in canonical form, NReq=40233665.
 Requested convergence on RMS density matrix=1.00D-08 within  32 cycles.
 Requested convergence on MAX density matrix=1.00D-06.
 Requested convergence on             energy=1.00D-06.
 No special actions if energy rises.
 SCF Done:  E(RM062X) =  -115.715200251     A.U. after    8 cycles
            NFock=  8  Conv=0.59D-08     -V/T= 2.0044
 QCSCF skips out because SCF is already converged.
   1 Symmetry operations used in ECPInt.
 ECPInt:  NShTT=     741 NPrTT=    2136 LenC2=     741 LenP2D=    1964.
 LDataN:  DoStor=T MaxTD1= 7 Len=  274
 Calling FoFJK, ICntrl=      2127 FMM=F ISym2X=0 I1Cent= 0 IOpClX= 0 NMat=1 NMatS=1 NMatT=0.
 -------------------------------------------------------------------
 Center     Atomic                   Forces (Hartrees/Bohr)
 Number     Number              X              Y              Z
 -------------------------------------------------------------------
      1        8          -0.000032500   -0.000157298    0.000387209
      2        1          -0.000030520   -0.000003398   -0.000311149
      3        6           0.000043214    0.000244721   -0.000109703
      4        1          -0.000121495    0.000016325    0.000011235
      5        1          -0.000022220   -0.000040070    0.000012565
      6        1           0.000163521   -0.000060281    0.000009844
 -------------------------------------------------------------------
 Cartesian Forces:  Max     0.000387209 RMS     0.000148166

 GradGradGradGradGradGradGradGradGradGradGradGradGradGradGradGradGradGrad
 Berny optimization.
 Using GEDIIS/GDIIS optimizer.
 FormGI is forming the generalized inverse of G from B-inverse, IUseBI=4.
 Internal  Forces:  Max     0.000258977 RMS     0.000110162
 Search for a local minimum.
 Step number   3 out of a maximum of   25
 All quantities printed in internal units (Hartrees-Bohrs-Radians)
 Mixed Optimization -- En-DIIS/RFO-DIIS
 Swapping is turned off.
 Update second derivatives using D2CorX and points    1    2    3
 DE= -7.36D-06 DEPred=-5.60D-06 R= 1.31D+00
 TightC=F SS=  1.41D+00  RLast= 2.06D-02 DXNew= 5.0454D-01 6.1866D-02
 Trust test= 1.31D+00 RLast= 2.06D-02 DXMaxT set to 3.00D-01
 The second derivative matrix:
                          R1        R2        R3        R4        R5
           R1           0.58225
           R2           0.00535   0.44108
           R3           0.00484   0.01007   0.34199
           R4          -0.00059   0.00384  -0.00061   0.34405
           R5           0.01135  -0.00127   0.00089  -0.00074   0.35377
           A1          -0.01269   0.01551  -0.00466   0.00054  -0.00682
           A2          -0.01762   0.01430  -0.00367   0.00122  -0.00885
           A3           0.00441   0.01532  -0.00280  -0.00026  -0.00008
           A4           0.00129   0.00627  -0.00159  -0.00022  -0.00016
           A5           0.00737  -0.02026   0.00443  -0.00051   0.00542
           A6           0.00620  -0.01373   0.00546   0.00042   0.00370
           A7          -0.00167  -0.00261  -0.00169  -0.00065   0.00004
           D1           0.00933  -0.01760   0.00357  -0.00079   0.00597
           D2          -0.00098   0.00850   0.00036   0.00083  -0.00182
           D3          -0.02328  -0.02721   0.00277   0.00099  -0.00582
                          A1        A2        A3        A4        A5
           A1           0.16580
           A2           0.01049   0.17561
           A3          -0.00314  -0.00137   0.15705
           A4          -0.00164  -0.00077  -0.00083   0.15847
           A5          -0.00386  -0.00832   0.00151   0.00281   0.16089
           A6           0.00054  -0.00308   0.00661   0.00120   0.00016
           A7          -0.00234  -0.00214  -0.00270  -0.00097   0.00316
           D1          -0.00584  -0.01011  -0.00044   0.00313   0.00128
           D2           0.00375   0.00493   0.00268  -0.00027  -0.00292
           D3           0.01275   0.01231   0.00369   0.00103  -0.00750
                          A6        A7        D1        D2        D3
           A6           0.15241
           A7           0.00218   0.16061
           D1           0.00399   0.00262   0.01509
           D2          -0.00325  -0.00147  -0.00196   0.01671
           D3          -0.01516   0.00513  -0.00502  -0.00342   0.01881
 ITU=  1  1  0
     Eigenvalues ---    0.00748   0.10144   0.11045   0.15619   0.16000
     Eigenvalues ---    0.16075   0.18039   0.34132   0.34414   0.35421
     Eigenvalues ---    0.44779   0.58517
 En-DIIS/RFO-DIIS/Sim-DIIS IScMMF=       -3 using points:     3    2    1
 RFO step:  Lambda=-4.29153290D-06.
 DidBck=F Rises=F RFO-DIIS coefs:    2.05422   -1.04136   -0.01285
 Iteration  1 RMS(Cart)=  0.00383816 RMS(Int)=  0.00002605
 Iteration  2 RMS(Cart)=  0.00002231 RMS(Int)=  0.00000109
 Iteration  3 RMS(Cart)=  0.00000000 RMS(Int)=  0.00000109
 Variable       Old X    -DE/DX   Delta X   Delta X   Delta X     New X
                                 (Linear)    (Quad)   (Total)
    R1        1.81326   0.00026  -0.00085   0.00100   0.00015   1.81341
    R2        2.66984  -0.00017  -0.00401   0.00241  -0.00160   2.66824
    R3        2.06680   0.00011   0.00081  -0.00016   0.00065   2.06745
    R4        2.06726   0.00000   0.00004   0.00003   0.00007   2.06733
    R5        2.05612   0.00011   0.00008   0.00021   0.00029   2.05640
    A1        1.90033  -0.00006   0.00171  -0.00104   0.00067   1.90099
    A2        1.95657  -0.00009   0.00048  -0.00022   0.00026   1.95682
    A3        1.95517   0.00005   0.00106  -0.00015   0.00091   1.95608
    A4        1.86604   0.00005   0.00108  -0.00039   0.00069   1.86673
    A5        1.90124  -0.00001  -0.00162   0.00072  -0.00091   1.90034
    A6        1.89023   0.00007  -0.00287   0.00217  -0.00070   1.88953
    A7        1.89227  -0.00008   0.00185  -0.00213  -0.00029   1.89198
    D1       -1.03598  -0.00006  -0.01265  -0.00028  -0.01293  -1.04891
    D2        1.10767  -0.00010  -0.01363   0.00039  -0.01325   1.09442
    D3       -3.10490  -0.00014  -0.01010  -0.00255  -0.01265  -3.11756
         Item               Value     Threshold  Converged?
 Maximum Force            0.000259     0.000450     YES
 RMS     Force            0.000110     0.000300     YES
 Maximum Displacement     0.007650     0.001800     NO 
 RMS     Displacement     0.003838     0.001200     NO 
 Predicted change in Energy=-2.145573D-06
 GradGradGradGradGradGradGradGradGradGradGradGradGradGradGradGradGradGrad

                          Input orientation:                          
 ---------------------------------------------------------------------
 Center     Atomic      Atomic             Coordinates (Angstroms)
 Number     Number       Type             X           Y           Z
 ---------------------------------------------------------------------
      1          8           0        1.899250   -0.497384   -0.503595
      2          1           0        1.317166   -0.323451   -1.246418
      3          6           0        1.900737   -1.884160   -0.238062
      4          1           0        0.902890   -2.256816    0.011679
      5          1           0        2.294839   -2.463247   -1.078386
      6          1           0        2.548745   -2.041941    0.621807
 ---------------------------------------------------------------------
                    Distance matrix (angstroms):
                    1          2          3          4          5
     1  O    0.000000
     2  H    0.959615   0.000000
     3  C    1.411970   1.947601   0.000000
     4  H    2.086586   2.343572   1.094048   0.000000
     5  H    2.086024   2.358560   1.093985   1.779993   0.000000
     6  H    2.018423   2.821393   1.088202   1.768407   1.769921
                    6
     6  H    0.000000
 Symmetry turned off by external request.
 Stoichiometry    CH4O
 Framework group  C1[X(CH4O)]
 Deg. of freedom    12
 Full point group                 C1      NOp   1
 Rotational constants (GHZ):         128.8629219          25.0130241          24.1424813
 Standard basis: def2TZVP (5D, 7F)
    86 basis functions,   134 primitive gaussians,    96 cartesian basis functions
     9 alpha electrons        9 beta electrons
       nuclear repulsion energy        40.4422881964 Hartrees.
 NAtoms=    6 NActive=    6 NUniq=    6 SFac= 1.00D+00 NAtFMM=   60 NAOKFM=F Big=F
 Integral buffers will be    131072 words long.
 Raffenetti 2 integral format.
 Two-electron integral symmetry is turned off.
 One-electron integrals computed using PRISM.
   1 Symmetry operations used in ECPInt.
 ECPInt:  NShTT=     741 NPrTT=    2136 LenC2=     741 LenP2D=    1964.
 LDataN:  DoStor=T MaxTD1= 6 Len=  172
 NBasis=    86 RedAO= T EigKep=  1.64D-03  NBF=    86
 NBsUse=    86 1.00D-06 EigRej= -1.00D+00 NBFU=    86
 Initial guess from the checkpoint file:  "/dev/shm/methanol_gas.chk"
 B after Tr=    -0.006275   -0.005034    0.002593
         Rot=    1.000000   -0.000483    0.000263   -0.000677 Ang=  -0.10 deg.
 Keep R1 ints in memory in canonical form, NReq=40233665.
 Requested convergence on RMS density matrix=1.00D-08 within  32 cycles.
 Requested convergence on MAX density matrix=1.00D-06.
 Requested convergence on             energy=1.00D-06.
 No special actions if energy rises.
 SCF Done:  E(RM062X) =  -115.715203226     A.U. after    8 cycles
            NFock=  8  Conv=0.55D-08     -V/T= 2.0044
 QCSCF skips out because SCF is already converged.
   1 Symmetry operations used in ECPInt.
 ECPInt:  NShTT=     741 NPrTT=    2136 LenC2=     741 LenP2D=    1964.
 LDataN:  DoStor=T MaxTD1= 7 Len=  274
 Calling FoFJK, ICntrl=      2127 FMM=F ISym2X=0 I1Cent= 0 IOpClX= 0 NMat=1 NMatS=1 NMatT=0.
 -------------------------------------------------------------------
 Center     Atomic                   Forces (Hartrees/Bohr)
 Number     Number              X              Y              Z
 -------------------------------------------------------------------
      1        8           0.000022701    0.000325022    0.000204149
      2        1          -0.000027975   -0.000044022   -0.000203362
      3        6          -0.000169930   -0.000407120    0.000098226
      4        1           0.000002270    0.000102313   -0.000040713
      5        1           0.000036798    0.000014355    0.000006198
      6        1           0.000136136    0.000009452   -0.000064498
 -------------------------------------------------------------------
 Cartesian Forces:  Max     0.000407120 RMS     0.000155043

 GradGradGradGradGradGradGradGradGradGradGradGradGradGradGradGradGradGrad
 Berny optimization.
 Using GEDIIS/GDIIS optimizer.
 FormGI is forming the generalized inverse of G from B-inverse, IUseBI=4.
 Internal  Forces:  Max     0.000274667 RMS     0.000108517
 Search for a local minimum.
 Step number   4 out of a maximum of   25
 All quantities printed in internal units (Hartrees-Bohrs-Radians)
 Mixed Optimization -- En-DIIS/RFO-DIIS
 Swapping is turned off.
 Update second derivatives using D2CorX and points    1    2    3    4
 DE= -2.97D-06 DEPred=-2.15D-06 R= 1.39D+00
 TightC=F SS=  1.41D+00  RLast= 2.26D-02 DXNew= 5.0454D-01 6.7698D-02
 Trust test= 1.39D+00 RLast= 2.26D-02 DXMaxT set to 3.00D-01
 The second derivative matrix:
                          R1        R2        R3        R4        R5
           R1           0.56093
           R2           0.01626   0.56849
           R3          -0.00146  -0.01940   0.34887
           R4          -0.00000   0.00452  -0.00051   0.34406
           R5           0.00191  -0.01275   0.00202  -0.00061   0.35160
           A1          -0.00498  -0.00366   0.00253   0.00050  -0.00169
           A2          -0.00554   0.01099   0.00017   0.00106  -0.00394
           A3           0.00367   0.00395   0.00070  -0.00013   0.00092
           A4          -0.00363  -0.01111   0.00233  -0.00007   0.00001
           A5           0.00734  -0.00235  -0.00128  -0.00074   0.00341
           A6          -0.00238   0.01521  -0.00429   0.00046  -0.00291
           A7          -0.00003  -0.01717   0.00233  -0.00056   0.00234
           D1           0.01120  -0.01861   0.00363  -0.00083   0.00681
           D2          -0.00002   0.01582  -0.00029   0.00136  -0.00261
           D3          -0.01493  -0.03571   0.00542   0.00048  -0.00146
                          A1        A2        A3        A4        A5
           A1           0.16669
           A2           0.00743   0.16970
           A3          -0.00014  -0.00005   0.15904
           A4           0.00319   0.00252   0.00132   0.16048
           A5          -0.00803  -0.01001  -0.00160  -0.00058   0.16550
           A6          -0.00110   0.00015   0.00275  -0.00495   0.00530
           A7          -0.00116  -0.00206  -0.00124   0.00096   0.00171
           D1          -0.00739  -0.01109  -0.00096   0.00279   0.00269
           D2           0.00405   0.00746   0.00319  -0.00142  -0.00270
           D3           0.00880   0.00603   0.00334   0.00316  -0.00665
                          A6        A7        D1        D2        D3
           A6           0.15488
           A7           0.00125   0.15944
           D1           0.00643   0.00061   0.01404
           D2          -0.00136  -0.00566  -0.00524   0.01350
           D3          -0.01143   0.00534  -0.00471  -0.00438   0.01656
 ITU=  1  1  1  0
     Eigenvalues ---    0.00390   0.10132   0.11241   0.16000   0.16013
     Eigenvalues ---    0.16101   0.18366   0.34396   0.34713   0.35110
     Eigenvalues ---    0.55040   0.58713
 En-DIIS/RFO-DIIS/Sim-DIIS IScMMF=       -3 using points:     4    3    2    1
 RFO step:  Lambda=-2.56532650D-06.
 DidBck=F Rises=F RFO-DIIS coefs:    2.50252   -1.80881    0.24023    0.06606
 Iteration  1 RMS(Cart)=  0.00453809 RMS(Int)=  0.00003668
 Iteration  2 RMS(Cart)=  0.00003132 RMS(Int)=  0.00000119
 Iteration  3 RMS(Cart)=  0.00000000 RMS(Int)=  0.00000119
 Variable       Old X    -DE/DX   Delta X   Delta X   Delta X     New X
                                 (Linear)    (Quad)   (Total)
    R1        1.81341   0.00017   0.00071  -0.00043   0.00028   1.81368
    R2        2.66824   0.00027  -0.00114   0.00104  -0.00010   2.66813
    R3        2.06745  -0.00005   0.00072  -0.00064   0.00008   2.06753
    R4        2.06733   0.00000   0.00006  -0.00000   0.00005   2.06739
    R5        2.05640   0.00003   0.00055  -0.00040   0.00015   2.05655
    A1        1.90099  -0.00012  -0.00008  -0.00042  -0.00051   1.90049
    A2        1.95682  -0.00010  -0.00042   0.00004  -0.00038   1.95644
    A3        1.95608  -0.00002   0.00079  -0.00056   0.00023   1.95631
    A4        1.86673  -0.00003   0.00078  -0.00077   0.00001   1.86674
    A5        1.90034   0.00007  -0.00062   0.00068   0.00007   1.90041
    A6        1.88953   0.00014   0.00049   0.00035   0.00085   1.89037
    A7        1.89198  -0.00006  -0.00104   0.00027  -0.00077   1.89121
    D1       -1.04891  -0.00003  -0.01476  -0.00030  -0.01506  -1.06397
    D2        1.09442  -0.00003  -0.01528   0.00021  -0.01508   1.07934
    D3       -3.11756  -0.00013  -0.01561  -0.00027  -0.01588  -3.13344
         Item               Value     Threshold  Converged?
 Maximum Force            0.000275     0.000450     YES
 RMS     Force            0.000109     0.000300     YES
 Maximum Displacement     0.009003     0.001800     NO 
 RMS     Displacement     0.004539     0.001200     NO 
 Predicted change in Energy=-1.122699D-06
 GradGradGradGradGradGradGradGradGradGradGradGradGradGradGradGradGradGrad

                          Input orientation:                          
 ---------------------------------------------------------------------
 Center     Atomic      Atomic             Coordinates (Angstroms)
 Number     Number       Type             X           Y           Z
 ---------------------------------------------------------------------
      1          8           0        1.895412   -0.496758   -0.500298
      2          1           0        1.321930   -0.324521   -1.250360
      3          6           0        1.899781   -1.883952   -0.237279
      4          1           0        0.902870   -2.258389    0.013716
      5          1           0        2.293169   -2.461083   -1.079319
      6          1           0        2.550464   -2.042296    0.620565
 ---------------------------------------------------------------------
                    Distance matrix (angstroms):
                    1          2          3          4          5
     1  O    0.000000
     2  H    0.959760   0.000000
     3  C    1.411915   1.947324   0.000000
     4  H    2.086311   2.348051   1.094090   0.000000
     5  H    2.086156   2.353180   1.094014   1.780096   0.000000
     6  H    2.018443   2.821419   1.088282   1.769047   1.769517
                    6
     6  H    0.000000
 Symmetry turned off by external request.
 Stoichiometry    CH4O
 Framework group  C1[X(CH4O)]
 Deg. of freedom    12
 Full point group                 C1      NOp   1
 Rotational constants (GHZ):         128.8323563          25.0157704          24.1442736
 Standard basis: def2TZVP (5D, 7F)
    86 basis functions,   134 primitive gaussians,    96 cartesian basis functions
     9 alpha electrons        9 beta electrons
       nuclear repulsion energy        40.4422850170 Hartrees.
 NAtoms=    6 NActive=    6 NUniq=    6 SFac= 1.00D+00 NAtFMM=   60 NAOKFM=F Big=F
 Integral buffers will be    131072 words long.
 Raffenetti 2 integral format.
 Two-electron integral symmetry is turned off.
 One-electron integrals computed using PRISM.
   1 Symmetry operations used in ECPInt.
 ECPInt:  NShTT=     741 NPrTT=    2136 LenC2=     741 LenP2D=    1964.
 LDataN:  DoStor=T MaxTD1= 6 Len=  172
 NBasis=    86 RedAO= T EigKep=  1.64D-03  NBF=    86
 NBsUse=    86 1.00D-06 EigRej= -1.00D+00 NBFU=    86
 Initial guess from the checkpoint file:  "/dev/shm/methanol_gas.chk"
 B after Tr=    -0.007345   -0.005644    0.003293
         Rot=    0.999999   -0.000593    0.000328   -0.000753 Ang=  -0.12 deg.
 Keep R1 ints in memory in canonical form, NReq=40233665.
 Requested convergence on RMS density matrix=1.00D-08 within  32 cycles.
 Requested convergence on MAX density matrix=1.00D-06.
 Requested convergence on             energy=1.00D-06.
 No special actions if energy rises.
 SCF Done:  E(RM062X) =  -115.715205325     A.U. after    8 cycles
            NFock=  8  Conv=0.59D-08     -V/T= 2.0044
 QCSCF skips out because SCF is already converged.
   1 Symmetry operations used in ECPInt.
 ECPInt:  NShTT=     741 NPrTT=    2136 LenC2=     741 LenP2D=    1964.
 LDataN:  DoStor=T MaxTD1= 7 Len=  274
 Calling FoFJK, ICntrl=      2127 FMM=F ISym2X=0 I1Cent= 0 IOpClX= 0 NMat=1 NMatS=1 NMatT=0.
 -------------------------------------------------------------------
 Center     Atomic                   Forces (Hartrees/Bohr)
 Number     Number              X              Y              Z
 -------------------------------------------------------------------
      1        8          -0.000007371    0.000349504   -0.000008254
      2        1           0.000009222   -0.000012900   -0.000043031
      3        6          -0.000091383   -0.000467616    0.000115033
      4        1           0.000044307    0.000071489   -0.000022221
      5        1           0.000016630    0.000038341    0.000005815
      6        1           0.000028595    0.000021181   -0.000047342
 -------------------------------------------------------------------
 Cartesian Forces:  Max     0.000467616 RMS     0.000144815

 GradGradGradGradGradGradGradGradGradGradGradGradGradGradGradGradGradGrad
 Berny optimization.
 Using GEDIIS/GDIIS optimizer.
 FormGI is forming the generalized inverse of G from B-inverse, IUseBI=4.
 Internal  Forces:  Max     0.000339040 RMS     0.000094923
 Search for a local minimum.
 Step number   5 out of a maximum of   25
 All quantities printed in internal units (Hartrees-Bohrs-Radians)
 Mixed Optimization -- En-DIIS/RFO-DIIS
 Swapping is turned off.
 Update second derivatives using D2CorX and points    1    2    3    4    5
 DE= -2.10D-06 DEPred=-1.12D-06 R= 1.87D+00
 TightC=F SS=  1.41D+00  RLast= 2.66D-02 DXNew= 5.0454D-01 7.9829D-02
 Trust test= 1.87D+00 RLast= 2.66D-02 DXMaxT set to 3.00D-01
 The second derivative matrix:
                          R1        R2        R3        R4        R5
           R1           0.55650
           R2          -0.03805   0.58673
           R3           0.01075  -0.02712   0.35167
           R4           0.00044   0.00228   0.00009   0.34434
           R5           0.00660  -0.03432   0.00725  -0.00030   0.35582
           A1           0.00216   0.02876  -0.00408   0.00043  -0.00291
           A2          -0.00369   0.03893  -0.00578   0.00133  -0.00674
           A3           0.00904   0.00421   0.00125   0.00034   0.00269
           A4           0.00322  -0.01272   0.00329   0.00010   0.00269
           A5          -0.00075  -0.01359   0.00036  -0.00124   0.00196
           A6          -0.01509  -0.01805   0.00211   0.00039  -0.00361
           A7           0.00660  -0.00022  -0.00107  -0.00092   0.00293
           D1           0.01315  -0.01588   0.00311  -0.00126   0.00739
           D2          -0.00022   0.02936  -0.00295   0.00118  -0.00427
           D3          -0.01208  -0.01651   0.00104   0.00003  -0.00252
                          A1        A2        A3        A4        A5
           A1           0.16029
           A2           0.00447   0.17028
           A3          -0.00315  -0.00200   0.15927
           A4          -0.00066  -0.00102   0.00127   0.16074
           A5          -0.00272  -0.00705  -0.00094   0.00086   0.16287
           A6           0.00875   0.00601   0.00605  -0.00098  -0.00154
           A7          -0.00639  -0.00598  -0.00338  -0.00102   0.00602
           D1          -0.00868  -0.01306  -0.00163   0.00268   0.00410
           D2           0.00391   0.00818   0.00249  -0.00296  -0.00131
           D3           0.00533   0.00380   0.00111   0.00079  -0.00282
                          A6        A7        D1        D2        D3
           A6           0.14124
           A7           0.00838   0.15619
           D1           0.00798   0.00048   0.01446
           D2           0.00010  -0.00705  -0.00599   0.01328
           D3          -0.00598   0.00299  -0.00539  -0.00547   0.01474
 ITU=  1  1  1  1  0
     Eigenvalues ---    0.00288   0.10088   0.10502   0.15681   0.16003
     Eigenvalues ---    0.16221   0.16610   0.34429   0.34617   0.35309
     Eigenvalues ---    0.53484   0.62627
 En-DIIS/RFO-DIIS/Sim-DIIS IScMMF=       -3 using points:     5    4    3    2    1
 RFO step:  Lambda=-7.25625366D-07.
 DIIS inversion failure, remove point   5.
 DIIS inversion failure, remove point   4.
 RFO-DIIS uses    3 points instead of    5
 DidBck=F Rises=F RFO-DIIS coefs:    1.68291   -0.97364    0.29073    0.00000    0.00000
 Iteration  1 RMS(Cart)=  0.00200133 RMS(Int)=  0.00000710
 Iteration  2 RMS(Cart)=  0.00000603 RMS(Int)=  0.00000003
 Iteration  3 RMS(Cart)=  0.00000000 RMS(Int)=  0.00000003
 Variable       Old X    -DE/DX   Delta X   Delta X   Delta X     New X
                                 (Linear)    (Quad)   (Total)
    R1        1.81368   0.00003   0.00015  -0.00004   0.00010   1.81379
    R2        2.66813   0.00034   0.00039   0.00043   0.00083   2.66896
    R3        2.06753  -0.00007  -0.00013  -0.00008  -0.00022   2.06731
    R4        2.06739  -0.00002   0.00002  -0.00009  -0.00007   2.06731
    R5        2.05655  -0.00002   0.00002  -0.00005  -0.00003   2.05652
    A1        1.90049  -0.00003  -0.00054   0.00024  -0.00030   1.90018
    A2        1.95644  -0.00005  -0.00033  -0.00017  -0.00051   1.95594
    A3        1.95631  -0.00004  -0.00011  -0.00017  -0.00028   1.95603
    A4        1.86674  -0.00002  -0.00019   0.00006  -0.00013   1.86661
    A5        1.90041   0.00005   0.00031   0.00012   0.00044   1.90084
    A6        1.89037   0.00006   0.00078  -0.00007   0.00071   1.89109
    A7        1.89121  -0.00000  -0.00044   0.00024  -0.00020   1.89100
    D1       -1.06397  -0.00001  -0.00652  -0.00003  -0.00655  -1.07052
    D2        1.07934  -0.00000  -0.00644  -0.00012  -0.00656   1.07278
    D3       -3.13344  -0.00004  -0.00717   0.00012  -0.00705  -3.14049
         Item               Value     Threshold  Converged?
 Maximum Force            0.000339     0.000450     YES
 RMS     Force            0.000095     0.000300     YES
 Maximum Displacement     0.003895     0.001800     NO 
 RMS     Displacement     0.002001     0.001200     NO 
 Predicted change in Energy=-3.449172D-07
 GradGradGradGradGradGradGradGradGradGradGradGradGradGradGradGradGradGrad

                          Input orientation:                          
 ---------------------------------------------------------------------
 Center     Atomic      Atomic             Coordinates (Angstroms)
 Number     Number       Type             X           Y           Z
 ---------------------------------------------------------------------
      1          8           0        1.893683   -0.496331   -0.498923
      2          1           0        1.323991   -0.324946   -1.252130
      3          6           0        1.899345   -1.884142   -0.236834
      4          1           0        0.902827   -2.258983    0.014620
      5          1           0        2.292508   -2.460081   -1.079743
      6          1           0        2.551272   -2.042517    0.620036
 ---------------------------------------------------------------------
                    Distance matrix (angstroms):
                    1          2          3          4          5
     1  O    0.000000
     2  H    0.959814   0.000000
     3  C    1.412353   1.947549   0.000000
     4  H    2.086256   2.350007   1.093976   0.000000
     5  H    2.086319   2.350860   1.093974   1.780248   0.000000
     6  H    2.018708   2.821573   1.088264   1.769395   1.769341
                    6
     6  H    0.000000
 Symmetry turned off by external request.
 Stoichiometry    CH4O
 Framework group  C1[X(CH4O)]
 Deg. of freedom    12
 Full point group                 C1      NOp   1
 Rotational constants (GHZ):         128.8105392          25.0058276          24.1348592
 Standard basis: def2TZVP (5D, 7F)
    86 basis functions,   134 primitive gaussians,    96 cartesian basis functions
     9 alpha electrons        9 beta electrons
       nuclear repulsion energy        40.4363171092 Hartrees.
 NAtoms=    6 NActive=    6 NUniq=    6 SFac= 1.00D+00 NAtFMM=   60 NAOKFM=F Big=F
 Integral buffers will be    131072 words long.
 Raffenetti 2 integral format.
 Two-electron integral symmetry is turned off.
 One-electron integrals computed using PRISM.
   1 Symmetry operations used in ECPInt.
 ECPInt:  NShTT=     741 NPrTT=    2136 LenC2=     741 LenP2D=    1964.
 LDataN:  DoStor=T MaxTD1= 6 Len=  172
 NBasis=    86 RedAO= T EigKep=  1.64D-03  NBF=    86
 NBsUse=    86 1.00D-06 EigRej= -1.00D+00 NBFU=    86
 Initial guess from the checkpoint file:  "/dev/shm/methanol_gas.chk"
 B after Tr=    -0.003292   -0.002528    0.001388
         Rot=    1.000000   -0.000247    0.000144   -0.000336 Ang=  -0.05 deg.
 Keep R1 ints in memory in canonical form, NReq=40233665.
 Requested convergence on RMS density matrix=1.00D-08 within  32 cycles.
 Requested convergence on MAX density matrix=1.00D-06.
 Requested convergence on             energy=1.00D-06.
 No special actions if energy rises.
 SCF Done:  E(RM062X) =  -115.715205794     A.U. after    7 cycles
            NFock=  7  Conv=0.63D-08     -V/T= 2.0044
 QCSCF skips out because SCF is already converged.
   1 Symmetry operations used in ECPInt.
 ECPInt:  NShTT=     741 NPrTT=    2136 LenC2=     741 LenP2D=    1964.
 LDataN:  DoStor=T MaxTD1= 7 Len=  274
 Calling FoFJK, ICntrl=      2127 FMM=F ISym2X=0 I1Cent= 0 IOpClX= 0 NMat=1 NMatS=1 NMatT=0.
 -------------------------------------------------------------------
 Center     Atomic                   Forces (Hartrees/Bohr)
 Number     Number              X              Y              Z
 -------------------------------------------------------------------
      1        8           0.000005084    0.000109815   -0.000021515
      2        1           0.000014869   -0.000011177    0.000018057
      3        6          -0.000022509   -0.000146658    0.000013254
      4        1           0.000017668    0.000009806    0.000002159
      5        1          -0.000001462    0.000017070    0.000003238
      6        1          -0.000013650    0.000021145   -0.000015194
 -------------------------------------------------------------------
 Cartesian Forces:  Max     0.000146658 RMS     0.000045334

 GradGradGradGradGradGradGradGradGradGradGradGradGradGradGradGradGradGrad
 Berny optimization.
 Using GEDIIS/GDIIS optimizer.
 FormGI is forming the generalized inverse of G from B-inverse, IUseBI=4.
 Internal  Forces:  Max     0.000096264 RMS     0.000029230
 Search for a local minimum.
 Step number   6 out of a maximum of   25
 All quantities printed in internal units (Hartrees-Bohrs-Radians)
 Mixed Optimization -- En-DIIS/RFO-DIIS
 Swapping is turned off.
 Update second derivatives using D2CorX and points    1    2    3    4    5
                                                      6
 DE= -4.69D-07 DEPred=-3.45D-07 R= 1.36D+00
 Trust test= 1.36D+00 RLast= 1.17D-02 DXMaxT set to 3.00D-01
 The second derivative matrix:
                          R1        R2        R3        R4        R5
           R1           0.57724
           R2          -0.04275   0.43047
           R3           0.01374   0.00648   0.34481
           R4           0.00089   0.00976  -0.00147   0.34401
           R5           0.01538  -0.01899   0.00471  -0.00089   0.35766
           A1          -0.00635   0.04465  -0.00817  -0.00009  -0.00790
           A2          -0.01590   0.04947  -0.00894   0.00052  -0.01276
           A3           0.00863   0.02044  -0.00215  -0.00034   0.00074
           A4           0.00715   0.00632  -0.00048  -0.00044   0.00228
           A5           0.00243  -0.03746   0.00562  -0.00023   0.00588
           A6          -0.00534  -0.04305   0.00820   0.00156   0.00307
           A7           0.00286   0.00214  -0.00189  -0.00099   0.00098
           D1           0.01612  -0.01544   0.00338  -0.00155   0.00848
           D2          -0.00100   0.02378  -0.00147   0.00131  -0.00419
           D3          -0.01800  -0.00565  -0.00187  -0.00112  -0.00603
                          A1        A2        A3        A4        A5
           A1           0.16409
           A2           0.00914   0.17678
           A3          -0.00396  -0.00225   0.15786
           A4          -0.00299  -0.00399  -0.00062   0.15967
           A5          -0.00258  -0.00833   0.00101   0.00414   0.16045
           A6           0.00621   0.00075   0.00785   0.00360  -0.00293
           A7          -0.00568  -0.00295  -0.00354  -0.00279   0.00589
           D1          -0.01050  -0.01527  -0.00187   0.00281   0.00478
           D2           0.00412   0.00951   0.00331  -0.00313  -0.00256
           D3           0.00629   0.00557   0.00008  -0.00164  -0.00217
                          A6        A7        D1        D2        D3
           A6           0.14301
           A7           0.00708   0.15635
           D1           0.00952   0.00069   0.01469
           D2          -0.00143  -0.00631  -0.00580   0.01432
           D3          -0.00745   0.00551  -0.00680  -0.00471   0.01443
 ITU=  0  1  1  1  1  0
     Eigenvalues ---    0.00291   0.10024   0.10311   0.14529   0.16033
     Eigenvalues ---    0.16183   0.16813   0.34110   0.34482   0.35583
     Eigenvalues ---    0.44854   0.59554
 En-DIIS/RFO-DIIS/Sim-DIIS IScMMF=       -3 using points:     6    5    4    3    2    1
 RFO step:  Lambda=-4.74900469D-08.
 DIIS inversion failure, remove point   6.
 DIIS inversion failure, remove point   5.
 DIIS inversion failure, remove point   4.
 DIIS inversion failure, remove point   3.
 RFO-DIIS uses    2 points instead of    6
 DidBck=F Rises=F RFO-DIIS coefs:    1.06807   -0.06807    0.00000    0.00000    0.00000
                  RFO-DIIS coefs:    0.00000
 Iteration  1 RMS(Cart)=  0.00016298 RMS(Int)=  0.00000004
 Iteration  2 RMS(Cart)=  0.00000003 RMS(Int)=  0.00000001
 Variable       Old X    -DE/DX   Delta X   Delta X   Delta X     New X
                                 (Linear)    (Quad)   (Total)
    R1        1.81379  -0.00002   0.00001  -0.00002  -0.00002   1.81377
    R2        2.66896   0.00010   0.00006   0.00022   0.00028   2.66924
    R3        2.06731  -0.00002  -0.00001  -0.00006  -0.00007   2.06724
    R4        2.06731  -0.00001  -0.00001  -0.00004  -0.00005   2.06726
    R5        2.05652  -0.00002  -0.00000  -0.00005  -0.00006   2.05646
    A1        1.90018  -0.00002  -0.00002  -0.00017  -0.00019   1.89999
    A2        1.95594   0.00001  -0.00003  -0.00000  -0.00004   1.95590
    A3        1.95603  -0.00001  -0.00002  -0.00008  -0.00010   1.95593
    A4        1.86661  -0.00003  -0.00001  -0.00022  -0.00023   1.86637
    A5        1.90084   0.00001   0.00003   0.00015   0.00018   1.90102
    A6        1.89109   0.00001   0.00005   0.00007   0.00012   1.89121
    A7        1.89100   0.00001  -0.00001   0.00009   0.00007   1.89107
    D1       -1.07052  -0.00001  -0.00045  -0.00004  -0.00049  -1.07101
    D2        1.07278   0.00001  -0.00045   0.00009  -0.00036   1.07243
    D3       -3.14049  -0.00000  -0.00048   0.00001  -0.00047  -3.14096
         Item               Value     Threshold  Converged?
 Maximum Force            0.000096     0.000450     YES
 RMS     Force            0.000029     0.000300     YES
 Maximum Displacement     0.000311     0.001800     YES
 RMS     Displacement     0.000163     0.001200     YES
 Predicted change in Energy=-2.374499D-08
 Optimization completed.
    -- Stationary point found.
                           ----------------------------
                           !   Optimized Parameters   !
                           ! (Angstroms and Degrees)  !
 --------------------------                            --------------------------
 ! Name  Definition              Value          Derivative Info.                !
 --------------------------------------------------------------------------------
 ! R1    R(1,2)                  0.9598         -DE/DX =    0.0                 !
 ! R2    R(1,3)                  1.4124         -DE/DX =    0.0001              !
 ! R3    R(3,4)                  1.094          -DE/DX =    0.0                 !
 ! R4    R(3,5)                  1.094          -DE/DX =    0.0                 !
 ! R5    R(3,6)                  1.0883         -DE/DX =    0.0                 !
 ! A1    A(2,1,3)              108.8724         -DE/DX =    0.0                 !
 ! A2    A(1,3,4)              112.0669         -DE/DX =    0.0                 !
 ! A3    A(1,3,5)              112.0723         -DE/DX =    0.0                 !
 ! A4    A(1,3,6)              106.9487         -DE/DX =    0.0                 !
 ! A5    A(4,3,5)              108.9103         -DE/DX =    0.0                 !
 ! A6    A(4,3,6)              108.3512         -DE/DX =    0.0                 !
 ! A7    A(5,3,6)              108.3465         -DE/DX =    0.0                 !
 ! D1    D(2,1,3,4)            -61.3365         -DE/DX =    0.0                 !
 ! D2    D(2,1,3,5)             61.4659         -DE/DX =    0.0                 !
 ! D3    D(2,1,3,6)           -179.9367         -DE/DX =    0.0                 !
 --------------------------------------------------------------------------------
 GradGradGradGradGradGradGradGradGradGradGradGradGradGradGradGradGradGrad

                          Input orientation:                          
 ---------------------------------------------------------------------
 Center     Atomic      Atomic             Coordinates (Angstroms)
 Number     Number       Type             X           Y           Z
 ---------------------------------------------------------------------
      1          8           0        1.893683   -0.496331   -0.498923
      2          1           0        1.323991   -0.324946   -1.252130
      3          6           0        1.899345   -1.884142   -0.236834
      4          1           0        0.902827   -2.258983    0.014620
      5          1           0        2.292508   -2.460081   -1.079743
      6          1           0        2.551272   -2.042517    0.620036
 ---------------------------------------------------------------------
                    Distance matrix (angstroms):
                    1          2          3          4          5
     1  O    0.000000
     2  H    0.959814   0.000000
     3  C    1.412353   1.947549   0.000000
     4  H    2.086256   2.350007   1.093976   0.000000
     5  H    2.086319   2.350860   1.093974   1.780248   0.000000
     6  H    2.018708   2.821573   1.088264   1.769395   1.769341
                    6
     6  H    0.000000
 Symmetry turned off by external request.
 Stoichiometry    CH4O
 Framework group  C1[X(CH4O)]
 Deg. of freedom    12
 Full point group                 C1      NOp   1
 Rotational constants (GHZ):         128.8105392          25.0058276          24.1348592

 **********************************************************************

            Population analysis using the SCF Density.

 **********************************************************************

 Alpha  occ. eigenvalues --  -19.62102 -10.57548  -1.14231  -0.77542  -0.58567
 Alpha  occ. eigenvalues --   -0.51638  -0.49915  -0.40814  -0.35328
 Alpha virt. eigenvalues --    0.06259   0.10683   0.15256   0.15614   0.17348
 Alpha virt. eigenvalues --    0.24965   0.25814   0.35638   0.39761   0.44097
 Alpha virt. eigenvalues --    0.49148   0.49337   0.52410   0.55199   0.56365
 Alpha virt. eigenvalues --    0.62131   0.73347   0.78367   0.80946   0.93766
 Alpha virt. eigenvalues --    0.96257   1.06120   1.33819   1.45972   1.49959
 Alpha virt. eigenvalues --    1.55270   1.56451   1.57586   1.60691   1.64007
 Alpha virt. eigenvalues --    1.71833   1.89724   1.97097   1.98751   2.03624
 Alpha virt. eigenvalues --    2.04894   2.20765   2.27548   2.27886   2.30699
 Alpha virt. eigenvalues --    2.35389   2.42623   2.52430   2.56122   2.64645
 Alpha virt. eigenvalues --    2.76175   2.80880   2.81035   2.92306   3.03249
 Alpha virt. eigenvalues --    3.10614   3.21692   3.32668   3.35715   3.40324
 Alpha virt. eigenvalues --    3.52099   3.55225   3.57314   3.92037   4.12884
 Alpha virt. eigenvalues --    4.17722   4.34725   4.48150   5.26814   5.34407
 Alpha virt. eigenvalues --    5.46692   5.72638   5.72944   5.86850   6.25955
 Alpha virt. eigenvalues --    6.43661   6.63345   6.70209   6.92825   7.10044
 Alpha virt. eigenvalues --   22.41760  43.73645
          Condensed to atoms (all electrons):
               1          2          3          4          5          6
     1  O    8.066577   0.295691   0.242601  -0.044971  -0.044987  -0.037857
     2  H    0.295691   0.437129  -0.040736  -0.007744  -0.007708   0.010875
     3  C    0.242601  -0.040736   4.770948   0.419427   0.419381   0.395366
     4  H   -0.044971  -0.007744   0.419427   0.599564  -0.051295  -0.034008
     5  H   -0.044987  -0.007708   0.419381  -0.051295   0.599631  -0.034046
     6  H   -0.037857   0.010875   0.395366  -0.034008  -0.034046   0.566173
 Mulliken charges:
               1
     1  O   -0.477054
     2  H    0.312493
     3  C   -0.206987
     4  H    0.119027
     5  H    0.119024
     6  H    0.133498
 Sum of Mulliken charges =  -0.00000
 Mulliken charges with hydrogens summed into heavy atoms:
               1
     1  O   -0.164562
     3  C    0.164562
 Electronic spatial extent (au):  <R**2>=            417.3388
 Charge=             -0.0000 electrons
 Dipole moment (field-independent basis, Debye):
    X=             -0.9019    Y=             -1.1498    Z=             -0.9312  Tot=              1.7328
 Quadrupole moment (field-independent basis, Debye-Ang):
   XX=            -16.3631   YY=            -11.0713   ZZ=            -11.2380
   XY=             -2.1824   XZ=             -0.1498   YZ=              0.1706
 Traceless Quadrupole moment (field-independent basis, Debye-Ang):
   XX=             -3.4723   YY=              1.8195   ZZ=              1.6528
   XY=             -2.1824   XZ=             -0.1498   YZ=              0.1706
 Octapole moment (field-independent basis, Debye-Ang**2):
  XXX=            -83.3765  YYY=             49.3059  ZZZ=             11.6008  XYY=            -20.3179
  XXY=             12.9814  XXZ=              7.3702  XZZ=            -22.5603  YZZ=             16.7677
  YYZ=              4.6598  XYZ=             -0.0577
 Hexadecapole moment (field-independent basis, Debye-Ang**3):
 XXXX=           -324.4743 YYYY=           -195.7044 ZZZZ=            -29.3799 XXXY=             90.2548
 XXXZ=             37.1757 YYYX=             92.2243 YYYZ=            -14.1401 ZZZX=             23.7213
 ZZZY=            -13.6584 XXYY=            -73.2208 XXZZ=            -53.2649 YYZZ=            -37.8557
 XXYZ=             -6.2117 YYXZ=              8.2445 ZZXY=             31.0961
 N-N= 4.043631710925D+01 E-N=-3.524155637194D+02  KE= 1.152071103730D+02
 1\1\GINC-R7I0N15\FOpt\RM062X\def2TZVP\C1H4O1\HMAYES\09-Oct-2019\0\\# m
 062x/Def2TZVP nosymm scf=xqc opt freq=NoRaman CPHF=Grid=Fine\\optimiza
 tion of fragment 1 from fragment pair [1, 12] and complete/lme2meoxprp
 nt_tsa_ts_ircr_opt.log\\0,1\O,1.8936827967,-0.4963310259,-0.4989229086
 \H,1.3239914563,-0.3249464481,-1.2521304344\C,1.8993447427,-1.88414174
 22,-0.2368336995\H,0.9028267926,-2.2589826103,0.0146196035\H,2.2925081
 853,-2.4600814074,-1.0797425909\H,2.5512720265,-2.042516766,0.62003603
 \\Version=ES64L-G16RevB.01\HF=-115.7152058\RMSD=6.293e-09\RMSF=4.533e-
 05\Dipole=-0.3548309,-0.4523834,-0.3663475\Quadrupole=-2.5815794,1.352
 7488,1.2288305,-1.6225469,-0.1113917,0.1268365\PG=C01 [X(C1H4O1)]\\@


 I think that all right-thinking people in this
 country are sick and tired of being told that
 ordinary, decent people are fed up in this country
 with being sick and tired.  I'm certainly not!
 But I'm sick and tired of being told that I am!
                               -- Monty Python
 Job cpu time:       0 days  0 hours  7 minutes 12.3 seconds.
 Elapsed time:       0 days  0 hours  0 minutes 14.6 seconds.
 File lengths (MBytes):  RWF=      6 Int=      0 D2E=      0 Chk=      2 Scr=      1
 Normal termination of Gaussian 16 at Wed Oct  9 21:32:11 2019.
 Link1:  Proceeding to internal job step number  2.
 --------------------------------------------------------------------
 #N Geom=AllCheck Guess=TCheck SCRF=Check GenChk RM062X/def2TZVP Freq
 --------------------------------------------------------------------
 1/4=180224,10=4,29=7,30=1,38=1,40=1/1,3;
 2/4=180224,12=2,15=1,40=1/2;
 3/4=180224,5=44,7=101,11=2,14=-4,25=1,30=1,70=2,71=2,74=-55,116=1,140=1/1,2,3;
 4/4=180224,5=101/1;
 5/4=180224,5=2,8=3,13=1,38=6,98=1/2,8;
 8/4=180224,6=4,10=90,11=11/1;
 11/4=180224,6=1,8=1,9=11,15=111,16=1,31=1/1,2,10;
 10/4=180224,6=1,31=1,60=4/2;
 6/4=180224,7=2,8=2,9=2,10=2,28=1/1;
 7/4=180224,8=1,10=1,25=1,30=1/1,2,3,16;
 1/4=180224,10=4,30=1/3;
 99/4=180224/99;
 Structure from the checkpoint file:  "/dev/shm/methanol_gas.chk"
 ----------------------------------------------------------------------
 optimization of fragment 1 from fragment pair [1, 12] and complete/lme
 2meoxprpnt_tsa_ts_ircr_opt.log
 ----------------------------------------------------------------------
 Charge =  0 Multiplicity = 1
 Redundant internal coordinates found in file.  (old form).
 O,0,1.8936827967,-0.4963310259,-0.4989229086
 H,0,1.3239914563,-0.3249464481,-1.2521304344
 C,0,1.8993447427,-1.8841417422,-0.2368336995
 H,0,0.9028267926,-2.2589826103,0.0146196035
 H,0,2.2925081853,-2.4600814074,-1.0797425909
 H,0,2.5512720265,-2.042516766,0.62003603
 Recover connectivity data from disk.

 GradGradGradGradGradGradGradGradGradGradGradGradGradGradGradGradGradGrad
 Berny optimization.
 Initialization pass.
                           ----------------------------
                           !    Initial Parameters    !
                           ! (Angstroms and Degrees)  !
 --------------------------                            --------------------------
 ! Name  Definition              Value          Derivative Info.                !
 --------------------------------------------------------------------------------
 ! R1    R(1,2)                  0.9598         calculate D2E/DX2 analytically  !
 ! R2    R(1,3)                  1.4124         calculate D2E/DX2 analytically  !
 ! R3    R(3,4)                  1.094          calculate D2E/DX2 analytically  !
 ! R4    R(3,5)                  1.094          calculate D2E/DX2 analytically  !
 ! R5    R(3,6)                  1.0883         calculate D2E/DX2 analytically  !
 ! A1    A(2,1,3)              108.8724         calculate D2E/DX2 analytically  !
 ! A2    A(1,3,4)              112.0669         calculate D2E/DX2 analytically  !
 ! A3    A(1,3,5)              112.0723         calculate D2E/DX2 analytically  !
 ! A4    A(1,3,6)              106.9487         calculate D2E/DX2 analytically  !
 ! A5    A(4,3,5)              108.9103         calculate D2E/DX2 analytically  !
 ! A6    A(4,3,6)              108.3512         calculate D2E/DX2 analytically  !
 ! A7    A(5,3,6)              108.3465         calculate D2E/DX2 analytically  !
 ! D1    D(2,1,3,4)            -61.3365         calculate D2E/DX2 analytically  !
 ! D2    D(2,1,3,5)             61.4659         calculate D2E/DX2 analytically  !
 ! D3    D(2,1,3,6)           -179.9367         calculate D2E/DX2 analytically  !
 --------------------------------------------------------------------------------
 Trust Radius=3.00D-01 FncErr=1.00D-07 GrdErr=1.00D-07 EigMax=2.50D+02 EigMin=1.00D-04
 Number of steps in this run=      2 maximum allowed number of steps=      2.
 GradGradGradGradGradGradGradGradGradGradGradGradGradGradGradGradGradGrad

                          Input orientation:                          
 ---------------------------------------------------------------------
 Center     Atomic      Atomic             Coordinates (Angstroms)
 Number     Number       Type             X           Y           Z
 ---------------------------------------------------------------------
      1          8           0        1.893683   -0.496331   -0.498923
      2          1           0        1.323991   -0.324946   -1.252130
      3          6           0        1.899345   -1.884142   -0.236834
      4          1           0        0.902827   -2.258983    0.014620
      5          1           0        2.292508   -2.460081   -1.079743
      6          1           0        2.551272   -2.042517    0.620036
 ---------------------------------------------------------------------
                    Distance matrix (angstroms):
                    1          2          3          4          5
     1  O    0.000000
     2  H    0.959814   0.000000
     3  C    1.412353   1.947549   0.000000
     4  H    2.086256   2.350007   1.093976   0.000000
     5  H    2.086319   2.350860   1.093974   1.780248   0.000000
     6  H    2.018708   2.821573   1.088264   1.769395   1.769341
                    6
     6  H    0.000000
 Symmetry turned off by external request.
 Stoichiometry    CH4O
 Framework group  C1[X(CH4O)]
 Deg. of freedom    12
 Full point group                 C1      NOp   1
 Rotational constants (GHZ):         128.8105392          25.0058276          24.1348592
 Standard basis: def2TZVP (5D, 7F)
    86 basis functions,   134 primitive gaussians,    96 cartesian basis functions
     9 alpha electrons        9 beta electrons
       nuclear repulsion energy        40.4363171092 Hartrees.
[...]
 Red. masses --      1.2717                 1.2957                 1.1481
 Frc consts  --      1.0493                 1.4392                 1.5003
 IR Inten    --      0.5730                26.8438                 4.0101
  Atom  AN      X      Y      Z        X      Y      Z        X      Y      Z
     1   8    -0.05   0.01   0.04    -0.05  -0.04  -0.06     0.00  -0.01   0.00
     2   1    -0.01   0.00   0.01     0.13   0.78   0.02     0.00  -0.02   0.01
     3   6     0.11  -0.02  -0.08     0.08  -0.00   0.10     0.01  -0.11   0.03
     4   1    -0.11   0.66   0.04    -0.05   0.11  -0.25    -0.24   0.44  -0.21
     5   1    -0.18  -0.62   0.19    -0.21   0.13  -0.12    -0.07   0.41  -0.33
     6   1    -0.22   0.03   0.17     0.00  -0.43   0.08     0.14   0.63   0.05
                      7                      8                      9
                      A                      A                      A
 Frequencies --   1507.7875              1519.9104              3034.8877
 Red. masses --      1.0456                 1.0432                 1.0352
 Frc consts  --      1.4005                 1.4198                 5.6179
 IR Inten    --      2.7839                 4.2580                50.2842
  Atom  AN      X      Y      Z        X      Y      Z        X      Y      Z
     1   8    -0.01   0.00   0.01    -0.01  -0.01  -0.01     0.00  -0.00   0.00
     2   1    -0.01  -0.00   0.01     0.01   0.10  -0.00     0.00  -0.00   0.00
     3   6    -0.04   0.01   0.04    -0.03  -0.04  -0.03    -0.02  -0.05  -0.01
     4   1    -0.20   0.19  -0.41    -0.04   0.43   0.51     0.62   0.22  -0.16
     5   1     0.28  -0.24   0.32     0.59   0.32   0.04    -0.25   0.33   0.51
     6   1     0.56  -0.08  -0.44    -0.04  -0.30  -0.04    -0.19   0.04  -0.25
                     10                     11                     12
                      A                      A                      A
 Frequencies --   3088.8252              3149.1412              3892.7941
 Red. masses --      1.1055                 1.0992                 1.0666
 Frc consts  --      6.2143                 6.4229                 9.5230
 IR Inten    --     49.7952                22.4297                40.3717
  Atom  AN      X      Y      Z        X      Y      Z        X      Y      Z
     1   8     0.00  -0.00  -0.00     0.00   0.00   0.00    -0.04   0.01  -0.05
     2   1     0.00  -0.00  -0.00    -0.01  -0.01  -0.01     0.59  -0.19   0.78
     3   6    -0.07   0.01   0.06    -0.06  -0.00  -0.07    -0.00  -0.00  -0.00
     4   1     0.64   0.23  -0.14     0.19   0.06  -0.06     0.00  -0.00   0.00
     5   1     0.24  -0.36  -0.56    -0.09   0.11   0.16     0.00  -0.00   0.00
     6   1    -0.01   0.00   0.02     0.57  -0.13   0.75     0.01  -0.00   0.01

 -------------------
 - Thermochemistry -
 -------------------
 Temperature   298.150 Kelvin.  Pressure   1.00000 Atm.
 Atom     1 has atomic number  8 and mass  15.99491
 Atom     2 has atomic number  1 and mass   1.00783
 Atom     3 has atomic number  6 and mass  12.00000
 Atom     4 has atomic number  1 and mass   1.00783
 Atom     5 has atomic number  1 and mass   1.00783
 Atom     6 has atomic number  1 and mass   1.00783
 Molecular mass:    32.02621 amu.
 Principal axes and moments of inertia in atomic units:
                           1         2         3
     Eigenvalues --    14.01082  72.17282  74.77737
           X           -0.03852   0.62481   0.77982
           Y            0.97301   0.20113  -0.11309
           Z           -0.22751   0.75442  -0.61570
 This molecule is an asymmetric top.
 Rotational symmetry number  1.
 Rotational temperatures (Kelvin)      6.18193     1.20009     1.15829
 Rotational constants (GHZ):         128.81054    25.00583    24.13486
 Zero-point vibrational energy     136072.6 (Joules/Mol)
                                   32.52213 (Kcal/Mol)
 Warning -- explicit consideration of   1 degrees of freedom as
           vibrations may cause significant error
 Vibrational temperatures:    460.66  1542.70  1608.75  1702.68  1975.47
          (Kelvin)           2142.67  2169.37  2186.81  4366.53  4444.13
                             4530.91  5600.86
 
 Zero-point correction=                           0.051827 (Hartree/Particle)
 Thermal correction to Energy=                    0.055147
 Thermal correction to Enthalpy=                  0.056091
 Thermal correction to Gibbs Free Energy=         0.029092
 Sum of electronic and zero-point Energies=           -115.663378
 Sum of electronic and thermal Energies=              -115.660059
 Sum of electronic and thermal Enthalpies=            -115.659115
 Sum of electronic and thermal Free Energies=         -115.686114
 
                     E (Thermal)             CV                S
                      KCal/Mol        Cal/Mol-Kelvin    Cal/Mol-Kelvin
 Total                   34.605              8.719             56.824
 Electronic               0.000              0.000              0.000
 Translational            0.889              2.981             36.324
 Rotational               0.889              2.981             18.964
 Vibrational             32.828              2.757              1.536
 Vibration     1          0.706              1.635              1.309
                       Q            Log10(Q)             Ln(Q)
 Total Bot       0.415462D-13        -13.381469        -30.811970
 Total V=0       0.286695D+11         10.457420         24.079100
 Vib (Bot)       0.187357D-23        -23.727330        -54.634197
 Vib (Bot)    1  0.587060D+00         -0.231317         -0.532628
 Vib (V=0)       0.129288D+01          0.111559          0.256873
 Vib (V=0)    1  0.127113D+01          0.104190          0.239905
 Electronic      0.100000D+01          0.000000          0.000000
 Translational   0.712381D+07          6.852712         15.778953
 Rotational      0.311279D+04          3.493149          8.043274
 -------------------------------------------------------------------
 Center     Atomic                   Forces (Hartrees/Bohr)
 Number     Number              X              Y              Z
 -------------------------------------------------------------------
      1        8           0.000005078    0.000109786   -0.000021512
      2        1           0.000014873   -0.000011172    0.000018059
      3        6          -0.000022488   -0.000146653    0.000013253
      4        1           0.000017674    0.000009811    0.000002154
      5        1          -0.000001469    0.000017080    0.000003257
      6        1          -0.000013667    0.000021149   -0.000015211
 -------------------------------------------------------------------
 Cartesian Forces:  Max     0.000146653 RMS     0.000045329
 FormGI is forming the generalized inverse of G from B-inverse, IUseBI=4.

 GradGradGradGradGradGradGradGradGradGradGradGradGradGradGradGradGradGrad
 Berny optimization.
 Internal  Forces:  Max     0.000096239 RMS     0.000029226
 Search for a local minimum.
 Step number   1 out of a maximum of    2
 All quantities printed in internal units (Hartrees-Bohrs-Radians)
 Second derivative matrix not updated -- analytic derivatives used.
 The second derivative matrix:
                          R1        R2        R3        R4        R5
           R1           0.54423
           R2          -0.00129   0.37932
           R3          -0.00022   0.01646   0.33345
           R4          -0.00021   0.01647   0.00413   0.33379
           R5          -0.00214   0.01128   0.00333   0.00334   0.34893
           A1           0.01666   0.04905   0.00046   0.00043   0.00306
           A2          -0.00341   0.02665  -0.00071  -0.00498  -0.00489
           A3          -0.00339   0.02666  -0.00500  -0.00089  -0.00488
           A4           0.00614   0.02954  -0.00474  -0.00472   0.00288
           A5           0.00122  -0.02853   0.00804   0.00807  -0.00462
           A6          -0.00016  -0.02855   0.00776  -0.00537   0.00623
           A7          -0.00015  -0.02855  -0.00538   0.00786   0.00627
           D1           0.00177  -0.00113   0.00029  -0.00656   0.00665
           D2          -0.00170   0.00112   0.00658  -0.00034  -0.00667
           D3           0.00004  -0.00000  -0.00580   0.00578   0.00002
                          A1        A2        A3        A4        A5
           A1           0.17784
           A2          -0.00513   0.13842
           A3          -0.00510  -0.03426   0.13850
           A4           0.02012  -0.03045  -0.03046   0.13946
           A5           0.00114  -0.04032  -0.04035  -0.00065   0.07318
           A6          -0.00546  -0.03624  -0.00113  -0.03870   0.00442
           A7          -0.00548  -0.00113  -0.03627  -0.03870   0.00438
           D1           0.00306  -0.00376  -0.02086   0.02306  -0.01794
           D2          -0.00306   0.02087   0.00377  -0.02308   0.01797
           D3           0.00000  -0.01909   0.01911  -0.00001  -0.00002
                          A6        A7        D1        D2        D3
           A6           0.07148
           A7           0.00382   0.07156
           D1           0.02178   0.00024   0.02787
           D2          -0.00022  -0.02183  -0.01395   0.02793
           D3          -0.02051   0.02053  -0.01103  -0.01105   0.02483
 ITU=  0
     Eigenvalues ---    0.00284   0.08874   0.08901   0.13323   0.15515
     Eigenvalues ---    0.18633   0.19997   0.33077   0.33473   0.34878
     Eigenvalues ---    0.41600   0.54524
 Angle between quadratic step and forces=  45.35 degrees.
 Linear search not attempted -- first point.
 Iteration  1 RMS(Cart)=  0.00012383 RMS(Int)=  0.00000002
 Iteration  2 RMS(Cart)=  0.00000002 RMS(Int)=  0.00000001
 Variable       Old X    -DE/DX   Delta X   Delta X   Delta X     New X
                                 (Linear)    (Quad)   (Total)
    R1        1.81379  -0.00002   0.00000  -0.00004  -0.00004   1.81375
    R2        2.66896   0.00010   0.00000   0.00034   0.00034   2.66930
    R3        2.06731  -0.00002   0.00000  -0.00008  -0.00008   2.06723
    R4        2.06731  -0.00001   0.00000  -0.00007  -0.00007   2.06725
    R5        2.05652  -0.00002   0.00000  -0.00007  -0.00007   2.05645
    A1        1.90018  -0.00002   0.00000  -0.00015  -0.00015   1.90003
    A2        1.95594   0.00001   0.00000  -0.00004  -0.00004   1.95590
    A3        1.95603  -0.00001   0.00000  -0.00013  -0.00013   1.95590
    A4        1.86661  -0.00003   0.00000  -0.00023  -0.00023   1.86637
    A5        1.90084   0.00001   0.00000   0.00019   0.00019   1.90104
    A6        1.89109   0.00001   0.00000   0.00007   0.00007   1.89116
    A7        1.89100   0.00001   0.00000   0.00014   0.00014   1.89114
    D1       -1.07052  -0.00001   0.00000  -0.00032  -0.00032  -1.07084
    D2        1.07278   0.00001   0.00000  -0.00019  -0.00019   1.07259
    D3       -3.14049  -0.00000   0.00000  -0.00023  -0.00023  -3.14072
         Item               Value     Threshold  Converged?
 Maximum Force            0.000096     0.000450     YES
 RMS     Force            0.000029     0.000300     YES
 Maximum Displacement     0.000227     0.001800     YES
 RMS     Displacement     0.000124     0.001200     YES
 Predicted change in Energy=-2.764820D-08
 Optimization completed.
    -- Stationary point found.
                           ----------------------------
                           !   Optimized Parameters   !
                           ! (Angstroms and Degrees)  !
 --------------------------                            --------------------------
 ! Name  Definition              Value          Derivative Info.                !
 --------------------------------------------------------------------------------
 ! R1    R(1,2)                  0.9598         -DE/DX =    0.0                 !
 ! R2    R(1,3)                  1.4124         -DE/DX =    0.0001              !
 ! R3    R(3,4)                  1.094          -DE/DX =    0.0                 !
 ! R4    R(3,5)                  1.094          -DE/DX =    0.0                 !
 ! R5    R(3,6)                  1.0883         -DE/DX =    0.0                 !
 ! A1    A(2,1,3)              108.8724         -DE/DX =    0.0                 !
 ! A2    A(1,3,4)              112.0669         -DE/DX =    0.0                 !
 ! A3    A(1,3,5)              112.0723         -DE/DX =    0.0                 !
 ! A4    A(1,3,6)              106.9487         -DE/DX =    0.0                 !
 ! A5    A(4,3,5)              108.9103         -DE/DX =    0.0                 !
 ! A6    A(4,3,6)              108.3512         -DE/DX =    0.0                 !
 ! A7    A(5,3,6)              108.3465         -DE/DX =    0.0                 !
 ! D1    D(2,1,3,4)            -61.3365         -DE/DX =    0.0                 !
 ! D2    D(2,1,3,5)             61.4659         -DE/DX =    0.0                 !
 ! D3    D(2,1,3,6)           -179.9367         -DE/DX =    0.0                 !
 --------------------------------------------------------------------------------
 GradGradGradGradGradGradGradGradGradGradGradGradGradGradGradGradGradGrad


 ----------------------------------------------------------------------

 Electric dipole moment (input orientation):
 (Debye = 10**-18 statcoulomb cm , SI units = C m)
                  (au)            (Debye)         (10**-30 SI)
   Tot        0.681738D+00      0.173280D+01      0.578001D+01
   x         -0.354831D+00     -0.901890D+00     -0.300838D+01
   y         -0.452383D+00     -0.114984D+01     -0.383547D+01
   z         -0.366347D+00     -0.931162D+00     -0.310602D+01

 Dipole polarizability, Alpha (input orientation).
 (esu units = cm**3 , SI units = C**2 m**2 J**-1)
 Alpha(0;0):
               (au)            (10**-24 esu)      (10**-40 SI)
   iso        0.183275D+02      0.271586D+01      0.302180D+01
   aniso      0.267803D+01      0.396843D+00      0.441548D+00
   xx         0.175306D+02      0.259777D+01      0.289041D+01
   yx        -0.382034D+00     -0.566116D-01     -0.629890D-01
   yy         0.193452D+02      0.286666D+01      0.318959D+01
   zx         0.740717D+00      0.109763D+00      0.122128D+00
   zy        -0.914481D+00     -0.135512D+00     -0.150778D+00
   zz         0.181067D+02      0.268314D+01      0.298540D+01

 ----------------------------------------------------------------------

 Dipole orientation:
     8          3.64940200          0.84758820         -0.73352381
     1          3.43061125         -0.56987555          0.37676612
     6          3.98960818          3.05007348          0.73503643
     1          2.35010246          3.44779651          1.92986911
     1          5.67522285          2.93664026          1.92651151
     1          4.22893730          4.61489580         -0.57771925

 Electric dipole moment (dipole orientation):
 (Debye = 10**-18 statcoulomb cm , SI units = C m)
                  (au)            (Debye)         (10**-30 SI)
   Tot        0.681738D+00      0.173280D+01      0.578001D+01
   x          0.000000D+00      0.000000D+00      0.000000D+00
   y          0.000000D+00      0.000000D+00      0.000000D+00
   z          0.681738D+00      0.173280D+01      0.578001D+01

 Dipole polarizability, Alpha (dipole orientation).
 (esu units = cm**3 , SI units = C**2 m**2 J**-1)
 Alpha(0;0):
               (au)            (10**-24 esu)      (10**-40 SI)
   iso        0.183275D+02      0.271586D+01      0.302180D+01
   aniso      0.267803D+01      0.396843D+00      0.441548D+00
   xx         0.170706D+02      0.252961D+01      0.281457D+01
   yx         0.450750D+00      0.667943D-01      0.743187D-01
   yy         0.199177D+02      0.295149D+01      0.328398D+01
   zx         0.423305D-01      0.627273D-02      0.697936D-02
   zy         0.275609D+00      0.408410D-01      0.454417D-01
   zz         0.179943D+02      0.266648D+01      0.296685D+01

 ----------------------------------------------------------------------
 1\1\GINC-R7I0N15\Freq\RM062X\def2TZVP\C1H4O1\HMAYES\09-Oct-2019\0\\#N 
 Geom=AllCheck Guess=TCheck SCRF=Check GenChk RM062X/def2TZVP Freq\\opt
 imization of fragment 1 from fragment pair [1, 12] and complete/lme2me
 oxprpnt_tsa_ts_ircr_opt.log\\0,1\O,1.8936827967,-0.4963310259,-0.49892
 29086\H,1.3239914563,-0.3249464481,-1.2521304344\C,1.8993447427,-1.884
 1417422,-0.2368336995\H,0.9028267926,-2.2589826103,0.0146196035\H,2.29
 25081853,-2.4600814074,-1.0797425909\H,2.5512720265,-2.042516766,0.620
 03603\\Version=ES64L-G16RevB.01\HF=-115.7152058\RMSD=2.171e-09\RMSF=4.
 533e-05\ZeroPoint=0.0518273\Thermal=0.0551471\Dipole=-0.3548308,-0.452
 3833,-0.3663474\DipoleDeriv=-0.464362,0.0760755,0.1156914,0.042939,-0.
 9440729,0.1236379,0.1218685,0.1657128,-0.4426042,0.28072,-0.0235535,-0
 .0984807,-0.0338248,0.2649576,-0.0250464,-0.0966523,-0.0119873,0.24154
 99,0.3075516,-0.0318053,-0.0516502,-0.0070186,0.7959508,-0.0902936,-0.
 0562132,-0.1216614,0.3038879,-0.1441703,-0.0999185,0.0577795,-0.041426
 ,-0.0519059,0.0367812,0.0478966,0.0308267,0.0362864,0.0195986,0.049660
 4,0.0685061,0.0423551,-0.089041,-0.0493933,0.068955,-0.108623,-0.09035
 04,0.0006621,0.0295414,-0.0918462,-0.0030247,0.0241115,0.0043143,-0.08
 58545,0.0457321,-0.0487696\Polar=17.5306148,-0.3820343,19.3451906,0.74
 07174,-0.9144812,18.1067449\Quadrupole=-2.5815786,1.3527482,1.2288304,
 -1.6225471,-0.1113916,0.1268366\PG=C01 [X(C1H4O1)]\NImag=0\\0.25201556
 ,-0.04133471,0.39624908,0.26933116,-0.11677056,0.40789177,-0.19505945,
 0.05811385,-0.25399408,0.19361318,0.02532191,-0.05290124,0.04123417,-0
 .05243847,0.07231958,-0.24795809,0.08276769,-0.33216391,0.25099203,-0.
 07913682,0.33544076,-0.07356396,-0.01758092,-0.01285010,-0.00048868,0.
 02752306,-0.00473653,0.58738166,0.01039456,-0.25995510,0.04971130,-0.0
 0401507,-0.01411992,-0.00262992,-0.00100257,0.50057769,-0.01799638,0.0
 1429390,-0.08629435,0.00106569,0.03732650,-0.00626676,0.02150925,0.011
 66591,0.59600933,0.00966807,-0.00394386,0.00032325,0.00105675,-0.00065
 878,-0.00018654,-0.27325082,-0.07008386,0.05209334,0.28958745,-0.03215
 633,-0.03016939,0.01218250,-0.00108126,0.00116862,-0.00121760,-0.06502
 955,-0.07043484,0.01608207,0.08173292,0.08969925,0.00445371,0.00810308
 ,0.00112816,0.00124229,0.00035113,-0.00007836,0.05208334,0.01513698,-0
 .06681245,-0.05913286,-0.02236642,0.06276348,0.00438834,0.00217973,-0.
 00305784,-0.00029051,0.00083971,0.00058554,-0.08836658,0.04436472,0.07
 419358,-0.01001796,0.01396514,0.02543809,0.08560193,0.01240791,-0.0373
 8929,-0.02181585,-0.00075886,0.00092640,-0.00142625,0.04405094,-0.1066
 8916,-0.09424025,-0.00254604,0.00726256,0.00674943,-0.05112238,0.13245
 595,-0.00388538,0.00507527,0.01364303,-0.00047363,-0.00042697,0.001493
 23,0.07333503,-0.09928300,-0.21606532,0.00156575,-0.00279254,-0.004694
 70,-0.08127872,0.10886130,0.22463025,0.00255145,0.00256592,0.00024761,
 0.00116872,-0.00058743,0.00130359,-0.15171162,0.02034222,-0.13086548,-
 0.01704348,0.00256908,-0.02408456,0.00868479,-0.00203156,0.01073695,0.
 15635014,0.02536667,-0.01583405,0.03545844,0.00017982,-0.00739344,0.00
 164289,0.01203903,-0.04937868,0.01487187,-0.00450038,0.00247380,-0.007
 97419,-0.01022691,0.00343355,-0.01143406,-0.02285823,0.06669882,-0.003
 94502,0.00653062,-0.00420470,0.00116771,0.00065200,0.00157503,-0.12934
 099,0.02539872,-0.22057045,0.00533706,-0.00188801,0.00769387,-0.015880
 66,0.00187162,-0.01900648,0.14266190,-0.03256495,0.23451273\\-0.000005
 08,-0.00010979,0.00002151,-0.00001487,0.00001117,-0.00001806,0.0000224
 9,0.00014665,-0.00001325,-0.00001767,-0.00000981,-0.00000215,0.0000014
 7,-0.00001708,-0.00000326,0.00001367,-0.00002115,0.00001521\\\@


 Age does not diminish the extreme disappointment of
 having a scoop of ice cream fall from the cone.
 -- Jim Fiebig
 Job cpu time:       0 days  0 hours  4 minutes 43.3 seconds.
 Elapsed time:       0 days  0 hours  0 minutes  8.5 seconds.
 File lengths (MBytes):  RWF=     10 Int=      0 D2E=      0 Chk=      2 Scr=      1
 Normal termination of Gaussian 16 at Wed Oct  9 21:32:20 2019.
