 Entering Gaussian System, Link 0=g16
 Initial command:
 /nopt/nrel/apps/gaussian/g16B/g16/l1.exe "/dev/shm/Gau-35770.inp" -scrdir="/dev/shm/"
 Default is to use a total of  36 processors:
                               36 via shared-memory
                                1 via Linda
 Entering Link 1 = /nopt/nrel/apps/gaussian/g16B/g16/l1.exe PID=     35771.
  
 Copyright (c) 1988-2017, Gaussian, Inc.  All Rights Reserved.
  
 This is part of the Gaussian(R) 16 program.  It is based on
 the Gaussian(R) 09 system (copyright 2009, Gaussian, Inc.),
 the Gaussian(R) 03 system (copyright 2003, Gaussian, Inc.),
 the Gaussian(R) 98 system (copyright 1998, Gaussian, Inc.),
 the Gaussian(R) 94 system (copyright 1995, Gaussian, Inc.),
 the Gaussian 92(TM) system (copyright 1992, Gaussian, Inc.),
 the Gaussian 90(TM) system (copyright 1990, Gaussian, Inc.),
 the Gaussian 88(TM) system (copyright 1988, Gaussian, Inc.),
 the Gaussian 86(TM) system (copyright 1986, Carnegie Mellon
 University), and the Gaussian 82(TM) system (copyright 1983,
 Carnegie Mellon University). Gaussian is a federally registered
 trademark of Gaussian, Inc.
  
 This software contains proprietary and confidential information,
 including trade secrets, belonging to Gaussian, Inc.
  
 This software is provided under written license and may be
 used, copied, transmitted, or stored only in accord with that
 written license.
  
 The following legend is applicable only to US Government
 contracts under FAR:
  
                    RESTRICTED RIGHTS LEGEND
  
 Use, reproduction and disclosure by the US Government is
 subject to restrictions as set forth in subparagraphs (a)
 and (c) of the Commercial Computer Software - Restricted
 Rights clause in FAR 52.227-19.
  
 Gaussian, Inc.
 340 Quinnipiac St., Bldg. 40, Wallingford CT 06492
  
  
 ---------------------------------------------------------------
 Warning -- This program may not be used in any manner that
 competes with the business of Gaussian, Inc. or will provide
 assistance to any competitor of Gaussian, Inc.  The licensee
 of this program is prohibited from giving any competitor of
 Gaussian, Inc. access to this program.  By using this program,
 the user acknowledges that Gaussian, Inc. is engaged in the
 business of creating and licensing software in the field of
 computational chemistry and represents and warrants to the
 licensee that it is not a competitor of Gaussian, Inc. and that
 it will not use this program in any manner prohibited above.
 ---------------------------------------------------------------
  

 Cite this work as:
 Gaussian 16, Revision B.01,
 M. J. Frisch, G. W. Trucks, H. B. Schlegel, G. E. Scuseria, 
 M. A. Robb, J. R. Cheeseman, G. Scalmani, V. Barone, 
 G. A. Petersson, H. Nakatsuji, X. Li, M. Caricato, A. V. Marenich, 
 J. Bloino, B. G. Janesko, R. Gomperts, B. Mennucci, H. P. Hratchian, 
 J. V. Ortiz, A. F. Izmaylov, J. L. Sonnenberg, D. Williams-Young, 
 F. Ding, F. Lipparini, F. Egidi, J. Goings, B. Peng, A. Petrone, 
 T. Henderson, D. Ranasinghe, V. G. Zakrzewski, J. Gao, N. Rega, 
 G. Zheng, W. Liang, M. Hada, M. Ehara, K. Toyota, R. Fukuda, 
 J. Hasegawa, M. Ishida, T. Nakajima, Y. Honda, O. Kitao, H. Nakai, 
 T. Vreven, K. Throssell, J. A. Montgomery, Jr., J. E. Peralta, 
 F. Ogliaro, M. J. Bearpark, J. J. Heyd, E. N. Brothers, K. N. Kudin, 
 V. N. Staroverov, T. A. Keith, R. Kobayashi, J. Normand, 
 K. Raghavachari, A. P. Rendell, J. C. Burant, S. S. Iyengar, 
 J. Tomasi, M. Cossi, J. M. Millam, M. Klene, C. Adamo, R. Cammi, 
 J. W. Ochterski, R. L. Martin, K. Morokuma, O. Farkas, 
 J. B. Foresman, and D. J. Fox, Gaussian, Inc., Wallingford CT, 2016.
 
 ******************************************
 Gaussian 16:  ES64L-G16RevB.01 20-Dec-2017
                14-Aug-2019 
 ******************************************
 %RWF=/dev/shm/,5GB,/tmp/scratch/1148538/,-1
 %NoSave
 %OldChk=pdc2_eghtsc.chk
 %Chk=/dev/shm/pdc2_eghtsct.chk
 Copying data from "pdc2_eghtsc.chk" to current chk file "/dev/shm/pdc2_eghtsct.chk"
 IOpt=  2 FromEx=T IUOpen= 4 IOptOp= 5 NList=   0 IFRang= 0 IUIn= 4 IUOut= 2.
 Default route: CacheSize=180224 MaxDisk=256GB
 ----------------------------------------------------------------------
 # m062x/Def2TZVP nosymm scf=(xqc,maxconventionalcycles=400) opt=(TS,Re
 adFC,NoFreeze) freq=NoRaman guess=read geom=allcheck CPHF=Grid=Fine SC
 RF=(Solvent=1,2-EthaneDiol,Read)
 ----------------------------------------------------------------------
 1/4=180224,5=1,10=3,18=20,26=3,29=2007,38=1,40=2/1,3;
 2/4=180224,9=110,12=2,15=1,40=1/2;
 3/4=180224,5=44,7=101,11=2,14=-4,25=1,30=1,70=2203,71=1,72=30,74=-55,116=-2/1,2,3;
 4/4=180224,5=1/1;
 5/4=180224,5=2,8=3,13=1,38=6,53=30,85=400/2,8;
 6/4=180224,7=2,8=2,9=2,10=2,28=1/1;
 7/4=180224,30=1/1,2,3,16;
 1/4=180224,5=1,18=20,26=3/3(2);
 2/4=180224,9=110,15=1/2;
 99/4=180224/99;
 2/4=180224,9=110,15=1/2;
 3/4=180224,5=44,7=101,11=2,14=-2,25=1,30=1,70=2205,71=1,72=30,74=-55/1,2,3;
 4/4=180224,5=5,16=3,69=1/1;
 5/4=180224,5=2,8=3,13=1,38=5,53=30,85=400/2,8;
 7/4=180224,30=1/1,2,3,16;
 1/4=180224,5=1,18=20,26=3/3(-5);
 2/4=180224,9=110,15=1/2;
 6/4=180224,7=2,8=2,9=2,10=2,19=2,28=1/1;
 99/4=180224,9=1/99;
 Structure from the checkpoint file:  "/dev/shm/pdc2_eghtsct.chk"
 --------------------------
 based on pdc2_eghts_ts.log
 --------------------------
 Charge =  1 Multiplicity = 1
 Redundant internal coordinates found in file.  (old form).
 H,0,6.4974576922,18.1312508627,15.6769848225
 C,0,2.9564233921,20.0301968144,11.9987722381
 C,0,5.4058526949,20.5429430258,13.326034121
 C,0,4.9209598558,19.1945638738,13.1905494001
 C,0,3.7513049822,18.9373859529,12.5648694422
 O,0,3.4882487344,21.2924504063,12.1666583343
 C,0,4.644258679,21.5235229308,12.799469989
 C,0,5.7589352796,18.0868949068,13.7742249692
 C,0,5.0539556545,22.9666307876,12.8945368293
 H,0,6.3343286564,20.802227514,13.8335664941
 H,0,4.5008174639,24.692580491,12.415150068
 O,0,5.6320041868,18.0458614405,15.226376822
 O,0,7.0481522439,18.0708889545,13.4392103574
 O,0,4.1839239224,23.7780018697,12.3217379081
 O,0,6.0690574999,23.3010023949,13.4401456626
 H,0,5.6638547565,16.1888189481,11.7629373375
 C,0,5.6656962077,15.776234585,12.7796563311
 O,0,5.204638302,13.5733410609,11.9857149213
 H,0,6.6926992514,15.5467098817,13.0899953843
 H,0,5.2494601192,16.9230017784,14.9037442533
 O,0,5.1224867464,16.7908216392,13.6637414925
 C,0,4.7560133424,14.5607340774,12.8697169977
 H,0,5.9798542473,13.1420782618,12.3654527814
 H,0,3.7398333356,14.8489707079,12.5676328191
 H,0,4.7098822533,14.2098724169,13.9139067754
 H,0,7.2366438513,18.5730670121,12.6297207717
 H,0,3.3460794583,17.9332245537,12.451783934
 O,0,1.9162092344,19.9225082141,11.4208202068
 Recover connectivity data from disk.
 Any frozen variables have been unfrozen.

 GradGradGradGradGradGradGradGradGradGradGradGradGradGradGradGradGradGrad
 Berny optimization.
 Initialization pass.
 Force constant matrix read from checkpoint file:
 "/dev/shm/pdc2_eghtsct.chk"
                           ----------------------------
                           !    Initial Parameters    !
                           ! (Angstroms and Degrees)  !
 --------------------------                            --------------------------
 ! Name  Definition              Value          Derivative Info.                !
 --------------------------------------------------------------------------------
 ! R1    R(1,12)                 0.9795         D2E/DX2 =    0.4923             !
 ! R2    R(2,5)                  1.4651         D2E/DX2 =    0.3089             !
 ! R3    R(2,6)                  1.38           D2E/DX2 =    0.2994             !
 ! R4    R(2,28)                 1.1949         D2E/DX2 =    0.9462             !
 ! R5    R(3,4)                  1.4393         D2E/DX2 =    0.3516             !
 ! R6    R(3,7)                  1.3486         D2E/DX2 =    0.5279             !
 ! R7    R(3,10)                 1.0894         D2E/DX2 =    0.3745             !
 ! R8    R(4,5)                  1.3512         D2E/DX2 =    0.5314             !
 ! R9    R(4,8)                  1.5066         D2E/DX2 =    0.3287             !
 ! R10   R(5,27)                 1.0887         D2E/DX2 =    0.3769             !
 ! R11   R(6,7)                  1.338          D2E/DX2 =    0.4021             !
 ! R12   R(7,9)                  1.5031         D2E/DX2 =    0.3254             !
 ! R13   R(8,12)                 1.4583         D2E/DX2 =    0.184              !
 ! R14   R(8,13)                 1.3321         D2E/DX2 =    0.5048             !
 ! R15   R(8,21)                 1.4481         D2E/DX2 =    0.2005             !
 ! R16   R(9,14)                 1.3204         D2E/DX2 =    0.4995             !
 ! R17   R(9,15)                 1.2            D2E/DX2 =    0.9327             !
 ! R18   R(11,14)                0.9724         D2E/DX2 =    0.5162             !
 ! R19   R(12,20)                1.2293         D2E/DX2 =    0.0457             !
 ! R20   R(13,26)                0.9711         D2E/DX2 =    0.5192             !
 ! R21   R(16,17)                1.0972         D2E/DX2 =    0.3517             !
 ! R22   R(17,19)                1.0971         D2E/DX2 =    0.3525             !
 ! R23   R(17,21)                1.4512         D2E/DX2 =    0.3035             !
 ! R24   R(17,22)                1.5209         D2E/DX2 =    0.298              !
 ! R25   R(18,22)                1.3992         D2E/DX2 =    0.4078             !
 ! R26   R(18,23)                0.965          D2E/DX2 =    0.5385             !
 ! R27   R(20,21)                1.2535         D2E/DX2 =    0.0389             !
 ! R28   R(22,24)                1.0986         D2E/DX2 =    0.347              !
 ! R29   R(22,25)                1.1025         D2E/DX2 =    0.3368             !
 ! A1    A(5,2,6)              115.2246         D2E/DX2 =    0.0969             !
 ! A2    A(5,2,28)             126.2988         D2E/DX2 =    0.1402             !
 ! A3    A(6,2,28)             118.4765         D2E/DX2 =    0.173              !
 ! A4    A(4,3,7)              117.0105         D2E/DX2 =    0.0822             !
 ! A5    A(4,3,10)             123.6372         D2E/DX2 =    0.0778             !
 ! A6    A(7,3,10)             119.3486         D2E/DX2 =    0.078              !
 ! A7    A(3,4,5)              120.8993         D2E/DX2 =    0.0825             !
 ! A8    A(3,4,8)              117.705          D2E/DX2 =    0.1374             !
 ! A9    A(5,4,8)              121.3953         D2E/DX2 =    0.1495             !
 ! A10   A(2,5,4)              120.4377         D2E/DX2 =    0.0855             !
 ! A11   A(2,5,27)             116.48           D2E/DX2 =    0.0797             !
 ! A12   A(4,5,27)             123.0822         D2E/DX2 =    0.0777             !
 ! A13   A(2,6,7)              123.2631         D2E/DX2 =    0.1097             !
 ! A14   A(3,7,6)              123.1615         D2E/DX2 =    0.1008             !
 ! A15   A(3,7,9)              121.2944         D2E/DX2 =    0.1305             !
 ! A16   A(6,7,9)              115.5441         D2E/DX2 =    0.1449             !
 ! A17   A(4,8,12)             110.9814         D2E/DX2 =    0.0306             !
 ! A18   A(4,8,13)             116.724          D2E/DX2 =    0.0547             !
 ! A19   A(4,8,21)             112.5822         D2E/DX2 =    0.0441             !
 ! A20   A(12,8,13)            109.532          D2E/DX2 =    0.0342             !
 ! A21   A(12,8,21)             90.7182         D2E/DX2 =    0.0392             !
 ! A22   A(13,8,21)            113.2908         D2E/DX2 =    0.0398             !
 ! A23   A(7,9,14)             112.5149         D2E/DX2 =    0.1838             !
 ! A24   A(7,9,15)             121.7926         D2E/DX2 =    0.1704             !
 ! A25   A(14,9,15)            125.6925         D2E/DX2 =    0.1997             !
 ! A26   A(1,12,8)             112.2571         D2E/DX2 =    0.0399             !
 ! A27   A(1,12,20)            118.3808         D2E/DX2 =    0.0118             !
 ! A28   A(8,12,20)             77.9621         D2E/DX2 =    0.0414             !
 ! A29   A(8,13,26)            113.0342         D2E/DX2 =    0.1709             !
 ! A30   A(9,14,11)            108.7564         D2E/DX2 =    0.1676             !
 ! A31   A(16,17,19)           110.0193         D2E/DX2 =    0.0222             !
 ! A32   A(16,17,21)           107.5163         D2E/DX2 =    0.0538             !
 ! A33   A(16,17,22)           110.7557         D2E/DX2 =    0.0492             !
 ! A34   A(19,17,21)           108.9243         D2E/DX2 =    0.0593             !
 ! A35   A(19,17,22)           112.0827         D2E/DX2 =    0.0512             !
 ! A36   A(21,17,22)           107.3846         D2E/DX2 =    0.1535             !
 ! A37   A(22,18,23)           108.9262         D2E/DX2 =    0.1835             !
 ! A38   A(12,20,21)           112.7969         D2E/DX2 =    0.0519             !
 ! A39   A(8,21,17)            120.5096         D2E/DX2 =    0.0519             !
 ! A40   A(8,21,20)             77.6213         D2E/DX2 =    0.0345             !
 ! A41   A(17,21,20)           129.6768         D2E/DX2 =    0.0136             !
 ! A42   A(17,22,18)           109.5608         D2E/DX2 =    0.1491             !
 ! A43   A(17,22,24)           109.1039         D2E/DX2 =    0.075              !
 ! A44   A(17,22,25)           109.5996         D2E/DX2 =    0.0745             !
 ! A45   A(18,22,24)           107.9388         D2E/DX2 =    0.0593             !
 ! A46   A(18,22,25)           112.7812         D2E/DX2 =    0.0634             !
 ! A47   A(24,22,25)           107.7708         D2E/DX2 =    0.0274             !
 ! D1    D(6,2,5,4)             -0.4267         D2E/DX2 =    0.0098             !
 ! D2    D(6,2,5,27)           179.4727         D2E/DX2 =    0.0097             !
 ! D3    D(28,2,5,4)           179.5834         D2E/DX2 =    0.0143             !
 ! D4    D(28,2,5,27)           -0.5173         D2E/DX2 =    0.0177             !
 ! D5    D(5,2,6,7)             -0.0927         D2E/DX2 =    0.0076             !
 ! D6    D(28,2,6,7)           179.8981         D2E/DX2 =    0.0122             !
 ! D7    D(7,3,4,5)             -0.1918         D2E/DX2 =    0.0066             !
 ! D8    D(7,3,4,8)           -179.9481         D2E/DX2 =    0.006              !
 ! D9    D(10,3,4,5)           179.1001         D2E/DX2 =    0.0064             !
 ! D10   D(10,3,4,8)            -0.6562         D2E/DX2 =    0.0063             !
 ! D11   D(4,3,7,6)             -0.3411         D2E/DX2 =    0.0081             !
 ! D12   D(4,3,7,9)            179.5597         D2E/DX2 =    0.0091             !
 ! D13   D(10,3,7,6)          -179.6648         D2E/DX2 =    0.0081             !
 ! D14   D(10,3,7,9)             0.2361         D2E/DX2 =    0.0091             !
 ! D15   D(3,4,5,2)              0.5693         D2E/DX2 =    0.0073             !
 ! D16   D(3,4,5,27)          -179.3232         D2E/DX2 =    0.0088             !
 ! D17   D(8,4,5,2)           -179.6835         D2E/DX2 =    0.0075             !
 ! D18   D(8,4,5,27)             0.424          D2E/DX2 =    0.0087             !
 ! D19   D(3,4,8,12)            75.6756         D2E/DX2 =    0.0135             !
 ! D20   D(3,4,8,13)           -50.7641         D2E/DX2 =    0.0138             !
 ! D21   D(3,4,8,21)           175.6979         D2E/DX2 =    0.0136             !
 ! D22   D(5,4,8,12)          -104.0795         D2E/DX2 =    0.013              !
 ! D23   D(5,4,8,13)           129.4809         D2E/DX2 =    0.0123             !
 ! D24   D(5,4,8,21)            -4.0571         D2E/DX2 =    0.0132             !
 ! D25   D(2,6,7,3)              0.4882         D2E/DX2 =    0.0064             !
 ! D26   D(2,6,7,9)           -179.4179         D2E/DX2 =    0.0066             !
 ! D27   D(3,7,9,14)           179.9693         D2E/DX2 =    0.0132             !
 ! D28   D(3,7,9,15)            -0.0254         D2E/DX2 =    0.0153             !
 ! D29   D(6,7,9,14)            -0.1227         D2E/DX2 =    0.0143             !
 ! D30   D(6,7,9,15)           179.8826         D2E/DX2 =    0.0149             !
 ! D31   D(4,8,12,1)          -122.9478         D2E/DX2 =    0.0194             !
 ! D32   D(4,8,12,20)          121.0841         D2E/DX2 =    0.0313             !
 ! D33   D(13,8,12,1)            7.3737         D2E/DX2 =    0.0184             !
 ! D34   D(13,8,12,20)        -108.5944         D2E/DX2 =    0.0316             !
 ! D35   D(21,8,12,1)          122.4625         D2E/DX2 =    0.014              !
 ! D36   D(21,8,12,20)           6.4943         D2E/DX2 =    0.0054             !
 ! D37   D(4,8,13,26)          -20.2532         D2E/DX2 =    0.0106             !
 ! D38   D(12,8,13,26)        -147.4079         D2E/DX2 =    0.0156             !
 ! D39   D(21,8,13,26)         112.9675         D2E/DX2 =    0.016              !
 ! D40   D(4,8,21,17)          111.4756         D2E/DX2 =    0.0125             !
 ! D41   D(4,8,21,20)         -119.5209         D2E/DX2 =    0.0194             !
 ! D42   D(12,8,21,17)        -135.3805         D2E/DX2 =    0.0132             !
 ! D43   D(12,8,21,20)          -6.3769         D2E/DX2 =    0.0051             !
 ! D44   D(13,8,21,17)         -23.7006         D2E/DX2 =    0.0166             !
 ! D45   D(13,8,21,20)         105.303          D2E/DX2 =    0.0257             !
 ! D46   D(7,9,14,11)          179.9686         D2E/DX2 =    0.0227             !
 ! D47   D(15,9,14,11)          -0.037          D2E/DX2 =    0.0206             !
 ! D48   D(1,12,20,21)        -117.1121         D2E/DX2 =    0.0308             !
 ! D49   D(8,12,20,21)          -8.148          D2E/DX2 =    0.0079             !
 ! D50   D(16,17,21,8)         -59.426          D2E/DX2 =    0.0158             !
 ! D51   D(16,17,21,20)       -158.954          D2E/DX2 =    0.016              !
 ! D52   D(19,17,21,8)          59.7636         D2E/DX2 =    0.0169             !
 ! D53   D(19,17,21,20)        -39.7643         D2E/DX2 =    0.0151             !
 ! D54   D(22,17,21,8)        -178.6495         D2E/DX2 =    0.0165             !
 ! D55   D(22,17,21,20)         81.8226         D2E/DX2 =    0.0143             !
 ! D56   D(16,17,22,18)         60.178          D2E/DX2 =    0.0184             !
 ! D57   D(16,17,22,24)        -57.7902         D2E/DX2 =    0.0181             !
 ! D58   D(16,17,22,25)       -175.5778         D2E/DX2 =    0.0162             !
 ! D59   D(19,17,22,18)        -63.1089         D2E/DX2 =    0.0189             !
 ! D60   D(19,17,22,24)        178.9228         D2E/DX2 =    0.0165             !
 ! D61   D(19,17,22,25)         61.1353         D2E/DX2 =    0.0183             !
 ! D62   D(21,17,22,18)        177.3025         D2E/DX2 =    0.0209             !
 ! D63   D(21,17,22,24)         59.3343         D2E/DX2 =    0.0183             !
 ! D64   D(21,17,22,25)        -58.4532         D2E/DX2 =    0.018              !
 ! D65   D(23,18,22,17)         76.4641         D2E/DX2 =    0.0187             !
 ! D66   D(23,18,22,24)       -164.8437         D2E/DX2 =    0.0259             !
 ! D67   D(23,18,22,25)        -45.9024         D2E/DX2 =    0.0243             !
 ! D68   D(12,20,21,8)           8.2161         D2E/DX2 =    0.0086             !
 ! D69   D(12,20,21,17)        127.7711         D2E/DX2 =    0.0374             !
 --------------------------------------------------------------------------------
 Trust Radius=3.00D-01 FncErr=1.00D-07 GrdErr=1.00D-06 EigMax=2.50D+02 EigMin=1.00D-04
 Number of steps in this run=    155 maximum allowed number of steps=    168.
 Search for a saddle point of order  1.
 GradGradGradGradGradGradGradGradGradGradGradGradGradGradGradGradGradGrad

                          Input orientation:                          
 ---------------------------------------------------------------------
 Center     Atomic      Atomic             Coordinates (Angstroms)
 Number     Number       Type             X           Y           Z
 ---------------------------------------------------------------------
      1          1           0        6.497458   18.131251   15.676985
      2          6           0        2.956423   20.030197   11.998772
      3          6           0        5.405853   20.542943   13.326034
      4          6           0        4.920960   19.194564   13.190549
      5          6           0        3.751305   18.937386   12.564869
      6          8           0        3.488249   21.292450   12.166658
      7          6           0        4.644259   21.523523   12.799470
      8          6           0        5.758935   18.086895   13.774225
      9          6           0        5.053956   22.966631   12.894537
     10          1           0        6.334329   20.802228   13.833566
     11          1           0        4.500817   24.692580   12.415150
     12          8           0        5.632004   18.045861   15.226377
     13          8           0        7.048152   18.070889   13.439210
     14          8           0        4.183924   23.778002   12.321738
     15          8           0        6.069057   23.301002   13.440146
     16          1           0        5.663855   16.188819   11.762937
     17          6           0        5.665696   15.776235   12.779656
     18          8           0        5.204638   13.573341   11.985715
     19          1           0        6.692699   15.546710   13.089995
     20          1           0        5.249460   16.923002   14.903744
     21          8           0        5.122487   16.790822   13.663741
     22          6           0        4.756013   14.560734   12.869717
     23          1           0        5.979854   13.142078   12.365453
     24          1           0        3.739833   14.848971   12.567633
     25          1           0        4.709882   14.209872   13.913907
     26          1           0        7.236644   18.573067   12.629721
     27          1           0        3.346079   17.933225   12.451784
     28          8           0        1.916209   19.922508   11.420820
 ---------------------------------------------------------------------
                    Distance matrix (angstroms):
                    1          2          3          4          5
     1  H    0.000000
     2  C    5.447400   0.000000
     3  C    3.540456   2.832708   0.000000
     4  C    3.130230   2.444999   1.439307   0.000000
     5  C    4.228058   1.465107   2.427903   1.351188   0.000000
     6  O    5.600974   1.379967   2.362862   2.739004   2.402936
     7  C    4.818916   2.391637   1.348641   2.377721   2.745999
     8  C    2.041538   3.844831   2.521451   1.506589   2.493282
     9  C    5.762518   3.718155   2.486822   3.786001   4.247398
    10  H    3.249449   3.920809   1.089443   2.235098   3.429174
    11  H    7.594550   4.929132   4.343764   5.568299   5.805726
    12  O    0.979463   4.638292   3.146087   2.443296   3.378678
    13  O    2.305329   4.759831   2.970018   2.418558   3.519161
    14  O    6.963901   3.956906   3.601017   4.722919   4.865988
    15  O    5.649186   4.739643   2.838971   4.271213   5.017891
    16  H    4.448337   4.705527   4.633382   3.409468   3.443191
    17  C    3.825237   5.103541   4.804951   3.522562   3.701879
    18  O    6.005947   6.837077   7.100162   5.755888   5.587537
    19  H    3.662033   5.937355   5.164691   4.056601   4.519319
    20  H    1.901385   4.832343   3.951911   2.864078   3.431115
    21  O    2.782165   4.237630   3.777930   2.458150   2.774058
    22  C    4.864357   5.823409   6.034678   4.647851   4.500828
    23  H    6.010491   7.531385   7.484985   6.199566   6.212229
    24  H    5.295840   5.270905   5.980979   4.546126   4.088432
    25  H    4.656295   6.373267   6.398262   5.041324   5.008808
    26  H    3.166610   4.565261   2.777960   2.462352   3.504928
    27  H    4.513571   2.180446   3.437675   2.148720   1.088731
    28  O    6.504720   1.194852   4.023977   3.562355   2.376319
                    6          7          8          9         10
     6  O    0.000000
     7  C    1.337985   0.000000
     8  C    4.244511   3.742067   0.000000
     9  C    2.405021   1.503147   5.008260   0.000000
    10  H    3.334527   2.108544   2.776262   2.684357   0.000000
    11  H    3.556393   3.195497   6.860396   1.874747   4.528633
    12  O    4.949536   4.354268   1.458266   5.475910   3.167133
    13  O    4.966967   4.255426   1.332130   5.314299   2.850486
    14  O    2.585726   2.350066   6.081043   1.320370   3.970529
    15  O    3.509505   2.366421   5.233995   1.199969   2.543428
    16  H    5.562671   5.529290   2.767130   6.898640   5.101037
    17  C    5.962020   5.837384   2.517342   7.217286   5.178649
    18  O    7.909702   8.011343   4.886531   9.438355   7.546360
    19  H    6.643387   6.324777   2.791527   7.601244   5.319943
    20  H    5.448448   5.095001   1.700008   6.371859   4.167807
    21  O    5.017634   4.834680   1.448130   6.223905   4.193898
    22  C    6.886038   6.964040   3.775950   8.411212   6.509710
    23  H    8.525033   8.498282   5.146325   9.882259   7.807618
    24  H    6.460844   6.739539   4.002098   8.229835   6.616288
    25  H    7.396498   7.398362   4.018871   8.822603   6.790024
    26  H    4.654024   3.931217   1.931289   4.913009   2.689344
    27  H    3.374301   3.833588   2.755783   5.333671   4.366936
    28  O    2.214571   3.450533   4.865648   4.613456   5.110287
                   11         12         13         14         15
    11  H    0.000000
    12  O    7.304892   0.000000
    13  O    7.168292   2.280365   0.000000
    14  O    0.972420   6.587207   6.482568   0.000000
    15  O    2.333770   5.567598   5.320969   2.243233   0.000000
    16  H    8.607671   3.930017   2.875475   7.752300   7.318495
    17  C    8.999502   3.337481   2.758919   8.150682   7.564461
    18  O   11.149765   5.539672   5.073375  10.261085   9.873702
    19  H    9.429036   3.454701   2.572893   8.639348   7.787207
    20  H    8.192675   1.229327   2.588010   7.402240   6.594904
    21  O    8.023917   2.067985   2.323182   7.176529   6.582435
    22  C   10.145249   4.297362   4.230770   9.251248   8.856736
    23  H   11.644918   5.687968   5.156296  10.786573  10.216000
    24  H    9.874158   4.568297   4.699508   8.943449   8.810414
    25  H   10.591371   4.157848   4.538754   9.713945   9.204371
    26  H    6.706656   3.097650   0.971074   6.041962   4.936944
    27  H    6.857380   3.596735   3.833967   5.905956   6.099550
    28  O    5.515658   5.640142   5.817150   4.562786   5.721717
                   16         17         18         19         20
    16  H    0.000000
    17  C    1.097245   0.000000
    18  O    2.664814   2.386558   0.000000
    19  H    1.797751   1.097145   2.707018   0.000000
    20  H    3.251986   2.449505   4.442649   2.695701   0.000000
    21  O    2.066045   1.451231   3.629697   2.083882   1.253475
    22  C    2.167902   1.520880   1.399167   2.184359   3.156116
    23  H    3.121780   2.684965   0.964960   2.610625   4.612134
    24  H    2.478828   2.147957   2.027687   3.078818   3.469581
    25  H    3.074567   2.157219   2.089947   2.529333   2.938025
    26  H    2.984898   3.211328   5.435168   3.109110   3.441337
    27  H    2.981534   3.184451   4.762357   4.159643   3.264279
    28  O    5.301163   5.752971   7.172503   6.689440   5.677883
                   21         22         23         24         25
    21  O    0.000000
    22  C    2.395427   0.000000
    23  H    3.966606   1.940271   0.000000
    24  H    2.623732   1.098616   2.823482   0.000000
    25  H    2.625666   1.102526   2.269520   1.778172   0.000000
    26  H    2.952162   4.723340   5.580770   5.108858   5.202992
    27  H    2.435066   3.679168   5.468026   3.111444   4.226241
    28  O    5.011823   6.237981   7.961141   5.511948   6.830395
                   26         27         28
    26  H    0.000000
    27  H    3.946841   0.000000
    28  O    5.620450   2.657944   0.000000
 Symmetry turned off by external request.
 Stoichiometry    C9H11O8(1+)
 Framework group  C1[X(C9H11O8)]
 Deg. of freedom    78
 Full point group                 C1      NOp   1
 Rotational constants (GHZ):           0.8881803           0.2238285           0.1901299
 Standard basis: def2TZVP (5D, 7F)
   593 basis functions,   955 primitive gaussians,   678 cartesian basis functions
    64 alpha electrons       64 beta electrons
       nuclear repulsion energy      1264.8922000499 Hartrees.
 NAtoms=   28 NActive=   28 NUniq=   28 SFac= 1.00D+00 NAtFMM=   60 NAOKFM=F Big=F
 Integral buffers will be    131072 words long.
 Raffenetti 2 integral format.
 Two-electron integral symmetry is turned off.
 Using the following non-standard input for PCM:
 PDENS=7.0
 --- end of non-standard input.
 ------------------------------------------------------------------------------
 Polarizable Continuum Model (PCM)
 =================================
 Model                : PCM.
 Atomic radii         : UFF (Universal Force Field).
 Polarization charges : Total charges.
 Charge compensation  : None.
 Solution method      : On-the-fly selection.
 Cavity type          : Scaled VdW (van der Waals Surface) (Alpha=1.100).
 Cavity algorithm     : GePol (No added spheres)
                        Default sphere list used, NSphG=   28.
                        Lebedev-Laikov grids with approx.  7.0 points / Ang**2.
                        Smoothing algorithm: York/Karplus (Gamma=1.0000).
                        Polarization charges: spherical gaussians, with
                                              point-specific exponents (IZeta= 3).
                        Self-potential: point-specific (ISelfS= 7).
                        Self-field    : sphere-specific E.n sum rule (ISelfD= 2).
 1st derivatives      : Analytical E(r).r(x)/FMM algorithm (CHGder, D1EAlg=3).
                        Cavity 1st derivative terms included.
 Solvent              : 1,2-EthaneDiol, Eps=  40.245000 Eps(inf)=   2.050051
 ------------------------------------------------------------------------------
 One-electron integrals computed using PRISM.
   1 Symmetry operations used in ECPInt.
 ECPInt:  NShTT=   26796 NPrTT=   83028 LenC2=   23065 LenP2D=   51279.
 LDataN:  DoStor=T MaxTD1= 6 Len=  172
 NBasis=   593 RedAO= T EigKep=  2.35D-05  NBF=   593
 NBsUse=   593 1.00D-06 EigRej= -1.00D+00 NBFU=   593
 Initial guess from the checkpoint file:  "/dev/shm/pdc2_eghtsct.chk"
 B after Tr=     0.000000    0.000000    0.000000
         Rot=    1.000000    0.000000    0.000000    0.000000 Ang=   0.00 deg.
 Requested convergence on RMS density matrix=1.00D-08 within 400 cycles.
 Requested convergence on MAX density matrix=1.00D-06.
 Requested convergence on             energy=1.00D-06.
 No special actions if energy rises.
 Inv3:  Mode=1 IEnd=    34212387.
 Iteration    1 A*A^-1 deviation from unit magnitude is 3.55D-15 for   1407.
 Iteration    1 A*A^-1 deviation from orthogonality  is 2.81D-15 for   2681   2138.
 Iteration    1 A^-1*A deviation from unit magnitude is 3.33D-15 for   1407.
 Iteration    1 A^-1*A deviation from orthogonality  is 2.85D-15 for   1472    626.
 Error on total polarization charges =  0.01059
 SCF Done:  E(RM062X) =  -951.161024286     A.U. after   13 cycles
            NFock= 13  Conv=0.29D-08     -V/T= 2.0046
 QCSCF skips out because SCF is already converged.

 **********************************************************************

            Population analysis using the SCF Density.

 **********************************************************************

 Alpha  occ. eigenvalues --  -19.75812 -19.74794 -19.73567 -19.72314 -19.70234
 Alpha  occ. eigenvalues --  -19.65011 -19.64880 -19.64594 -10.79934 -10.71584
 Alpha  occ. eigenvalues --  -10.71541 -10.66849 -10.63429 -10.63241 -10.60997
 Alpha  occ. eigenvalues --  -10.60767 -10.59898  -1.35458  -1.29679  -1.27070
 Alpha  occ. eigenvalues --   -1.24594  -1.22446  -1.19635  -1.17871  -1.17416
 Alpha  occ. eigenvalues --   -0.99881  -0.92997  -0.91220  -0.84436  -0.82101
 Alpha  occ. eigenvalues --   -0.78654  -0.77691  -0.75405  -0.72141  -0.69726
 Alpha  occ. eigenvalues --   -0.68190  -0.65761  -0.63848  -0.62593  -0.61115
 Alpha  occ. eigenvalues --   -0.60836  -0.60711  -0.60085  -0.58869  -0.57397
 Alpha  occ. eigenvalues --   -0.56685  -0.56521  -0.55157  -0.52441  -0.51952
 Alpha  occ. eigenvalues --   -0.51246  -0.50091  -0.49627  -0.47887  -0.47771
 Alpha  occ. eigenvalues --   -0.47013  -0.45213  -0.43859  -0.42844  -0.41693
 Alpha  occ. eigenvalues --   -0.41219  -0.38619  -0.38174  -0.33148
 Alpha virt. eigenvalues --   -0.08360  -0.02363   0.02682   0.05206   0.05497
 Alpha virt. eigenvalues --    0.06667   0.06856   0.07128   0.08925   0.09944
 Alpha virt. eigenvalues --    0.10241   0.10892   0.11933   0.12315   0.13605
 Alpha virt. eigenvalues --    0.14057   0.14785   0.15754   0.16072   0.16991
 Alpha virt. eigenvalues --    0.18252   0.18857   0.19806   0.20621   0.20866
 Alpha virt. eigenvalues --    0.21931   0.22430   0.22843   0.23656   0.24137
 Alpha virt. eigenvalues --    0.24963   0.25614   0.26251   0.26906   0.27678
 Alpha virt. eigenvalues --    0.28194   0.28718   0.29594   0.30793   0.31845
 Alpha virt. eigenvalues --    0.32711   0.33018   0.33351   0.34140   0.34846
 Alpha virt. eigenvalues --    0.36198   0.36330   0.37584   0.37784   0.38196
 Alpha virt. eigenvalues --    0.38801   0.39610   0.40068   0.40315   0.41057
 Alpha virt. eigenvalues --    0.42170   0.42376   0.42740   0.43649   0.44011
 Alpha virt. eigenvalues --    0.45361   0.45868   0.46339   0.47618   0.48105
 Alpha virt. eigenvalues --    0.48668   0.49379   0.50074   0.50742   0.51352
 Alpha virt. eigenvalues --    0.51975   0.52284   0.53199   0.53573   0.54393
 Alpha virt. eigenvalues --    0.55042   0.56295   0.56717   0.57181   0.57905
 Alpha virt. eigenvalues --    0.58316   0.59869   0.60132   0.60909   0.62230
 Alpha virt. eigenvalues --    0.62533   0.62647   0.64969   0.65262   0.66453
 Alpha virt. eigenvalues --    0.67473   0.68105   0.68772   0.69923   0.70926
 Alpha virt. eigenvalues --    0.70994   0.72700   0.73707   0.74182   0.74651
 Alpha virt. eigenvalues --    0.76008   0.76472   0.77713   0.78025   0.78560
 Alpha virt. eigenvalues --    0.80141   0.81171   0.81428   0.82675   0.83937
 Alpha virt. eigenvalues --    0.84768   0.85640   0.86757   0.87132   0.88870
 Alpha virt. eigenvalues --    0.89466   0.90213   0.90814   0.92406   0.93660
 Alpha virt. eigenvalues --    0.94295   0.95676   0.96832   0.97394   1.00017
 Alpha virt. eigenvalues --    1.00230   1.01389   1.02173   1.03531   1.04973
 Alpha virt. eigenvalues --    1.07136   1.09402   1.11631   1.12578   1.13446
 Alpha virt. eigenvalues --    1.13921   1.16107   1.17293   1.18641   1.20170
 Alpha virt. eigenvalues --    1.21852   1.23931   1.24802   1.26071   1.27148
 Alpha virt. eigenvalues --    1.29666   1.30916   1.32283   1.33951   1.34731
 Alpha virt. eigenvalues --    1.35584   1.36610   1.38422   1.38896   1.40118
 Alpha virt. eigenvalues --    1.40803   1.42262   1.42501   1.43937   1.45877
 Alpha virt. eigenvalues --    1.46767   1.48603   1.49516   1.49958   1.51035
 Alpha virt. eigenvalues --    1.51900   1.52757   1.54884   1.55613   1.56635
 Alpha virt. eigenvalues --    1.57019   1.59152   1.59839   1.60166   1.61164
 Alpha virt. eigenvalues --    1.62035   1.63029   1.64024   1.65598   1.68155
 Alpha virt. eigenvalues --    1.69639   1.69844   1.70669   1.71414   1.71706
 Alpha virt. eigenvalues --    1.73674   1.74389   1.74762   1.76238   1.77636
 Alpha virt. eigenvalues --    1.78182   1.79613   1.81110   1.82470   1.84467
 Alpha virt. eigenvalues --    1.85323   1.85778   1.87313   1.88893   1.90224
 Alpha virt. eigenvalues --    1.91226   1.92667   1.93652   1.94693   1.95279
 Alpha virt. eigenvalues --    1.96076   1.96578   1.98352   1.99574   2.00445
 Alpha virt. eigenvalues --    2.00999   2.01849   2.03089   2.03456   2.04250
 Alpha virt. eigenvalues --    2.05688   2.07550   2.08430   2.08661   2.09245
 Alpha virt. eigenvalues --    2.12098   2.14736   2.16795   2.17622   2.18481
 Alpha virt. eigenvalues --    2.19200   2.19810   2.20982   2.22526   2.22771
 Alpha virt. eigenvalues --    2.23669   2.25393   2.27410   2.27850   2.28283
 Alpha virt. eigenvalues --    2.29078   2.30415   2.30543   2.32556   2.33705
 Alpha virt. eigenvalues --    2.34505   2.36075   2.37676   2.38024   2.39305
 Alpha virt. eigenvalues --    2.40364   2.43178   2.44532   2.44767   2.45944
 Alpha virt. eigenvalues --    2.47762   2.48497   2.49480   2.51904   2.53171
 Alpha virt. eigenvalues --    2.54663   2.55478   2.56165   2.57246   2.58837
 Alpha virt. eigenvalues --    2.60156   2.60419   2.60721   2.61990   2.62819
 Alpha virt. eigenvalues --    2.64629   2.64892   2.65554   2.67704   2.68855
 Alpha virt. eigenvalues --    2.70115   2.71932   2.72450   2.73289   2.73570
 Alpha virt. eigenvalues --    2.75333   2.76562   2.78066   2.79381   2.80477
 Alpha virt. eigenvalues --    2.81429   2.82250   2.83008   2.83350   2.84947
 Alpha virt. eigenvalues --    2.86345   2.87458   2.87646   2.88182   2.90214
 Alpha virt. eigenvalues --    2.91590   2.92483   2.93934   2.94418   2.97078
 Alpha virt. eigenvalues --    2.98295   3.01257   3.01771   3.02978   3.04159
 Alpha virt. eigenvalues --    3.04640   3.05843   3.07125   3.07584   3.08502
 Alpha virt. eigenvalues --    3.09123   3.10240   3.11405   3.12563   3.13135
 Alpha virt. eigenvalues --    3.13855   3.14506   3.15312   3.16131   3.16829
 Alpha virt. eigenvalues --    3.17837   3.19956   3.20443   3.21623   3.23135
 Alpha virt. eigenvalues --    3.23437   3.24375   3.25457   3.26047   3.26121
 Alpha virt. eigenvalues --    3.27972   3.28894   3.29670   3.30357   3.30546
 Alpha virt. eigenvalues --    3.31852   3.33075   3.33704   3.33851   3.34328
 Alpha virt. eigenvalues --    3.35918   3.36558   3.37625   3.39166   3.40255
 Alpha virt. eigenvalues --    3.41415   3.44914   3.45111   3.47082   3.47224
 Alpha virt. eigenvalues --    3.48748   3.49341   3.50948   3.53243   3.54869
 Alpha virt. eigenvalues --    3.55484   3.57055   3.58605   3.59625   3.60570
 Alpha virt. eigenvalues --    3.62162   3.64424   3.66721   3.67140   3.68107
 Alpha virt. eigenvalues --    3.68715   3.71893   3.74182   3.75892   3.79878
 Alpha virt. eigenvalues --    3.81084   3.84168   3.84698   3.86649   3.87905
 Alpha virt. eigenvalues --    3.89448   3.91710   3.93185   3.93993   3.95676
 Alpha virt. eigenvalues --    3.97552   4.01651   4.04108   4.06263   4.06474
 Alpha virt. eigenvalues --    4.08736   4.10746   4.12347   4.13933   4.20267
 Alpha virt. eigenvalues --    4.21955   4.23338   4.24209   4.30181   4.30926
 Alpha virt. eigenvalues --    4.33544   4.34823   4.36360   4.40679   4.43102
 Alpha virt. eigenvalues --    4.44062   4.46343   4.50784   4.52753   4.53911
 Alpha virt. eigenvalues --    4.57198   4.58621   4.64606   4.66738   4.69892
 Alpha virt. eigenvalues --    4.73688   4.76153   4.79794   4.85760   4.88887
 Alpha virt. eigenvalues --    4.92357   4.93864   5.00218   5.07530   5.11513
 Alpha virt. eigenvalues --    5.13404   5.15475   5.17623   5.17908   5.18374
 Alpha virt. eigenvalues --    5.21468   5.23654   5.23975   5.25007   5.25919
 Alpha virt. eigenvalues --    5.26532   5.29501   5.33115   5.35822   5.36838
 Alpha virt. eigenvalues --    5.38123   5.40777   5.41361   5.45751   5.46554
 Alpha virt. eigenvalues --    5.47582   5.48194   5.48459   5.54132   5.58644
 Alpha virt. eigenvalues --    5.60242   5.64480   5.66222   5.73093   5.73746
 Alpha virt. eigenvalues --    5.77930   5.78204   5.80202   5.81888   5.82301
 Alpha virt. eigenvalues --    5.85017   5.86936   5.87255   5.94806   5.96949
 Alpha virt. eigenvalues --    5.97473   5.99090   6.04616   6.11667   6.13225
 Alpha virt. eigenvalues --    6.17243   6.18295   6.18822   6.23359   6.24180
 Alpha virt. eigenvalues --    6.26680   6.29223   6.32366   6.34368   6.35031
 Alpha virt. eigenvalues --    6.39916   6.41888   6.42258   6.42992   6.43422
 Alpha virt. eigenvalues --    6.49761   6.50302   6.52337   6.55693   6.61896
 Alpha virt. eigenvalues --    6.63545   6.63991   6.66292   6.67265   6.67749
 Alpha virt. eigenvalues --    6.71509   6.75978   6.76696   6.77661   6.78051
 Alpha virt. eigenvalues --    6.80751   6.84647   6.85099   6.87462   6.89706
 Alpha virt. eigenvalues --    6.91323   6.92840   6.93873   6.97648   7.04949
 Alpha virt. eigenvalues --    7.06651   7.07785   7.08095   7.09763   7.13102
 Alpha virt. eigenvalues --    7.15860   7.21983   7.26705   7.30551   7.36401
 Alpha virt. eigenvalues --    7.38275   7.45572  22.39811  22.46681  22.56288
 Alpha virt. eigenvalues --   22.76414  22.92261  23.11420  23.21144  23.43419
 Alpha virt. eigenvalues --   23.50560  43.90285  43.94771  43.98280  44.03463
 Alpha virt. eigenvalues --   44.06296  44.14630  44.53687  44.57492
          Condensed to atoms (all electrons):
               1          2          3          4          5          6
     1  H    0.273602  -0.000017  -0.000195   0.008112  -0.000453  -0.000001
     2  C   -0.000017   4.393094  -0.024645   0.056229   0.226692   0.358956
     3  C   -0.000195  -0.024645   5.207766   0.341755  -0.044231  -0.085549
     4  C    0.008112   0.056229   0.341755   5.535099   0.130552   0.031764
     5  C   -0.000453   0.226692  -0.044231   0.130552   5.734711  -0.132561
     6  O   -0.000001   0.358956  -0.085549   0.031764  -0.132561   7.818289
     7  C    0.000023  -0.029394   0.493575  -0.059705  -0.019822   0.312123
     8  C   -0.012345  -0.002124  -0.062356   0.160608  -0.040965  -0.001490
     9  C    0.000003  -0.004759  -0.043406  -0.008759   0.007721  -0.026200
    10  H    0.000203  -0.000427   0.360599  -0.010972   0.008586   0.002001
    11  H   -0.000000  -0.000024  -0.001415   0.000055  -0.000045  -0.000761
    12  O    0.296536   0.000085   0.005009  -0.097768   0.007275   0.000032
    13  O    0.001749  -0.000096   0.006805  -0.054901   0.008928   0.000012
    14  O    0.000000   0.000140   0.009238  -0.000778   0.000749  -0.002788
    15  O    0.000001  -0.000245   0.033354   0.001182   0.000820   0.003027
    16  H    0.000029   0.000251   0.000804  -0.005479  -0.004154   0.000004
    17  C   -0.000180  -0.000834   0.001273   0.020163  -0.008874  -0.000005
    18  O   -0.000001   0.000002  -0.000002  -0.000336   0.000121  -0.000000
    19  H   -0.000085  -0.000008  -0.000308  -0.002682   0.001381  -0.000000
    20  H   -0.001662   0.000027   0.000117   0.007628  -0.001759   0.000003
    21  O    0.005372  -0.001913   0.006309  -0.054887   0.012740   0.000011
    22  C   -0.000016   0.000086  -0.000022  -0.000818  -0.000614   0.000001
    23  H    0.000000  -0.000000  -0.000001  -0.000024   0.000007  -0.000000
    24  H   -0.000004  -0.000046  -0.000080  -0.001590   0.001048  -0.000000
    25  H    0.000018   0.000009   0.000028  -0.000426   0.000011  -0.000000
    26  H   -0.000123   0.000025  -0.004846   0.009246   0.002311   0.000004
    27  H   -0.000025  -0.012623   0.004203  -0.027071   0.391478   0.003554
    28  O   -0.000000   0.734640   0.001860   0.015016  -0.121145  -0.095341
               7          8          9         10         11         12
     1  H    0.000023  -0.012345   0.000003   0.000203  -0.000000   0.296536
     2  C   -0.029394  -0.002124  -0.004759  -0.000427  -0.000024   0.000085
     3  C    0.493575  -0.062356  -0.043406   0.360599  -0.001415   0.005009
     4  C   -0.059705   0.160608  -0.008759  -0.010972   0.000055  -0.097768
     5  C   -0.019822  -0.040965   0.007721   0.008586  -0.000045   0.007275
     6  O    0.312123  -0.001490  -0.026200   0.002001  -0.000761   0.000032
     7  C    5.173281  -0.022564   0.232187  -0.000267   0.024012  -0.003585
     8  C   -0.022564   4.876532  -0.004067  -0.000711   0.000000   0.325518
     9  C    0.232187  -0.004067   4.392522  -0.009034  -0.030043  -0.000088
    10  H   -0.000267  -0.000711  -0.009034   0.403620  -0.000054   0.000234
    11  H    0.024012   0.000000  -0.030043  -0.000054   0.324325   0.000000
    12  O   -0.003585   0.325518  -0.000088   0.000234   0.000000   7.923024
    13  O    0.005835   0.307074   0.000129   0.002437   0.000000  -0.052652
    14  O   -0.134498  -0.000021   0.453252   0.000649   0.300315  -0.000000
    15  O   -0.158762  -0.000328   0.695797   0.014087   0.002259  -0.000000
    16  H   -0.000153   0.017744  -0.000003  -0.000008   0.000000  -0.000262
    17  C    0.000002  -0.032142   0.000005   0.000008  -0.000000   0.001878
    18  O   -0.000000   0.001306  -0.000000  -0.000000  -0.000000   0.000004
    19  H    0.000009  -0.004021  -0.000000  -0.000004  -0.000000   0.000617
    20  H    0.000006  -0.014741  -0.000001  -0.000052  -0.000000   0.160090
    21  O    0.000271   0.177605   0.000004   0.000225   0.000000  -0.191197
    22  C    0.000003  -0.001641  -0.000000  -0.000000   0.000000   0.000406
    23  H    0.000000   0.000091  -0.000000  -0.000000  -0.000000  -0.000001
    24  H    0.000003   0.001771  -0.000000  -0.000000  -0.000000  -0.000035
    25  H   -0.000002   0.001246  -0.000000   0.000000  -0.000000  -0.000104
    26  H    0.000034  -0.024992   0.000059  -0.000049   0.000000   0.002711
    27  H    0.001138  -0.018671   0.000094  -0.000086   0.000000   0.000450
    28  O   -0.001217  -0.000589   0.000388   0.000033  -0.000006   0.000004
              13         14         15         16         17         18
     1  H    0.001749   0.000000   0.000001   0.000029  -0.000180  -0.000001
     2  C   -0.000096   0.000140  -0.000245   0.000251  -0.000834   0.000002
     3  C    0.006805   0.009238   0.033354   0.000804   0.001273  -0.000002
     4  C   -0.054901  -0.000778   0.001182  -0.005479   0.020163  -0.000336
     5  C    0.008928   0.000749   0.000820  -0.004154  -0.008874   0.000121
     6  O    0.000012  -0.002788   0.003027   0.000004  -0.000005  -0.000000
     7  C    0.005835  -0.134498  -0.158762  -0.000153   0.000002  -0.000000
     8  C    0.307074  -0.000021  -0.000328   0.017744  -0.032142   0.001306
     9  C    0.000129   0.453252   0.695797  -0.000003   0.000005  -0.000000
    10  H    0.002437   0.000649   0.014087  -0.000008   0.000008  -0.000000
    11  H    0.000000   0.300315   0.002259   0.000000  -0.000000  -0.000000
    12  O   -0.052652  -0.000000  -0.000000  -0.000262   0.001878   0.000004
    13  O    7.911684   0.000000   0.000002   0.000496  -0.003704   0.000007
    14  O    0.000000   7.841853  -0.080108  -0.000000   0.000000  -0.000000
    15  O    0.000002  -0.080108   7.830843  -0.000000   0.000000   0.000000
    16  H    0.000496  -0.000000  -0.000000   0.477693   0.401551   0.008925
    17  C   -0.003704   0.000000   0.000000   0.401551   5.124400  -0.049255
    18  O    0.000007  -0.000000   0.000000   0.008925  -0.049255   8.052639
    19  H    0.001744  -0.000000  -0.000000  -0.029345   0.405948   0.002831
    20  H    0.002104   0.000000   0.000000   0.002352  -0.009112   0.000089
    21  O   -0.042879   0.000000   0.000000  -0.025670   0.125335   0.004274
    22  C    0.000606  -0.000000  -0.000000  -0.035554   0.279630   0.242795
    23  H   -0.000005   0.000000  -0.000000  -0.001399  -0.005161   0.305256
    24  H   -0.000008  -0.000000   0.000000  -0.008116  -0.042678  -0.031601
    25  H   -0.000014  -0.000000   0.000000   0.007701  -0.061453  -0.038520
    26  H    0.307182   0.000000  -0.000006  -0.000414  -0.001225  -0.000005
    27  H    0.000408  -0.000000  -0.000002  -0.002189  -0.002294   0.000006
    28  O    0.000003  -0.000089   0.000002   0.000007  -0.000046  -0.000000
              19         20         21         22         23         24
     1  H   -0.000085  -0.001662   0.005372  -0.000016   0.000000  -0.000004
     2  C   -0.000008   0.000027  -0.001913   0.000086  -0.000000  -0.000046
     3  C   -0.000308   0.000117   0.006309  -0.000022  -0.000001  -0.000080
     4  C   -0.002682   0.007628  -0.054887  -0.000818  -0.000024  -0.001590
     5  C    0.001381  -0.001759   0.012740  -0.000614   0.000007   0.001048
     6  O   -0.000000   0.000003   0.000011   0.000001  -0.000000  -0.000000
     7  C    0.000009   0.000006   0.000271   0.000003   0.000000   0.000003
     8  C   -0.004021  -0.014741   0.177605  -0.001641   0.000091   0.001771
     9  C   -0.000000  -0.000001   0.000004  -0.000000  -0.000000  -0.000000
    10  H   -0.000004  -0.000052   0.000225  -0.000000  -0.000000  -0.000000
    11  H   -0.000000  -0.000000   0.000000   0.000000  -0.000000  -0.000000
    12  O    0.000617   0.160090  -0.191197   0.000406  -0.000001  -0.000035
    13  O    0.001744   0.002104  -0.042879   0.000606  -0.000005  -0.000008
    14  O   -0.000000   0.000000   0.000000  -0.000000   0.000000  -0.000000
    15  O   -0.000000   0.000000   0.000000  -0.000000  -0.000000   0.000000
    16  H   -0.029345   0.002352  -0.025670  -0.035554  -0.001399  -0.008116
    17  C    0.405948  -0.009112   0.125335   0.279630  -0.005161  -0.042678
    18  O    0.002831   0.000089   0.004274   0.242795   0.305256  -0.031601
    19  H    0.486267  -0.002196  -0.026643  -0.022181   0.004216   0.006218
    20  H   -0.002196   0.250902   0.155766  -0.001504  -0.000028  -0.000451
    21  O   -0.026643   0.155766   8.140114  -0.019205  -0.000072   0.002026
    22  C   -0.022181  -0.001504  -0.019205   4.810725  -0.030268   0.410507
    23  H    0.004216  -0.000028  -0.000072  -0.030268   0.374707   0.008554
    24  H    0.006218  -0.000451   0.002026   0.410507   0.008554   0.536827
    25  H   -0.009015   0.002731   0.004978   0.438362  -0.011208  -0.038735
    26  H   -0.000098  -0.000447   0.001806   0.000023   0.000001   0.000007
    27  H    0.000207  -0.000311   0.007620   0.000757   0.000003   0.000810
    28  O   -0.000000   0.000001   0.000014   0.000011  -0.000000  -0.000009
              25         26         27         28
     1  H    0.000018  -0.000123  -0.000025  -0.000000
     2  C    0.000009   0.000025  -0.012623   0.734640
     3  C    0.000028  -0.004846   0.004203   0.001860
     4  C   -0.000426   0.009246  -0.027071   0.015016
     5  C    0.000011   0.002311   0.391478  -0.121145
     6  O   -0.000000   0.000004   0.003554  -0.095341
     7  C   -0.000002   0.000034   0.001138  -0.001217
     8  C    0.001246  -0.024992  -0.018671  -0.000589
     9  C   -0.000000   0.000059   0.000094   0.000388
    10  H    0.000000  -0.000049  -0.000086   0.000033
    11  H   -0.000000   0.000000   0.000000  -0.000006
    12  O   -0.000104   0.002711   0.000450   0.000004
    13  O   -0.000014   0.307182   0.000408   0.000003
    14  O   -0.000000   0.000000  -0.000000  -0.000089
    15  O    0.000000  -0.000006  -0.000002   0.000002
    16  H    0.007701  -0.000414  -0.002189   0.000007
    17  C   -0.061453  -0.001225  -0.002294  -0.000046
    18  O   -0.038520  -0.000005   0.000006  -0.000000
    19  H   -0.009015  -0.000098   0.000207  -0.000000
    20  H    0.002731  -0.000447  -0.000311   0.000001
    21  O    0.004978   0.001806   0.007620   0.000014
    22  C    0.438362   0.000023   0.000757   0.000011
    23  H   -0.011208   0.000001   0.000003  -0.000000
    24  H   -0.038735   0.000007   0.000810  -0.000009
    25  H    0.547107  -0.000011  -0.000139  -0.000000
    26  H   -0.000011   0.296255   0.000088   0.000002
    27  H   -0.000139   0.000088   0.436377   0.004646
    28  O   -0.000000   0.000002   0.004646   7.790409
 Mulliken charges:
               1
     1  H    0.429458
     2  C    0.306920
     3  C   -0.205641
     4  C    0.008788
     5  C   -0.160509
     6  O   -0.185085
     7  C    0.187467
     8  C    0.374275
     9  C    0.344201
    10  H    0.228982
    11  H    0.381382
    12  O   -0.378179
    13  O   -0.402945
    14  O   -0.387915
    15  O   -0.341922
    16  H    0.195190
    17  C   -0.143228
    18  O   -0.498534
    19  H    0.187149
    20  H    0.450448
    21  O   -0.282003
    22  C   -0.072091
    23  H    0.355333
    24  H    0.155584
    25  H    0.157437
    26  H    0.412463
    27  H    0.211572
    28  O   -0.328596
 Sum of Mulliken charges =   1.00000
 Mulliken charges with hydrogens summed into heavy atoms:
               1
     2  C    0.306920
     3  C    0.023341
     4  C    0.008788
     5  C    0.051063
     6  O   -0.185085
     7  C    0.187467
     8  C    0.374275
     9  C    0.344201
    12  O    0.501727
    13  O    0.009518
    14  O   -0.006532
    15  O   -0.341922
    17  C    0.239111
    18  O   -0.143202
    21  O   -0.282003
    22  C    0.240930
    28  O   -0.328596
 Electronic spatial extent (au):  <R**2>=         259067.8919
 Charge=              1.0000 electrons
 Dipole moment (field-independent basis, Debye):
    X=             32.2816    Y=             84.3526    Z=             68.8411  Tot=            113.5630
 Quadrupole moment (field-independent basis, Debye-Ang):
   XX=            102.2380   YY=           1414.2949   ZZ=            890.7177
   XY=            566.9790   XZ=            447.5157   YZ=           1202.2562
 Traceless Quadrupole moment (field-independent basis, Debye-Ang):
   XX=           -700.1789   YY=            611.8780   ZZ=             88.3008
   XY=            566.9790   XZ=            447.5157   YZ=           1202.2562
 Octapole moment (field-independent basis, Debye-Ang**2):
  XXX=           -174.0604  YYY=          22218.0005  ZZZ=          10449.5524  XYY=           9648.1283
  XXY=           1594.9455  XXZ=           1484.4929  XZZ=           5795.3714  YZZ=          15320.8788
  YYZ=          20129.7504  XYZ=           7800.8297
 Hexadecapole moment (field-independent basis, Debye-Ang**3):
 XXXX=          -6781.6339 YYYY=         309866.9891 ZZZZ=         107528.5735 XXXY=          -5652.2974
 XXXZ=          -1521.9809 YYYX=         157123.1509 YYYZ=         317331.6875 ZZZX=          70183.8015
 ZZZY=         174460.1193 XXYY=          21696.1782 XXZZ=          19398.3959 YYZZ=         251023.5174
 XXYZ=          23145.6672 YYXZ=         131780.9550 ZZXY=          99660.6317
 N-N= 1.264892200050D+03 E-N=-4.740235051880D+03  KE= 9.468339195083D+02
   1 Symmetry operations used in ECPInt.
 ECPInt:  NShTT=   26796 NPrTT=   83028 LenC2=   23065 LenP2D=   51279.
 LDataN:  DoStor=T MaxTD1= 7 Len=  274
 D1PCM: PCM CHGder 1st derivatives, ID1Alg=3 FixD1E=F DoIter=F DoCFld=F I1PDM=0.
 Calling FoFJK, ICntrl=      2127 FMM=F ISym2X=0 I1Cent= 0 IOpClX= 0 NMat=1 NMatS=1 NMatT=0.
 -------------------------------------------------------------------
 Center     Atomic                   Forces (Hartrees/Bohr)
 Number     Number              X              Y              Z
 -------------------------------------------------------------------
      1        1          -0.002798215   -0.000485383   -0.002075465
      2        6           0.006989516   -0.002453487    0.004183720
      3        6          -0.001922980    0.004527418   -0.001370689
      4        6          -0.005883466    0.002500839   -0.003031638
      5        6           0.002648651   -0.001440326    0.001378791
      6        8          -0.002945963    0.000358402   -0.001683804
      7        6           0.007095732   -0.006273761    0.004532829
      8        6          -0.002554511    0.000833545    0.000602781
      9        6           0.001002568   -0.004312796    0.001014345
     10        1          -0.005500653   -0.002146219   -0.002879015
     11        1          -0.000652770   -0.001312389   -0.000265076
     12        8           0.001978658    0.001519870    0.000711850
     13        8           0.003755988    0.001496055   -0.002817308
     14        8          -0.000720588    0.002864127   -0.000686013
     15        8          -0.000867886    0.000082265   -0.000518723
     16        1          -0.000076041   -0.001700965    0.005081925
     17        6           0.007356343   -0.000295871   -0.004938502
     18        8           0.003247241   -0.003645666   -0.000656848
     19        1          -0.005415631    0.000839001   -0.001669275
     20        1           0.000819328   -0.001143935   -0.000302961
     21        8          -0.003213564   -0.000493158    0.001578459
     22        6          -0.008136787    0.006559017    0.008107330
     23        1          -0.001317286    0.000094441   -0.001395485
     24        1           0.005219168   -0.002225084    0.000889674
     25        1           0.000711848    0.000767012   -0.005869996
     26        1          -0.000418997   -0.001107081    0.001961390
     27        1           0.002301841    0.006025291    0.000585156
     28        8          -0.000701544    0.000568839   -0.000467453
 -------------------------------------------------------------------
 Cartesian Forces:  Max     0.008136787 RMS     0.003243209

 GradGradGradGradGradGradGradGradGradGradGradGradGradGradGradGradGradGrad
 Berny optimization.
 FormGI is forming the generalized inverse of G from B-inverse, IUseBI=4.
 Internal  Forces:  Max     0.009792338 RMS     0.001981925
 Search for a saddle point.
 Step number   1 out of a maximum of  155
 All quantities printed in internal units (Hartrees-Bohrs-Radians)
 Swapping is turned off.
 Second derivative matrix not updated -- first step.
 ITU=  0
     Eigenvalues ---   -0.06742   0.00097   0.00285   0.00318   0.00420
     Eigenvalues ---    0.00477   0.00524   0.00664   0.00794   0.00877
     Eigenvalues ---    0.01491   0.01643   0.01892   0.01981   0.02109
     Eigenvalues ---    0.02211   0.02544   0.02699   0.04257   0.04811
     Eigenvalues ---    0.04902   0.05229   0.05453   0.05983   0.06529
     Eigenvalues ---    0.06811   0.07011   0.07507   0.08567   0.10471
     Eigenvalues ---    0.10520   0.10951   0.11422   0.11910   0.12171
     Eigenvalues ---    0.13467   0.14685   0.14924   0.15651   0.16012
     Eigenvalues ---    0.17056   0.17715   0.17903   0.20163   0.20558
     Eigenvalues ---    0.21734   0.22415   0.23026   0.24328   0.25035
     Eigenvalues ---    0.25251   0.25370   0.28481   0.30209   0.32180
     Eigenvalues ---    0.33159   0.33641   0.34230   0.34683   0.34967
     Eigenvalues ---    0.35217   0.35632   0.37185   0.37838   0.38353
     Eigenvalues ---    0.40935   0.44007   0.44282   0.49229   0.49618
     Eigenvalues ---    0.51955   0.52652   0.53908   0.54490   0.57640
     Eigenvalues ---    0.59253   0.95971   0.97564
 Eigenvectors required to have negative eigenvalues:
                          R27       R19       R13       R15       A28
   1                    0.65977  -0.64113   0.15451  -0.15096   0.14108
                          A41       A40       A27       D44       D48
   1                    0.12343  -0.11466  -0.07386  -0.07222  -0.06451
 RFO step:  Lambda0=1.367423266D-05 Lambda=-1.56902761D-03.
 Linear search not attempted -- option 19 set.
 Iteration  1 RMS(Cart)=  0.02063696 RMS(Int)=  0.00013432
 Iteration  2 RMS(Cart)=  0.00023484 RMS(Int)=  0.00002652
 Iteration  3 RMS(Cart)=  0.00000003 RMS(Int)=  0.00002652
 Variable       Old X    -DE/DX   Delta X   Delta X   Delta X     New X
                                 (Linear)    (Quad)   (Total)
    R1        1.85092  -0.00347   0.00000  -0.00648  -0.00648   1.84444
    R2        2.76865  -0.00539   0.00000  -0.01322  -0.01322   2.75543
    R3        2.60776  -0.00287   0.00000  -0.00782  -0.00782   2.59994
    R4        2.25794   0.00079   0.00000   0.00320   0.00320   2.26114
    R5        2.71990  -0.00479   0.00000  -0.00934  -0.00934   2.71055
    R6        2.54856  -0.00979   0.00000  -0.01774  -0.01774   2.53082
    R7        2.05875  -0.00654   0.00000  -0.01724  -0.01724   2.04151
    R8        2.55337  -0.00935   0.00000  -0.01625  -0.01625   2.53712
    R9        2.84704  -0.00152   0.00000  -0.00446  -0.00446   2.84258
   R10        2.05740  -0.00647   0.00000  -0.01712  -0.01712   2.04029
   R11        2.52843  -0.00022   0.00000   0.00517   0.00517   2.53359
   R12        2.84054  -0.00294   0.00000  -0.00934  -0.00934   2.83120
   R13        2.75572  -0.00103   0.00000  -0.00169  -0.00172   2.75401
   R14        2.51736   0.00344   0.00000   0.00809   0.00809   2.52545
   R15        2.73657   0.00075   0.00000  -0.00129  -0.00126   2.73531
   R16        2.49514   0.00227   0.00000   0.00559   0.00559   2.50073
   R17        2.26761  -0.00095   0.00000  -0.00100  -0.00100   2.26661
   R18        1.83761  -0.00147   0.00000  -0.00314  -0.00314   1.83446
   R19        2.32309   0.00064   0.00000  -0.00689  -0.00691   2.31618
   R20        1.83506  -0.00229   0.00000  -0.00454  -0.00454   1.83052
   R21        2.07349  -0.00534   0.00000  -0.01560  -0.01560   2.05789
   R22        2.07330  -0.00572   0.00000  -0.01674  -0.01674   2.05656
   R23        2.74243   0.00062   0.00000   0.00718   0.00718   2.74961
   R24        2.87405  -0.00102   0.00000  -0.00472  -0.00472   2.86933
   R25        2.64404   0.00443   0.00000   0.01597   0.01597   2.66002
   R26        1.82351  -0.00165   0.00000  -0.00351  -0.00351   1.82000
   R27        2.36873  -0.00055   0.00000   0.01157   0.01159   2.38031
   R28        2.07608  -0.00566   0.00000  -0.01712  -0.01712   2.05896
   R29        2.08347  -0.00584   0.00000  -0.01830  -0.01830   2.06518
    A1        2.01105   0.00131   0.00000   0.00952   0.00953   2.02058
    A2        2.20433   0.00007   0.00000  -0.00464  -0.00464   2.19969
    A3        2.06781  -0.00138   0.00000  -0.00489  -0.00489   2.06292
    A4        2.04222   0.00084   0.00000   0.00301   0.00301   2.04523
    A5        2.15788  -0.00105   0.00000  -0.00702  -0.00701   2.15086
    A6        2.08303   0.00021   0.00000   0.00401   0.00402   2.08704
    A7        2.11009   0.00107   0.00000   0.00154   0.00154   2.11163
    A8        2.05434  -0.00094   0.00000  -0.00265  -0.00265   2.05169
    A9        2.11875  -0.00013   0.00000   0.00112   0.00112   2.11986
   A10        2.10203  -0.00045   0.00000  -0.00333  -0.00332   2.09871
   A11        2.03296   0.00007   0.00000  -0.00096  -0.00096   2.03200
   A12        2.14819   0.00038   0.00000   0.00428   0.00428   2.15247
   A13        2.15135  -0.00331   0.00000  -0.01206  -0.01206   2.13929
   A14        2.14957   0.00054   0.00000   0.00133   0.00132   2.15089
   A15        2.11699   0.00085   0.00000   0.00572   0.00572   2.12271
   A16        2.01663  -0.00140   0.00000  -0.00705  -0.00705   2.00958
   A17        1.93699  -0.00021   0.00000  -0.00207  -0.00208   1.93491
   A18        2.03722  -0.00031   0.00000  -0.00158  -0.00158   2.03564
   A19        1.96493   0.00014   0.00000   0.00314   0.00312   1.96805
   A20        1.91169   0.00021   0.00000  -0.00197  -0.00199   1.90971
   A21        1.58333  -0.00022   0.00000   0.00176   0.00178   1.58511
   A22        1.97730   0.00040   0.00000   0.00112   0.00113   1.97843
   A23        1.96376  -0.00022   0.00000  -0.00017  -0.00017   1.96359
   A24        2.12568   0.00052   0.00000   0.00328   0.00328   2.12896
   A25        2.19375  -0.00030   0.00000  -0.00311  -0.00311   2.19064
   A26        1.95926  -0.00078   0.00000  -0.00683  -0.00683   1.95242
   A27        2.06613  -0.00038   0.00000  -0.01254  -0.01256   2.05357
   A28        1.36070   0.00048   0.00000   0.00177   0.00172   1.36242
   A29        1.97282   0.00002   0.00000  -0.00112  -0.00112   1.97170
   A30        1.89816   0.00041   0.00000   0.00068   0.00068   1.89883
   A31        1.92020  -0.00021   0.00000   0.00530   0.00528   1.92548
   A32        1.87651   0.00035   0.00000  -0.00182  -0.00181   1.87471
   A33        1.93305   0.00072   0.00000   0.00594   0.00592   1.93897
   A34        1.90109   0.00091   0.00000   0.00233   0.00231   1.90340
   A35        1.95621   0.00020   0.00000  -0.00040  -0.00042   1.95579
   A36        1.87422  -0.00200   0.00000  -0.01189  -0.01190   1.86231
   A37        1.90112   0.00180   0.00000   0.00705   0.00705   1.90817
   A38        1.96868  -0.00053   0.00000  -0.00208  -0.00204   1.96663
   A39        2.10329  -0.00055   0.00000  -0.00885  -0.00899   2.09430
   A40        1.35475   0.00017   0.00000  -0.00356  -0.00364   1.35111
   A41        2.26329  -0.00016   0.00000  -0.01098  -0.01109   2.25220
   A42        1.91220  -0.00017   0.00000  -0.00494  -0.00494   1.90726
   A43        1.90422   0.00068   0.00000   0.00934   0.00929   1.91351
   A44        1.91287   0.00068   0.00000   0.00640   0.00633   1.91920
   A45        1.88389  -0.00046   0.00000  -0.00874  -0.00872   1.87517
   A46        1.96840  -0.00081   0.00000  -0.01217  -0.01217   1.95624
   A47        1.88096   0.00012   0.00000   0.01084   0.01070   1.89166
    D1       -0.00745   0.00001   0.00000   0.00118   0.00118  -0.00626
    D2        3.13239   0.00003   0.00000   0.00021   0.00021   3.13260
    D3        3.13432  -0.00000   0.00000   0.00123   0.00123   3.13555
    D4       -0.00903   0.00002   0.00000   0.00025   0.00026  -0.00877
    D5       -0.00162   0.00001   0.00000   0.00018   0.00018  -0.00144
    D6        3.13981   0.00002   0.00000   0.00013   0.00013   3.13995
    D7       -0.00335  -0.00000   0.00000   0.00049   0.00049  -0.00285
    D8       -3.14069  -0.00006   0.00000  -0.00345  -0.00344   3.13906
    D9        3.12589  -0.00001   0.00000   0.00152   0.00152   3.12741
   D10       -0.01145  -0.00007   0.00000  -0.00241  -0.00241  -0.01387
   D11       -0.00595  -0.00001   0.00000   0.00084   0.00085  -0.00511
   D12        3.13391  -0.00002   0.00000   0.00020   0.00020   3.13411
   D13       -3.13574   0.00002   0.00000  -0.00006  -0.00006  -3.13580
   D14        0.00412  -0.00000   0.00000  -0.00071  -0.00071   0.00341
   D15        0.00994  -0.00000   0.00000  -0.00151  -0.00152   0.00842
   D16       -3.12978  -0.00002   0.00000  -0.00046  -0.00046  -3.13025
   D17       -3.13607   0.00006   0.00000   0.00256   0.00257  -3.13350
   D18        0.00740   0.00004   0.00000   0.00361   0.00362   0.01102
   D19        1.32079  -0.00008   0.00000  -0.02626  -0.02627   1.29452
   D20       -0.88600   0.00007   0.00000  -0.02028  -0.02028  -0.90628
   D21        3.06651  -0.00037   0.00000  -0.02376  -0.02376   3.04275
   D22       -1.81653  -0.00014   0.00000  -0.03022  -0.03023  -1.84676
   D23        2.25987   0.00001   0.00000  -0.02424  -0.02423   2.23563
   D24       -0.07081  -0.00043   0.00000  -0.02772  -0.02771  -0.09852
   D25        0.00852  -0.00001   0.00000  -0.00122  -0.00122   0.00730
   D26       -3.13143  -0.00000   0.00000  -0.00062  -0.00062  -3.13206
   D27        3.14106   0.00001   0.00000   0.00140   0.00140  -3.14073
   D28       -0.00044   0.00002   0.00000   0.00154   0.00154   0.00109
   D29       -0.00214  -0.00001   0.00000   0.00081   0.00081  -0.00133
   D30        3.13954   0.00000   0.00000   0.00095   0.00095   3.14049
   D31       -2.14584   0.00013   0.00000  -0.00081  -0.00081  -2.14665
   D32        2.11332   0.00034   0.00000   0.01187   0.01188   2.12519
   D33        0.12870  -0.00028   0.00000  -0.00613  -0.00613   0.12257
   D34       -1.89533  -0.00006   0.00000   0.00655   0.00656  -1.88877
   D35        2.13737   0.00011   0.00000  -0.00458  -0.00456   2.13281
   D36        0.11335   0.00032   0.00000   0.00809   0.00812   0.12147
   D37       -0.35348  -0.00017   0.00000   0.00862   0.00863  -0.34485
   D38       -2.57275   0.00018   0.00000   0.01458   0.01459  -2.55816
   D39        1.97165   0.00015   0.00000   0.01302   0.01301   1.98466
   D40        1.94562   0.00011   0.00000   0.01039   0.01039   1.95600
   D41       -2.08603  -0.00008   0.00000  -0.00632  -0.00631  -2.09234
   D42       -2.36283  -0.00019   0.00000   0.00952   0.00952  -2.35332
   D43       -0.11130  -0.00038   0.00000  -0.00720  -0.00717  -0.11847
   D44       -0.41365   0.00002   0.00000   0.00838   0.00837  -0.40528
   D45        1.83788  -0.00017   0.00000  -0.00834  -0.00832   1.82956
   D46        3.14104   0.00001   0.00000   0.00046   0.00046   3.14150
   D47       -0.00065   0.00000   0.00000   0.00031   0.00031  -0.00033
   D48       -2.04399   0.00018   0.00000  -0.00290  -0.00291  -2.04690
   D49       -0.14221  -0.00045   0.00000  -0.00929  -0.00927  -0.15147
   D50       -1.03718  -0.00033   0.00000   0.00613   0.00619  -1.03099
   D51       -2.77427   0.00005   0.00000   0.02786   0.02782  -2.74645
   D52        1.04307   0.00013   0.00000   0.01270   0.01274   1.05582
   D53       -0.69402   0.00051   0.00000   0.03443   0.03438  -0.65964
   D54       -3.11802  -0.00029   0.00000   0.00649   0.00653  -3.11149
   D55        1.42807   0.00009   0.00000   0.02822   0.02816   1.45624
   D56        1.05030   0.00043   0.00000   0.01265   0.01266   1.06297
   D57       -1.00863   0.00069   0.00000   0.02062   0.02067  -0.98796
   D58       -3.06441  -0.00025   0.00000  -0.00166  -0.00169  -3.06610
   D59       -1.10146   0.00002   0.00000   0.00171   0.00171  -1.09975
   D60        3.12279   0.00028   0.00000   0.00968   0.00972   3.13251
   D61        1.06701  -0.00065   0.00000  -0.01260  -0.01264   1.05437
   D62        3.09451   0.00008   0.00000   0.00674   0.00672   3.10124
   D63        1.03558   0.00033   0.00000   0.01470   0.01473   1.05031
   D64       -1.02020  -0.00060   0.00000  -0.00757  -0.00763  -1.02783
   D65        1.33455  -0.00004   0.00000   0.01340   0.01342   1.34797
   D66       -2.87707   0.00042   0.00000   0.01675   0.01675  -2.86031
   D67       -0.80115  -0.00023   0.00000   0.01711   0.01709  -0.78406
   D68        0.14340   0.00037   0.00000   0.00951   0.00950   0.15290
   D69        2.23003  -0.00025   0.00000  -0.00749  -0.00748   2.22255
         Item               Value     Threshold  Converged?
 Maximum Force            0.009792     0.000450     NO 
 RMS     Force            0.001982     0.000300     NO 
 Maximum Displacement     0.066259     0.001800     NO 
 RMS     Displacement     0.020557     0.001200     NO 
 Predicted change in Energy=-7.896988D-04
 GradGradGradGradGradGradGradGradGradGradGradGradGradGradGradGradGradGrad

                          Input orientation:                          
 ---------------------------------------------------------------------
 Center     Atomic      Atomic             Coordinates (Angstroms)
 Number     Number       Type             X           Y           Z
 ---------------------------------------------------------------------
      1          1           0        6.519708   18.144368   15.641922
      2          6           0        2.975227   20.033327   11.985440
      3          6           0        5.397180   20.539516   13.329447
      4          6           0        4.918098   19.195911   13.179122
      5          6           0        3.762527   18.940979   12.544925
      6          8           0        3.492765   21.295695   12.162900
      7          6           0        4.646082   21.518678   12.809170
      8          6           0        5.756922   18.089293   13.757466
      9          6           0        5.047226   22.958142   12.917078
     10          1           0        6.314516   20.786999   13.843585
     11          1           0        4.486651   24.685294   12.443739
     12          8           0        5.648204   18.060789   15.210484
     13          8           0        7.046675   18.069928   13.407955
     14          8           0        4.175563   23.771323   12.342499
     15          8           0        6.055688   23.296758   13.471151
     16          1           0        5.667709   16.181593   11.773116
     17          6           0        5.666352   15.774079   12.782983
     18          8           0        5.201081   13.564013   12.010140
     19          1           0        6.681748   15.541660   13.098126
     20          1           0        5.269713   16.935552   14.905775
     21          8           0        5.117409   16.794175   13.663427
     22          6           0        4.747796   14.569356   12.884904
     23          1           0        5.963085   13.122251   12.399709
     24          1           0        3.742638   14.847620   12.569690
     25          1           0        4.700740   14.222589   13.920205
     26          1           0        7.227340   18.574793   12.601236
     27          1           0        3.361744   17.946362   12.419212
     28          8           0        1.938647   19.924742   11.397705
 ---------------------------------------------------------------------
                    Distance matrix (angstroms):
                    1          2          3          4          5
     1  H    0.000000
     2  C    5.431516   0.000000
     3  C    3.513451   2.815748   0.000000
     4  C    3.120301   2.429175   1.434362   0.000000
     5  C    4.222324   1.458112   2.417206   1.342587   0.000000
     6  O    5.585412   1.375830   2.357846   2.733747   2.400708
     7  C    4.787580   2.382552   1.339252   2.367721   2.737704
     8  C    2.033728   3.828468   2.513206   1.504230   2.484599
     9  C    5.724106   3.703467   2.478360   3.773556   4.233976
    10  H    3.203064   3.895071   1.080320   2.218797   3.406899
    11  H    7.559458   4.912762   4.336014   5.555202   5.790661
    12  O    0.976034   4.629970   3.121762   2.438850   3.381674
    13  O    2.296486   4.738688   2.970835   2.418892   3.505592
    14  O    6.931366   3.942196   3.593187   4.710170   4.852196
    15  O    5.610230   4.727215   2.838326   4.265717   5.008921
    16  H    4.421091   4.704295   4.635390   3.409527   3.440874
    17  C    3.810514   5.100924   4.804213   3.525017   3.702766
    18  O    5.992352   6.841569   7.101878   5.758895   5.591708
    19  H    3.642972   5.928865   5.165480   4.058395   4.514781
    20  H    1.888290   4.836242   3.935685   2.866040   3.444845
    21  O    2.775591   4.230448   3.770596   2.458173   2.774080
    22  C    4.849900   5.814294   6.021804   4.639027   4.494155
    23  H    6.003619   7.540682   7.496698   6.211990   6.222631
    24  H    5.293324   5.274640   5.975987   4.545410   4.093483
    25  H    4.653311   6.362813   6.382600   5.032929   5.003483
    26  H    3.151473   4.537289   2.782070   2.460151   3.484565
    27  H    4.516393   2.166328   3.419938   2.135667   1.079673
    28  O    6.493784   1.196545   4.008868   3.547079   2.368637
                    6          7          8          9         10
     6  O    0.000000
     7  C    1.340719   0.000000
     8  C    4.236750   3.727453   0.000000
     9  C    2.397679   1.498205   4.991554   0.000000
    10  H    3.323515   2.095004   2.756074   2.679235   0.000000
    11  H    3.543454   3.191617   6.844464   1.876526   4.527402
    12  O    4.939463   4.327534   1.457359   5.441043   3.121635
    13  O    4.958428   4.244439   1.336412   5.304092   2.847509
    14  O    2.574336   2.348102   6.065335   1.323330   3.966683
    15  O    3.504904   2.363637   5.223880   1.199439   2.550409
    16  H    5.571027   5.531871   2.754074   6.900381   5.090674
    17  C    5.966341   5.834557   2.513571   7.211939   5.164723
    18  O    7.919633   8.013936   4.882650   9.439061   7.534773
    19  H    6.644786   6.320773   2.789349   7.596621   5.310758
    20  H    5.449014   5.078357   1.699149   6.346338   4.129590
    21  O    5.015449   4.824193   1.447464   6.209385   4.172310
    22  C    6.880409   6.950478   3.764260   8.394190   6.483268
    23  H    8.541881   8.508945   5.153399   9.891978   7.807474
    24  H    6.465724   6.736214   3.997074   8.222117   6.596484
    25  H    7.387567   7.380399   4.011659   8.799784   6.760298
    26  H    4.641390   3.920790   1.932540   4.905753   2.696394
    27  H    3.361680   3.816154   2.747404   5.310994   4.337848
    28  O    2.209144   3.444280   4.849388   4.601442   5.086654
                   11         12         13         14         15
    11  H    0.000000
    12  O    7.272424   0.000000
    13  O    7.158666   2.281429   0.000000
    14  O    0.970756   6.557760   6.471815   0.000000
    15  O    2.333557   5.532332   5.320319   2.243644   0.000000
    16  H    8.611478   3.917557   2.853077   7.755946   7.325259
    17  C    8.995362   3.334986   2.750782   8.146925   7.564116
    18  O   11.152637   5.537429   5.065903  10.264080   9.878828
    19  H    9.426172   3.446198   2.573190   8.635930   7.789265
    20  H    8.169046   1.225669   2.586092   7.382095   6.568170
    21  O    8.009698   2.068681   2.326989   7.163277   6.572741
    22  C   10.128920   4.290590   4.220477   9.235684   8.844309
    23  H   11.657005   5.691113   5.164323  10.798206  10.231185
    24  H    9.866573   4.574870   4.690695   8.937087   8.806292
    25  H   10.568537   4.158640   4.535176   9.692435   9.185754
    26  H    6.698837   3.092903   0.968671   6.031934   4.942315
    27  H    6.832220   3.610013   3.817276   5.882037   6.081994
    28  O    5.499942   5.636703   5.794254   4.548913   5.711365
                   16         17         18         19         20
    16  H    0.000000
    17  C    1.088990   0.000000
    18  O    2.669391   2.387082   0.000000
    19  H    1.787020   1.088284   2.699477   0.000000
    20  H    3.246599   2.452058   4.444850   2.684096   0.000000
    21  O    2.061883   1.455031   3.629643   2.082190   1.259608
    22  C    2.163705   1.518384   1.407621   2.175088   3.155186
    23  H    3.136788   2.695764   0.963103   2.618741   4.615451
    24  H    2.473846   2.145809   2.021831   3.065828   3.485500
    25  H    3.063122   2.152394   2.081445   2.517966   2.941979
    26  H    2.974161   3.211497   5.437190   3.121613   3.439523
    27  H    2.974781   3.187846   4.770271   4.155231   3.293187
    28  O    5.296980   5.748285   7.174778   6.678312   5.686635
                   21         22         23         24         25
    21  O    0.000000
    22  C    2.385902   0.000000
    23  H    3.974314   1.951014   0.000000
    24  H    2.622085   1.089556   2.817121   0.000000
    25  H    2.617747   1.092845   2.261894   1.769891   0.000000
    26  H    2.958152   4.719336   5.600818   5.102545   5.202409
    27  H    2.440895   3.679970   5.480821   3.125688   4.232301
    28  O    5.003846   6.227619   7.967057   5.514083   6.819583
                   26         27         28
    26  H    0.000000
    27  H    3.920573   0.000000
    28  O    5.589376   2.642474   0.000000
 Symmetry turned off by external request.
 Stoichiometry    C9H11O8(1+)
 Framework group  C1[X(C9H11O8)]
 Deg. of freedom    78
 Full point group                 C1      NOp   1
 Rotational constants (GHZ):           0.8960563           0.2243271           0.1904729
 Standard basis: def2TZVP (5D, 7F)
   593 basis functions,   955 primitive gaussians,   678 cartesian basis functions
    64 alpha electrons       64 beta electrons
       nuclear repulsion energy      1266.9647777149 Hartrees.
 NAtoms=   28 NActive=   28 NUniq=   28 SFac= 1.00D+00 NAtFMM=   60 NAOKFM=F Big=F
 Integral buffers will be    131072 words long.
 Raffenetti 2 integral format.
 Two-electron integral symmetry is turned off.
 ------------------------------------------------------------------------------
 Polarizable Continuum Model (PCM)
 =================================
 Model                : PCM.
 Atomic radii         : UFF (Universal Force Field).
 Polarization charges : Total charges.
 Charge compensation  : None.
 Solution method      : On-the-fly selection.
 Cavity type          : Scaled VdW (van der Waals Surface) (Alpha=1.100).
 Cavity algorithm     : GePol (No added spheres)
                        Default sphere list used, NSphG=   28.
                        Lebedev-Laikov grids with approx.  7.0 points / Ang**2.
                        Smoothing algorithm: York/Karplus (Gamma=1.0000).
                        Polarization charges: spherical gaussians, with
                                              point-specific exponents (IZeta= 3).
                        Self-potential: point-specific (ISelfS= 7).
[...]
 985657,0.13927298,0.30473611,-0.00043777,0.00020123,0.00001020,0.00039
 567,-0.00024020,0.00027755,-0.00039052,0.00022125,-0.00032048,0.001046
 01,0.00046129,0.00042577,-0.00010931,0.00022953,-0.00009083,-0.0001364
 3,0.00000938,-0.00008989,0.00021922,0.00020061,0.00012053,-0.00587898,
 -0.00064762,0.00262269,-0.00010244,-0.00025856,-0.00002517,-0.00000422
 ,-0.00004985,-0.00000038,-0.00000236,-0.00000876,-0.00000265,0.0015040
 7,0.00221090,0.00231491,0.00158912,-0.00089926,-0.00107556,-0.00002296
 ,0.00013554,-0.00002471,0.00006893,0.00011289,0.00003069,-0.00089281,-
 0.00015543,0.00029178,-0.14696900,-0.07599388,0.00586414,-0.09791546,0
 .04393697,0.00785402,-0.01775147,-0.02683531,0.00404731,-0.00018619,-0
 .00092680,-0.00242564,0.01093281,0.02495675,0.00341436,0.60013648,-0.0
 0029293,0.00013049,-0.00035669,0.00055154,-0.00026223,0.00035041,-0.00
 025363,0.00015719,-0.00016251,0.00035736,-0.00014649,0.00022259,-0.000
 21743,0.00016821,-0.00019332,-0.00018829,0.00009686,-0.00012535,0.0002
 0945,0.00016651,0.00012007,0.00023471,-0.00241843,-0.00039767,-0.00010
 588,-0.00037089,-0.00002724,-0.00000806,-0.00006261,-0.00000859,-0.000
 00206,-0.00001520,0.00000022,0.00130086,0.00254052,0.00136196,0.000789
 44,0.00197770,0.00017488,-0.00003059,0.00016570,-0.00003251,0.00009763
 ,0.00015948,0.00004322,-0.00998415,-0.00939688,0.00084094,-0.06618020,
 -0.13893979,0.02309878,0.06139791,-0.16363151,-0.06645689,0.00434206,0
 .00728613,0.00028946,-0.00127530,-0.00204849,-0.00414693,-0.00838942,-
 0.02475840,-0.00217491,-0.04486430,0.49654622,0.00016617,-0.00012325,-
 0.00016261,-0.00005121,0.00004193,-0.00002966,0.00016585,-0.00010314,0
 .00009553,-0.00040269,-0.00038679,-0.00022207,0.00005003,-0.00010883,-
 0.00002189,0.00003122,-0.00000330,0.00001636,-0.00007694,-0.00005966,-
 0.00003025,0.00319702,-0.00014517,-0.00215426,0.00003102,0.00005115,0.
 00001556,0.00000005,0.00001045,-0.00000202,0.00000106,0.00000112,0.000
 00166,-0.00051015,-0.00041308,-0.00162964,-0.00041853,0.00070028,0.000
 87119,0.00000303,-0.00003160,0.00000238,-0.00001688,-0.00002503,-0.000
 00955,0.02097089,0.02597073,-0.00008318,0.00890875,0.03367174,-0.08064
 226,0.03756962,-0.09779453,-0.15558585,-0.00639115,-0.00919989,0.00199
 407,-0.00102611,-0.00166276,0.00004584,-0.01056544,-0.02997019,-0.0038
 6536,0.03150700,-0.04488609,0.59747872,0.00003033,-0.00001596,0.000004
 81,-0.00002732,0.00001981,-0.00002146,0.00002678,-0.00001442,0.0000172
 1,-0.00006051,-0.00002152,-0.00002570,0.00000615,-0.00001040,0.0000125
 9,0.00000942,-0.00000707,0.00000684,-0.00001572,-0.00001458,-0.0000088
 8,0.00032587,0.00022040,-0.00009483,0.00001074,0.00002410,0.00000309,0
 .00000051,0.00000338,-0.00000008,0.00000062,0.00000077,-0.00000026,-0.
 00011939,-0.00019134,-0.00017152,-0.00013405,-0.00000718,0.00005367,0.
 00000053,-0.00001077,0.00000196,-0.00000845,-0.00001075,-0.00000311,-0
 .00003985,-0.00006272,-0.00002181,0.00258700,-0.00007212,-0.00023751,-
 0.31500441,0.19681790,-0.15973265,-0.00029075,0.00022182,-0.00051361,0
 .00005937,0.00014923,0.00022868,-0.00054609,-0.00122976,-0.00048947,-0
 .01327426,0.00487710,-0.00611408,0.32488577,-0.00005071,0.00001559,-0.
 00004979,0.00009029,-0.00004812,0.00005506,-0.00005702,0.00003142,-0.0
 0004471,0.00011525,0.00005804,0.00005996,-0.00002631,0.00003452,-0.000
 02329,-0.00003113,0.00001283,-0.00002002,0.00004112,0.00003370,0.00002
 305,-0.00055926,-0.00062398,-0.00011331,-0.00001989,-0.00006423,-0.000
 00543,-0.00000068,-0.00001036,-0.00000087,-0.00000025,-0.00000281,-0.0
 0000041,0.00019602,0.00035904,0.00023824,0.00019246,0.00018218,-0.0000
 3030,-0.00000553,0.00002998,-0.00000534,0.00001668,0.00002773,0.000007
 92,-0.00009392,0.00020529,-0.00003514,0.00244757,-0.00223453,0.0002695
 3,0.17622107,-0.12461273,0.06993647,-0.00086154,-0.00040359,-0.0002759
 7,-0.00011382,-0.00036319,-0.00056525,-0.00047240,0.00145013,0.0005273
 4,0.02541790,-0.01841199,0.01179635,-0.20094419,0.14377737,0.00001360,
 -0.00001032,0.00000560,-0.00001986,0.00000883,-0.00001335,0.00001189,-
 0.00000593,0.00000444,-0.00001774,-0.00000185,-0.00001544,0.00000117,-
 0.00000169,0.00001362,0.00000660,-0.00000388,0.00000411,-0.00000753,-0
 .00000597,-0.00000453,0.00007821,0.00013447,-0.00003289,0.00000343,0.0
 0001350,0.00000254,-0.00000018,0.00000147,0.00000105,-0.00000022,0.000
 00062,0.00000037,-0.00004612,-0.00008039,-0.00009331,-0.00005085,-0.00
 003612,0.00001596,0.00000131,-0.00000587,0.00000050,-0.00000321,-0.000
 00580,-0.00000235,-0.00007968,0.00006881,-0.00006766,0.00079552,0.0001
 6177,-0.00009653,-0.19513727,0.10317441,-0.13011415,-0.00079712,-0.000
 11634,-0.00011277,0.00002550,0.00001607,0.00010065,-0.00029081,-0.0004
 3724,-0.00014356,0.02670020,-0.01915775,0.00696124,0.16559046,-0.07918
 367,0.12492351,0.00001622,-0.00000581,0.00002888,-0.00003714,0.0000200
 6,-0.00002564,0.00002830,-0.00001357,0.00002004,-0.00005529,-0.0000193
 2,-0.00003408,0.00001911,-0.00002244,0.00000682,0.00001482,0.00000310,
 0.00001035,-0.00001773,-0.00001248,-0.00001125,-0.00002071,-0.00008602
 ,0.00014171,0.00000641,0.00002172,0.00000085,0.00000107,0.00000813,0.0
 0000129,0.00000012,0.00000078,0.00000005,-0.00008505,-0.00007201,-0.00
 007298,0.00011997,-0.00018472,-0.00013208,0.00000266,-0.00001152,0.000
 00259,-0.00000453,-0.00000920,-0.00000168,0.00104283,0.00047277,0.0001
 7382,-0.02129823,0.00333667,-0.00736278,-0.00886141,0.00976373,0.00075
 898,-0.00078654,-0.00300249,0.00072171,0.00001793,0.00010260,0.0002022
 1,0.00099095,0.00007797,-0.00021244,-0.27527712,0.05978505,-0.07870534
 ,0.00062350,-0.00051013,0.00202839,0.30008531,-0.00002217,0.00000415,0
 .00001852,0.00012375,0.00001886,0.00008263,0.00000860,0.00001746,-0.00
 000708,0.00003572,0.00001106,-0.00000343,-0.00012074,-0.00010543,-0.00
 004338,-0.00003052,0.00004562,-0.00002464,0.00002573,0.00002493,0.0000
 1347,-0.00044741,-0.00018920,0.00021236,-0.00001484,-0.00006262,-0.000
 00179,0.00000032,0.00001252,0.00000050,0.,-0.00000261,0.00000024,0.000
 04376,0.00017665,0.00014906,0.00025463,-0.00040051,-0.00015538,-0.0000
 0449,0.00002359,-0.00000491,0.00001785,0.00002620,0.00000800,0.0008229
 5,0.00137805,0.00016286,-0.02881890,0.00609640,-0.00969152,0.03097601,
 -0.01641016,0.00410348,-0.00261311,-0.00456770,0.00007134,-0.00003579,
 -0.00009265,-0.00011005,0.00074503,0.00222061,0.00070944,0.05500586,-0
 .06455745,0.02299184,0.00209590,-0.00179380,-0.00435513,-0.06842982,0.
 08093764,0.00000609,-0.00000049,-0.00000414,-0.00000744,0.00000173,-0.
 00000837,-0.00000039,-0.00000336,0.00000349,-0.00000715,-0.00000584,-0
 .00000631,-0.00000209,0.00000767,-0.00000156,0.00000215,0.00000092,0.0
 0000288,-0.00000240,-0.00000285,-0.00000408,0.00007537,0.00000525,-0.0
 0001598,0.00000041,0.00000549,0.00000089,0.00000013,-0.00000053,0.0000
 0062,-0.00000016,0.00000019,0.00000023,-0.00001345,-0.00002479,-0.0000
 1641,0.00002016,0.00003186,0.00001478,0.00000082,-0.00000224,0.0000002
 0,-0.00000072,-0.00000215,-0.00000097,0.00031395,-0.00069955,0.0005761
 7,0.00441320,0.00066289,0.00162432,0.02455038,-0.01263776,0.00733626,0
 .00082787,0.00016502,0.00091520,-0.00004936,0.00009528,-0.00000038,-0.
 00045206,-0.00021641,-0.00010894,-0.08799812,0.02698530,-0.08405080,0.
 00286598,-0.00263879,-0.00235904,0.08256730,-0.01835937,0.08351398,0.0
 0001839,-0.00002242,0.00001941,-0.00002861,0.00001801,-0.00002226,-0.0
 0000085,0.00000210,0.00000771,0.00001652,0.00007581,0.00002229,0.00000
 098,-0.00000771,0.00000782,0.00000687,-0.00000223,0.00000614,-0.000004
 11,-0.00000538,-0.00000508,-0.00015866,0.00020532,-0.00006679,0.000005
 00,0.00001819,0.00000012,0.00000050,0.00000427,0.00000091,0.00000002,0
 .00000078,0.00000001,-0.00012242,-0.00018427,-0.00011777,0.00001673,-0
 .00016087,-0.00011935,0.00000126,-0.00000699,0.00000161,-0.00000497,-0
 .00000765,-0.00000212,-0.00161750,-0.00332338,0.00011688,-0.00125963,-
 0.01143871,0.02154404,0.00014785,0.00197083,0.01512305,0.00097036,0.00
 105938,0.00014449,-0.00024895,-0.00024580,0.00001687,0.00031117,0.0011
 5106,-0.00020704,-0.05624554,-0.00186553,0.00179028,0.00093562,-0.0009
 2525,0.00119442,0.00336696,0.00989759,-0.02717373,0.05383873,0.0000162
 1,-0.00002458,0.00002719,-0.00005327,0.00002611,-0.00003400,0.00000286
 ,0.00000507,0.00000228,0.00001551,0.00008814,0.00001953,0.00000358,0.0
 0001122,0.00002194,0.00001413,-0.00001152,0.00001034,-0.00001035,-0.00
 001183,-0.00000900,-0.00020454,0.00037850,0.00007817,0.00000723,0.0000
 3602,0.00000297,0.00000005,0.00000444,0.00000184,-0.00000008,0.0000016
 6,0.00000014,-0.00014089,-0.00022136,-0.00019567,0.00006881,-0.0002253
 9,-0.00024596,0.00000307,-0.00001416,0.00000249,-0.00000912,-0.0000148
 7,-0.00000498,-0.00325673,-0.00393324,-0.00088164,-0.00103445,-0.01066
 893,0.02672642,0.00568296,0.00264438,-0.03677684,0.00029356,0.00126174
 ,-0.00063894,-0.00014169,-0.00062977,0.00009322,0.00034297,0.00149640,
 0.00022777,-0.00257922,-0.08389719,0.08984782,-0.00182953,0.00238167,-
 0.00021878,-0.00104951,-0.00114961,0.00669897,0.00380296,0.09230466,-0
 .00002613,0.00001560,-0.00000588,0.00003040,-0.00001550,0.00001822,-0.
 00001845,0.00001783,-0.00001832,0.00003786,-0.00000026,0.00001157,-0.0
 0001401,0.00001809,-0.00000764,-0.00001120,0.00000572,-0.00000732,0.00
 001516,0.00001197,0.00000644,-0.00012447,-0.00002341,0.00021061,-0.000
 00750,-0.00002174,-0.00000165,-0.00000030,-0.00000409,-0.00000071,0.00
 000015,-0.00000084,-0.00000059,0.00009177,0.00012475,0.00016699,-0.000
 03050,-0.00000006,-0.00010848,-0.00000209,0.00001041,-0.00000131,0.000
 00581,0.00000986,0.00000316,0.00021451,-0.00083991,0.00081456,-0.00023
 133,0.00074413,-0.00149135,0.00707412,-0.00590501,-0.02380357,0.000176
 50,0.00014035,0.00056244,-0.00012042,0.00013536,-0.00038673,0.00000628
 ,0.00165247,0.00064370,0.00656610,0.08449863,-0.27885369,-0.00134160,0
 .00006042,0.00102891,0.00002066,0.00421069,-0.00740002,-0.01230476,-0.
 08480186,0.30860958,-0.00061924,0.00034750,0.00059353,-0.00182544,0.00
 091968,-0.00082422,0.00005632,0.00014004,0.00038463,-0.00012262,0.0006
 1806,-0.00071241,0.00010810,-0.00132719,0.00005774,0.00094550,-0.00006
 762,0.00056319,-0.00091294,0.00000478,-0.00070418,-0.01800521,-0.02458
 705,0.03909452,0.00028625,0.00123588,0.00014484,0.00045471,-0.00009899
 ,-0.00005967,0.00000909,0.00004425,-0.00000414,-0.00177317,-0.00004993
 ,0.00038727,-0.04461088,-0.01742493,0.04111946,0.00009093,-0.00050300,
 0.00008806,-0.00033118,-0.00053254,-0.00015773,-0.00008313,-0.00039401
 ,-0.00039570,-0.00000732,-0.00000583,0.00020823,-0.00002309,0.00011806
 ,0.00006510,0.00004801,-0.00015687,-0.00003416,-0.00024584,-0.00005463
 ,0.00003459,-0.00383019,-0.00087491,0.00065598,-0.00001101,-0.00020771
 ,-0.00016145,0.00000973,-0.00003235,-0.00000116,0.00003756,0.00003163,
 0.00000846,0.00004125,0.00007241,-0.00000021,0.06904452,0.00051852,0.0
 0002549,0.00106804,0.00045400,0.00094237,0.00041747,-0.00030611,0.0011
 3425,0.00027573,0.00209771,0.00081935,-0.00195348,-0.00009182,-0.00029
 452,0.00000264,-0.00112932,-0.00074383,-0.00075652,0.00081603,-0.00015
 465,0.00093276,-0.00214530,-0.00115615,-0.00166647,-0.00004776,-0.0009
 9305,-0.00010745,-0.00007077,-0.00106962,-0.00077492,-0.00000319,-0.00
 003769,0.00000350,0.00622004,0.00252956,-0.00882103,-0.04547506,-0.152
 30286,0.23789145,-0.00011788,0.00036088,-0.00007575,0.00017128,0.00039
 865,0.00010810,-0.00049164,-0.00031821,-0.00056755,-0.00007887,-0.0000
 9482,0.00059925,-0.00002117,0.00015477,0.00007743,-0.00002339,-0.00005
 799,0.00018465,-0.00044637,-0.00128828,-0.00117600,-0.00261118,-0.0008
 6350,0.00104313,-0.00010170,-0.00029830,-0.00028700,0.00000888,-0.0000
 4003,0.00000568,0.00004918,0.00001211,0.00000792,0.00006842,0.00010877
 ,-0.00000779,0.04313449,0.15342952,0.00023826,0.00014992,0.00015549,0.
 00098643,-0.00044275,-0.00001065,0.00011375,-0.00005320,0.00027998,-0.
 00346534,-0.00121140,0.00214619,-0.00042717,0.00093493,-0.00044403,-0.
 00057077,0.00009131,-0.00039990,0.00036034,-0.00009741,0.00022078,0.00
 385885,0.00490488,-0.00893293,-0.00015648,-0.00062309,0.00005621,0.000
 12719,-0.00077668,-0.00017297,-0.00000391,-0.00002405,0.00000233,0.002
 95730,0.00100319,-0.00065825,0.08343163,0.22629564,-0.34294373,-0.0000
 6211,0.00028420,-0.00006811,0.00014580,0.00029472,0.00003974,0.0002247
 4,-0.00000964,-0.00056183,-0.00047474,0.00100400,0.00146629,-0.0000145
 8,-0.00035518,-0.00012350,0.00001526,-0.00001634,-0.00013920,0.0000464
 3,-0.00068072,-0.00160352,-0.00575213,-0.00514273,0.00103595,0.0002167
 1,0.00032309,-0.00015062,-0.00002000,0.00004876,-0.00000722,-0.0000263
 9,-0.00001460,0.00000341,0.00000527,0.00001464,0.00002302,-0.08099936,
 -0.22604246,0.35089068,-0.00013266,-0.00009851,0.00001132,0.00916283,0
 .01535104,0.00231865,-0.00142733,0.00038750,-0.00617659,-0.00327481,-0
 .02406901,-0.00360282,-0.09192724,-0.10278923,-0.02097700,0.00042991,0
 .00556269,-0.00204877,-0.00176608,0.00001122,-0.00074183,-0.00185966,-
 0.00177106,0.00284784,-0.00045909,0.00001793,0.00061236,0.00013979,-0.
 00106879,-0.00009036,0.00002213,-0.00001612,0.00001330,0.00070062,0.00
 039339,0.00085607,-0.00016427,0.00037751,-0.00035487,0.00008884,0.0000
 0885,-0.00000520,0.00020300,-0.00001056,0.00000086,-0.00037229,0.00008
 865,0.00022763,-0.00116807,0.00105404,-0.00019622,0.00004395,-0.000244
 01,-0.00005558,0.00004404,-0.00012651,0.00003805,-0.00006059,-0.000615
 35,-0.00092954,-0.00000082,0.00075794,0.00053782,0.00004762,0.00030996
 ,-0.00000148,-0.00001225,0.00003175,-0.00001306,0.00003868,0.00050228,
 0.00004760,-0.00000937,-0.00005293,0.00001691,0.00001713,0.00000777,-0
 .00005635,0.09165264,0.00001151,-0.00005711,0.00000932,-0.01011745,-0.
 01425671,-0.00435954,-0.00021742,0.00209156,0.00072610,-0.00142852,0.0
 0099682,-0.00026549,-0.10164695,-0.31334662,-0.03293474,0.00028555,-0.
 00450625,0.00091344,0.00243965,0.00094850,0.00129791,0.00019910,-0.000
 13250,-0.00047157,0.00002180,-0.00055290,-0.00011432,0.00010590,0.0001
 7473,0.00009568,-0.00001638,0.00000206,-0.00000989,-0.00018659,-0.0002
 2704,-0.00013564,-0.00011641,-0.00011337,0.00007879,-0.00009530,0.0000
 7552,-0.00005072,0.00002496,0.00012382,0.00002722,0.00011619,0.0000978
 9,-0.00000906,0.00100702,-0.00019158,0.00044534,-0.00020595,0.00029462
 ,0.00001444,-0.00002698,0.00005677,-0.00011122,0.00014700,0.00036870,0
 .00047878,0.00236826,-0.00138560,0.00136935,0.00039696,-0.00027440,0.0
 0013395,0.00000997,-0.00000649,0.00004442,-0.00020802,-0.00168273,-0.0
 0007325,-0.00007483,0.00006274,-0.00004195,-0.00006625,0.00000233,-0.0
 0002734,0.10718266,0.32942149,0.00005833,0.00019891,-0.00013667,0.0045
 5485,0.01037229,0.00430782,-0.00609395,0.00069252,0.00552831,-0.005614
 62,-0.01351276,0.00462568,-0.02108941,-0.03278360,-0.04620287,-0.00158
 444,0.00378144,0.00190994,-0.00097017,-0.00018170,-0.00107117,0.002728
 53,-0.00099910,-0.00443566,0.00064064,0.00004691,-0.00114476,-0.000191
 72,-0.00057924,0.00039836,0.00001266,-0.00000498,0.00001062,-0.0006794
 8,0.00067737,-0.00077035,0.00124487,-0.00028878,0.00037511,0.00001158,
 -0.00002832,0.00010390,-0.00003645,-0.00003999,0.00018757,0.00036893,0
 .00003200,-0.00003066,-0.00034995,0.00069689,0.00035016,0.00001653,-0.
 00007820,-0.00003021,0.00005680,-0.00008470,-0.00013043,-0.00022498,-0
 .00040771,-0.00058287,-0.00032449,0.00028558,-0.00009525,-0.00000989,0
 .00005177,-0.00001541,-0.00000300,0.00000772,-0.00000687,-0.00012117,0
 .00006862,-0.00001720,0.00000284,0.00001130,-0.00000037,-0.00003124,-0
 .00015783,0.00019242,0.02688677,0.03322320,0.03735074,0.00050148,0.000
 32458,0.00028732,-0.57287249,-0.01775099,-0.28986283,-0.00300469,-0.01
 245945,-0.00058973,0.01071539,0.01783751,0.00319428,-0.04864069,0.0132
 2303,-0.04381468,-0.04961311,-0.06693016,-0.03092384,0.00271478,-0.001
 54819,-0.00155058,0.00256446,-0.00602982,0.00479954,0.00002525,0.00986
 019,-0.00092122,0.00015134,0.00038849,0.00018094,-0.00009876,0.0004611
 0,-0.00009399,-0.00116667,0.00070283,-0.00226863,-0.00325694,0.0020552
 9,-0.00066915,0.00067758,-0.00373708,0.00067497,-0.00346913,-0.0053352
 6,-0.00147148,0.00004457,-0.00019511,-0.00000072,0.00070468,-0.0010720
 4,-0.00119719,0.00003318,0.00043764,0.00014819,-0.00008354,0.00015957,
 0.00012837,-0.00028979,-0.00033603,0.00038325,-0.00048776,0.00260945,-
 0.00000424,-0.00033209,-0.00038760,0.00004947,0.00002112,-0.00006575,0
 .00001410,0.00003134,-0.00004979,0.00000718,0.00002239,0.00003599,-0.0
 0002327,0.00125217,-0.00038477,-0.00069862,0.00004337,0.00009051,0.000
 74164,0.66381256,-0.00015696,-0.00020058,-0.00000401,-0.02741892,-0.09
 199088,-0.01446865,-0.00459221,0.00403669,-0.00282080,0.00114616,-0.01
 104349,0.00164614,0.02947847,0.01430180,0.01819939,-0.07623194,-0.0232
 1261,-0.04136702,0.01182829,-0.00388902,0.00778783,-0.00038339,0.00274
 807,-0.00107373,-0.00153564,0.00006069,-0.00088138,-0.00002053,0.00072
 604,-0.00013512,-0.00003394,0.00003743,-0.00002374,0.00059947,-0.00041
 839,0.00104790,0.00141304,-0.00061730,0.00023271,-0.00016749,-0.000120
 12,-0.00008333,-0.00056817,-0.00105746,-0.00026519,-0.00000174,0.00003
 005,-0.00000702,-0.00018560,0.00027544,0.00027889,0.00000170,-0.000108
 97,-0.00003388,0.00002468,-0.00003096,-0.00003107,0.00008394,0.0001235
 5,-0.00005451,0.00004251,-0.00047636,-0.00005246,0.00006381,0.00009523
 ,-0.00001705,-0.00000695,0.00001636,-0.00000334,-0.00000470,0.00000861
 ,-0.00000112,-0.00000370,-0.00000907,0.00000614,-0.00028299,-0.0002045
 5,0.00016830,-0.00118308,0.00201576,-0.00099961,0.06809587,0.10890404,
 0.00039279,0.00033928,0.00006973,-0.28903188,-0.00873476,-0.24265143,-
 0.00153456,-0.00767272,0.00031267,0.00393041,0.01170877,0.00455488,-0.
 04528034,0.00871638,-0.00229906,-0.03009066,-0.03589975,-0.00104119,-0
 .00284618,-0.00002006,0.00403910,0.00350735,-0.00409849,0.00001510,0.0
 0008442,0.00578024,-0.00031939,0.00029050,0.00014046,-0.00022073,-0.00
 005215,0.00026649,-0.00005781,-0.00130622,0.00092411,-0.00209953,-0.00
 133258,0.00078554,-0.00003127,0.00037962,-0.00217398,0.00045602,-0.001
 86544,-0.00304088,-0.00102748,0.00003480,-0.00013901,0.00000317,0.0004
 5706,-0.00067065,-0.00072495,0.00001519,0.00026839,0.00009751,-0.00004
 932,0.00010349,0.00007348,-0.00024935,-0.00032988,0.00008299,-0.000297
 44,0.00155260,0.00014821,-0.00020065,-0.00023485,0.00002657,0.00001426
 ,-0.00003855,0.00000719,0.00002019,-0.00003178,0.00000175,0.00001474,0
 .00002066,-0.00001160,0.00068003,-0.00022350,-0.00029604,0.00083447,-0
 .00025323,-0.00066989,0.36348093,0.03295571,0.24156199\\0.00001424,-0.
 00000103,-0.00000792,-0.00000623,0.00000095,0.00001233,0.00000229,0.00
 000016,-0.00000115,-0.00000066,-0.00000079,0.00000126,-0.00000266,0.00
 000058,0.00000756,-0.00000444,0.00000058,0.00000953,0.00000059,-0.0000
 0006,0.00000310,0.00000544,-0.00000028,-0.00000484,0.00000072,-0.00000
 028,0.00000192,0.00000522,-0.00000089,-0.00000655,-0.00000170,0.000000
 31,0.00000550,0.00001139,-0.00000034,-0.00000324,0.00000118,-0.0000038
 7,-0.00001219,-0.00000268,0.00000074,0.00000668,0.00000356,-0.00000037
 ,-0.00000393,-0.00000737,0.00000002,-0.00000415,-0.00000157,-0.0000005
 7,-0.00000481,-0.00000527,0.00000125,-0.00000361,-0.00000058,-0.000000
 50,-0.00001048,0.00000941,-0.00000110,-0.00000202,0.00000336,0.0000002
 9,-0.00000103,-0.00000301,0.00000028,0.00000050,-0.00000569,-0.0000008
 3,-0.00000600,-0.00000341,0.00000013,0.00000632,0.00000374,0.00000036,
 0.00000040,-0.00000247,0.00000227,-0.00000995,-0.00000438,0.00000158,0
 .00000914,-0.00000902,0.00000139,0.00001762\\\@


 CLIMB THE MOUNTAINS AND GET THEIR GOOD TIDINGS.
 NATURE'S PEACE WILL FLOW INTO YOU AS SUNSHINE FLOWS INTO TREES.
 THE WINDS WILL BLOW THEIR OWN FRESHNESS INTO YOU, 
 AND CARES WILL DROP OFF LIKE AUTUMN LEAVES.

                                         -- JOHN MUIR
 Job cpu time:       0 days 10 hours 39 minutes 41.3 seconds.
 Elapsed time:       0 days  0 hours 17 minutes 48.2 seconds.
 File lengths (MBytes):  RWF=    998 Int=      0 D2E=      0 Chk=     44 Scr=      1
 Normal termination of Gaussian 16 at Wed Aug 14 17:44:06 2019.
