 Entering Gaussian System, Link 0=g16
 Initial command:
 /nopt/nrel/apps/gaussian/g16B/g16/l1.exe "/dev/shm/Gau-64183.inp" -scrdir="/dev/shm/"
 Default is to use a total of  36 processors:
                               36 via shared-memory
                                1 via Linda
 Entering Link 1 = /nopt/nrel/apps/gaussian/g16B/g16/l1.exe PID=     64184.
  
 Copyright (c) 1988-2017, Gaussian, Inc.  All Rights Reserved.
  
 This is part of the Gaussian(R) 16 program.  It is based on
 the Gaussian(R) 09 system (copyright 2009, Gaussian, Inc.),
 the Gaussian(R) 03 system (copyright 2003, Gaussian, Inc.),
 the Gaussian(R) 98 system (copyright 1998, Gaussian, Inc.),
 the Gaussian(R) 94 system (copyright 1995, Gaussian, Inc.),
 the Gaussian 92(TM) system (copyright 1992, Gaussian, Inc.),
 the Gaussian 90(TM) system (copyright 1990, Gaussian, Inc.),
 the Gaussian 88(TM) system (copyright 1988, Gaussian, Inc.),
 the Gaussian 86(TM) system (copyright 1986, Carnegie Mellon
 University), and the Gaussian 82(TM) system (copyright 1983,
 Carnegie Mellon University). Gaussian is a federally registered
 trademark of Gaussian, Inc.
  
 This software contains proprietary and confidential information,
 including trade secrets, belonging to Gaussian, Inc.
  
 This software is provided under written license and may be
 used, copied, transmitted, or stored only in accord with that
 written license.
  
 The following legend is applicable only to US Government
 contracts under FAR:
  
                    RESTRICTED RIGHTS LEGEND
  
 Use, reproduction and disclosure by the US Government is
 subject to restrictions as set forth in subparagraphs (a)
 and (c) of the Commercial Computer Software - Restricted
 Rights clause in FAR 52.227-19.
  
 Gaussian, Inc.
 340 Quinnipiac St., Bldg. 40, Wallingford CT 06492
  
  
 ---------------------------------------------------------------
 Warning -- This program may not be used in any manner that
 competes with the business of Gaussian, Inc. or will provide
 assistance to any competitor of Gaussian, Inc.  The licensee
 of this program is prohibited from giving any competitor of
 Gaussian, Inc. access to this program.  By using this program,
 the user acknowledges that Gaussian, Inc. is engaged in the
 business of creating and licensing software in the field of
 computational chemistry and represents and warrants to the
 licensee that it is not a competitor of Gaussian, Inc. and that
 it will not use this program in any manner prohibited above.
 ---------------------------------------------------------------
  

 Cite this work as:
 Gaussian 16, Revision B.01,
 M. J. Frisch, G. W. Trucks, H. B. Schlegel, G. E. Scuseria, 
 M. A. Robb, J. R. Cheeseman, G. Scalmani, V. Barone, 
 G. A. Petersson, H. Nakatsuji, X. Li, M. Caricato, A. V. Marenich, 
 J. Bloino, B. G. Janesko, R. Gomperts, B. Mennucci, H. P. Hratchian, 
 J. V. Ortiz, A. F. Izmaylov, J. L. Sonnenberg, D. Williams-Young, 
 F. Ding, F. Lipparini, F. Egidi, J. Goings, B. Peng, A. Petrone, 
 T. Henderson, D. Ranasinghe, V. G. Zakrzewski, J. Gao, N. Rega, 
 G. Zheng, W. Liang, M. Hada, M. Ehara, K. Toyota, R. Fukuda, 
 J. Hasegawa, M. Ishida, T. Nakajima, Y. Honda, O. Kitao, H. Nakai, 
 T. Vreven, K. Throssell, J. A. Montgomery, Jr., J. E. Peralta, 
 F. Ogliaro, M. J. Bearpark, J. J. Heyd, E. N. Brothers, K. N. Kudin, 
 V. N. Staroverov, T. A. Keith, R. Kobayashi, J. Normand, 
 K. Raghavachari, A. P. Rendell, J. C. Burant, S. S. Iyengar, 
 J. Tomasi, M. Cossi, J. M. Millam, M. Klene, C. Adamo, R. Cammi, 
 J. W. Ochterski, R. L. Martin, K. Morokuma, O. Farkas, 
 J. B. Foresman, and D. J. Fox, Gaussian, Inc., Wallingford CT, 2016.
 
 ******************************************
 Gaussian 16:  ES64L-G16RevB.01 20-Dec-2017
                15-Aug-2019 
 ******************************************
 %RWF=/dev/shm/,5GB,/tmp/scratch/1151124/,-1
 %NoSave
 %Chk=/dev/shm/pdc2_eghtsct_prodc.chk
 Default route: CacheSize=180224 MaxDisk=256GB
 ----------------------------------------------------------------------
 # m062x/Def2TZVP nosymm scf=xqc opt freq=NoRaman CPHF=Grid=Fine SCRF=(
 Solvent=1,2-EthaneDiol,Read)
 ----------------------------------------------------------------------
 1/4=180224,18=20,19=15,26=3,38=1,40=2/1,3;
 2/4=180224,9=110,12=2,15=1,17=6,18=5,40=1/2;
 3/4=180224,5=44,7=101,11=2,25=1,30=1,70=2203,71=1,72=30,74=-55/1,2,3;
 4/4=180224/1;
 5/4=180224,5=2,8=3,13=1,38=5,53=30/2,8;
 6/4=180224,7=2,8=2,9=2,10=2,28=1/1;
 7/4=180224,30=1/1,2,3,16;
 1/4=180224,18=20,19=15,26=3/3(2);
 2/4=180224,9=110,15=1/2;
 99/4=180224/99;
 2/4=180224,9=110,15=1/2;
 3/4=180224,5=44,7=101,11=2,25=1,30=1,70=2205,71=1,72=30,74=-55/1,2,3;
 4/4=180224,5=5,16=3,69=1/1;
 5/4=180224,5=2,8=3,13=1,38=5,53=30/2,8;
 7/4=180224,30=1/1,2,3,16;
 1/4=180224,18=20,19=15,26=3/3(-5);
 2/4=180224,9=110,15=1/2;
 6/4=180224,7=2,8=2,9=2,10=2,19=2,28=1/1;
 99/4=180224,9=1/99;
 ----------------------------------------
 based on pdc2_eghtsct_ircr_opt_noh2o.log
 ----------------------------------------
 Symbolic Z-matrix:
 Charge =  1 Multiplicity = 1
 6                    -2.08266   1.0991   -0.89496 
 6                     0.57079   1.30041   0.04333 
 6                     0.02601   0.02515  -0.3218 
 6                    -1.2411   -0.08877  -0.76385 
 8                    -1.49306   2.28619  -0.53514 
 6                    -0.23395   2.36316  -0.08193 
 6                     0.84951  -1.19746  -0.24443 
 6                     0.2264    3.74078   0.29053 
 1                     1.56218   1.4503    0.44442 
 1                    -0.35759   5.5239    0.34497 
 8                     2.06022  -1.20874   0.15849 
 8                    -0.707     4.65503   0.089 
 8                     1.32734   3.9442    0.71889 
 1                     1.98796  -3.37747  -1.20229 
 6                     1.10667  -3.52896  -0.5826 
 8                     0.91162  -5.81533  -1.21091 
 1                     1.39512  -3.71697   0.45023 
 8                     0.3253   -2.28579  -0.5981 
 6                     0.19585  -4.60534  -1.14125 
 1                     0.9333   -6.22542  -0.33982 
 1                    -0.10009  -4.34008  -2.15549 
 1                    -0.70342  -4.69096  -0.52817 
 1                     2.48709  -2.08346   0.15959 
 1                    -1.68369  -1.0308   -1.05166 
 8                    -3.21227   1.11333  -1.28246 
 

 GradGradGradGradGradGradGradGradGradGradGradGradGradGradGradGradGradGrad
 Berny optimization.
 Initialization pass.
                           ----------------------------
                           !    Initial Parameters    !
                           ! (Angstroms and Degrees)  !
 --------------------------                            --------------------------
 ! Name  Definition              Value          Derivative Info.                !
 --------------------------------------------------------------------------------
 ! R1    R(1,4)                  1.4617         estimate D2E/DX2                !
 ! R2    R(1,5)                  1.3734         estimate D2E/DX2                !
 ! R3    R(1,25)                 1.1943         estimate D2E/DX2                !
 ! R4    R(2,3)                  1.434          estimate D2E/DX2                !
 ! R5    R(2,6)                  1.3389         estimate D2E/DX2                !
 ! R6    R(2,9)                  1.0799         estimate D2E/DX2                !
 ! R7    R(3,4)                  1.3468         estimate D2E/DX2                !
 ! R8    R(3,7)                  1.4761         estimate D2E/DX2                !
 ! R9    R(4,24)                 1.0799         estimate D2E/DX2                !
 ! R10   R(5,6)                  1.3404         estimate D2E/DX2                !
 ! R11   R(6,8)                  1.4995         estimate D2E/DX2                !
 ! R12   R(7,11)                 1.276          estimate D2E/DX2                !
 ! R13   R(7,18)                 1.2587         estimate D2E/DX2                !
 ! R14   R(8,12)                 1.322          estimate D2E/DX2                !
 ! R15   R(8,13)                 1.1987         estimate D2E/DX2                !
 ! R16   R(10,12)                0.9708         estimate D2E/DX2                !
 ! R17   R(11,23)                0.9733         estimate D2E/DX2                !
 ! R18   R(14,15)                1.0879         estimate D2E/DX2                !
 ! R19   R(15,17)                1.0887         estimate D2E/DX2                !
 ! R20   R(15,18)                1.4684         estimate D2E/DX2                !
 ! R21   R(15,19)                1.5167         estimate D2E/DX2                !
 ! R22   R(16,19)                1.4076         estimate D2E/DX2                !
 ! R23   R(16,20)                0.963          estimate D2E/DX2                !
 ! R24   R(19,21)                1.0893         estimate D2E/DX2                !
 ! R25   R(19,22)                1.0917         estimate D2E/DX2                !
 ! A1    A(4,1,5)              115.5795         estimate D2E/DX2                !
 ! A2    A(4,1,25)             125.6872         estimate D2E/DX2                !
 ! A3    A(5,1,25)             118.7333         estimate D2E/DX2                !
 ! A4    A(3,2,6)              116.9818         estimate D2E/DX2                !
 ! A5    A(3,2,9)              124.5246         estimate D2E/DX2                !
 ! A6    A(6,2,9)              118.4473         estimate D2E/DX2                !
 ! A7    A(2,3,4)              121.078          estimate D2E/DX2                !
 ! A8    A(2,3,7)              120.7493         estimate D2E/DX2                !
 ! A9    A(4,3,7)              118.1647         estimate D2E/DX2                !
 ! A10   A(1,4,3)              120.1575         estimate D2E/DX2                !
 ! A11   A(1,4,24)             116.6834         estimate D2E/DX2                !
 ! A12   A(3,4,24)             123.1515         estimate D2E/DX2                !
 ! A13   A(1,5,6)              122.7837         estimate D2E/DX2                !
 ! A14   A(2,6,5)              123.4106         estimate D2E/DX2                !
 ! A15   A(2,6,8)              121.4307         estimate D2E/DX2                !
 ! A16   A(5,6,8)              115.1581         estimate D2E/DX2                !
 ! A17   A(3,7,11)             123.5863         estimate D2E/DX2                !
 ! A18   A(3,7,18)             117.975          estimate D2E/DX2                !
 ! A19   A(11,7,18)            118.4387         estimate D2E/DX2                !
 ! A20   A(6,8,12)             112.3795         estimate D2E/DX2                !
 ! A21   A(6,8,13)             121.777          estimate D2E/DX2                !
 ! A22   A(12,8,13)            125.8435         estimate D2E/DX2                !
 ! A23   A(7,11,23)            115.1137         estimate D2E/DX2                !
 ! A24   A(8,12,10)            108.9432         estimate D2E/DX2                !
 ! A25   A(14,15,17)           110.4741         estimate D2E/DX2                !
 ! A26   A(14,15,18)           107.8878         estimate D2E/DX2                !
 ! A27   A(14,15,19)           112.0539         estimate D2E/DX2                !
 ! A28   A(17,15,18)           107.2893         estimate D2E/DX2                !
 ! A29   A(17,15,19)           112.7048         estimate D2E/DX2                !
 ! A30   A(18,15,19)           106.1045         estimate D2E/DX2                !
 ! A31   A(19,16,20)           109.4353         estimate D2E/DX2                !
 ! A32   A(7,18,15)            120.4932         estimate D2E/DX2                !
 ! A33   A(15,19,16)           108.8404         estimate D2E/DX2                !
 ! A34   A(15,19,21)           109.4684         estimate D2E/DX2                !
 ! A35   A(15,19,22)           110.0892         estimate D2E/DX2                !
 ! A36   A(16,19,21)           107.5416         estimate D2E/DX2                !
 ! A37   A(16,19,22)           112.2861         estimate D2E/DX2                !
 ! A38   A(21,19,22)           108.5527         estimate D2E/DX2                !
 ! D1    D(5,1,4,3)             -0.3611         estimate D2E/DX2                !
 ! D2    D(5,1,4,24)          -179.3893         estimate D2E/DX2                !
 ! D3    D(25,1,4,3)           179.5383         estimate D2E/DX2                !
 ! D4    D(25,1,4,24)            0.5101         estimate D2E/DX2                !
 ! D5    D(4,1,5,6)             -0.5245         estimate D2E/DX2                !
 ! D6    D(25,1,5,6)           179.5687         estimate D2E/DX2                !
 ! D7    D(6,2,3,4)             -0.2966         estimate D2E/DX2                !
 ! D8    D(6,2,3,7)            178.6511         estimate D2E/DX2                !
 ! D9    D(9,2,3,4)            177.1829         estimate D2E/DX2                !
 ! D10   D(9,2,3,7)             -3.8694         estimate D2E/DX2                !
 ! D11   D(3,2,6,5)             -0.6112         estimate D2E/DX2                !
 ! D12   D(3,2,6,8)            179.086          estimate D2E/DX2                !
 ! D13   D(9,2,6,5)           -178.2495         estimate D2E/DX2                !
 ! D14   D(9,2,6,8)              1.4477         estimate D2E/DX2                !
 ! D15   D(2,3,4,1)              0.7632         estimate D2E/DX2                !
 ! D16   D(2,3,4,24)           179.726          estimate D2E/DX2                !
 ! D17   D(7,3,4,1)           -178.211          estimate D2E/DX2                !
 ! D18   D(7,3,4,24)             0.7518         estimate D2E/DX2                !
 ! D19   D(2,3,7,11)             1.0223         estimate D2E/DX2                !
 ! D20   D(2,3,7,18)          -178.8703         estimate D2E/DX2                !
 ! D21   D(4,3,7,11)          -180.0            estimate D2E/DX2                !
 ! D22   D(4,3,7,18)             0.1074         estimate D2E/DX2                !
 ! D23   D(1,5,6,2)              1.0476         estimate D2E/DX2                !
 ! D24   D(1,5,6,8)           -178.667          estimate D2E/DX2                !
 ! D25   D(2,6,8,12)           179.65           estimate D2E/DX2                !
 ! D26   D(2,6,8,13)            -0.3101         estimate D2E/DX2                !
 ! D27   D(5,6,8,12)            -0.6292         estimate D2E/DX2                !
 ! D28   D(5,6,8,13)           179.4107         estimate D2E/DX2                !
 ! D29   D(3,7,11,23)          180.0            estimate D2E/DX2                !
 ! D30   D(18,7,11,23)          -0.1079         estimate D2E/DX2                !
 ! D31   D(3,7,18,15)          178.118          estimate D2E/DX2                !
 ! D32   D(11,7,18,15)          -1.7803         estimate D2E/DX2                !
 ! D33   D(6,8,12,10)         -179.9811         estimate D2E/DX2                !
 ! D34   D(13,8,12,10)          -0.023          estimate D2E/DX2                !
 ! D35   D(14,15,18,7)         -56.4197         estimate D2E/DX2                !
 ! D36   D(17,15,18,7)          62.6194         estimate D2E/DX2                !
 ! D37   D(19,15,18,7)        -176.6749         estimate D2E/DX2                !
 ! D38   D(14,15,19,16)         59.7672         estimate D2E/DX2                !
 ! D39   D(14,15,19,21)        -57.5161         estimate D2E/DX2                !
 ! D40   D(14,15,19,22)       -176.7661         estimate D2E/DX2                !
 ! D41   D(17,15,19,16)        -65.5853         estimate D2E/DX2                !
 ! D42   D(17,15,19,21)        177.1313         estimate D2E/DX2                !
 ! D43   D(17,15,19,22)         57.8814         estimate D2E/DX2                !
 ! D44   D(18,15,19,16)        177.2774         estimate D2E/DX2                !
 ! D45   D(18,15,19,21)         59.994          estimate D2E/DX2                !
 ! D46   D(18,15,19,22)        -59.2559         estimate D2E/DX2                !
 ! D47   D(20,16,19,15)         80.1986         estimate D2E/DX2                !
 ! D48   D(20,16,19,21)       -161.2996         estimate D2E/DX2                !
 ! D49   D(20,16,19,22)        -41.947          estimate D2E/DX2                !
 --------------------------------------------------------------------------------
 Trust Radius=3.00D-01 FncErr=1.00D-07 GrdErr=1.00D-06 EigMax=2.50D+02 EigMin=1.00D-04
 Number of steps in this run=    122 maximum allowed number of steps=    150.
 GradGradGradGradGradGradGradGradGradGradGradGradGradGradGradGradGradGrad

                          Input orientation:                          
 ---------------------------------------------------------------------
 Center     Atomic      Atomic             Coordinates (Angstroms)
 Number     Number       Type             X           Y           Z
 ---------------------------------------------------------------------
      1          6           0       -2.082660    1.099097   -0.894962
      2          6           0        0.570791    1.300414    0.043334
      3          6           0        0.026006    0.025147   -0.321798
      4          6           0       -1.241098   -0.088774   -0.763845
      5          8           0       -1.493063    2.286190   -0.535144
      6          6           0       -0.233945    2.363159   -0.081928
      7          6           0        0.849507   -1.197460   -0.244431
      8          6           0        0.226397    3.740782    0.290527
      9          1           0        1.562183    1.450299    0.444419
     10          1           0       -0.357593    5.523904    0.344972
     11          8           0        2.060218   -1.208741    0.158494
     12          8           0       -0.706995    4.655032    0.088997
     13          8           0        1.327343    3.944196    0.718885
     14          1           0        1.987960   -3.377474   -1.202287
     15          6           0        1.106671   -3.528956   -0.582603
     16          8           0        0.911619   -5.815331   -1.210914
     17          1           0        1.395118   -3.716970    0.450225
     18          8           0        0.325300   -2.285794   -0.598098
     19          6           0        0.195855   -4.605336   -1.141252
     20          1           0        0.933300   -6.225424   -0.339822
     21          1           0       -0.100089   -4.340078   -2.155490
     22          1           0       -0.703419   -4.690963   -0.528166
     23          1           0        2.487090   -2.083462    0.159586
     24          1           0       -1.683686   -1.030803   -1.051662
     25          8           0       -3.212271    1.113335   -1.282463
 ---------------------------------------------------------------------
                    Distance matrix (angstroms):
                    1          2          3          4          5
     1  C    0.000000
     2  C    2.821654   0.000000
     3  C    2.434822   1.434022   0.000000
     4  C    1.461662   2.421636   1.346824   0.000000
     5  O    1.373420   2.359213   2.732289   2.399217   0.000000
     6  C    2.382567   1.338924   2.364617   2.737032   1.340413
     7  C    3.780869   2.529796   1.476112   2.422727   4.208083
     8  C    3.703462   2.476915   3.771080   4.234471   2.398773
     9  H    3.898995   1.079904   2.231140   3.418630   3.315537
    10  H    4.908382   4.334830   5.552302   5.788973   3.542130
    11  O    4.857913   2.920191   2.427175   3.606067   5.032045
    12  O    3.937677   3.590026   4.705516   4.849361   2.572716
    13  O    4.725168   2.831664   4.258573   5.006019   3.503750
    14  H    6.058390   5.044064   4.025215   4.629751   6.681294
    15  C    5.629234   4.899161   3.723909   4.168899   6.369991
    16  O    7.541542   7.233473   5.973778   6.134128   8.477842
    17  H    6.090892   5.100903   4.058808   4.646224   6.734275
    18  O    4.164599   3.651382   2.346565   2.703326   4.920716
    19  C    6.147588   6.035040   4.705500   4.754640   7.121302
    20  H    7.940580   7.544300   6.316102   6.524284   8.852851
    21  H    5.924875   6.090982   4.736403   4.616510   6.962279
    22  H    5.963359   6.151978   4.776646   4.639482   7.021699
    23  H    5.667748   3.890544   3.276415   4.327920   5.951313
    24  H    2.172604   3.422902   2.137938   1.079880   3.362376
    25  O    1.194312   4.013016   3.548728   2.366338   2.211278
                    6          7          8          9         10
     6  C    0.000000
     7  C    3.725357   0.000000
     8  C    1.499494   5.006064   0.000000
     9  H    2.082410   2.827198   2.655997   0.000000
    10  H    3.191840   6.854285   1.877108   4.504408   0.000000
    11  O    4.251994   1.276047   5.279972   2.720347   7.156053
    12  O    2.346417   6.065108   1.322002   3.942817   0.970847
    13  O    2.361906   5.252897   1.198728   2.519921   2.339722
    14  H    6.256751   2.639323   7.483393   5.118625   9.334354
    15  C    6.063410   2.369887   7.374708   5.104434   9.217306
    16  O    8.335144   4.718335   9.697585   7.480157  11.515639
    17  H    6.317040   2.669863   7.550462   5.169972   9.406212
    18  O    4.710833   1.258707   6.092541   4.071254   7.896018
    19  C    7.061644   3.584016   8.468094   6.407177  10.252642
    20  H    8.671374   5.029567  10.011110   7.741270  11.839851
    21  H    7.017903   3.798675   8.449254   6.561337  10.179232
    22  H    7.083797   3.833621   8.522274   6.617702  10.257947
    23  H    5.218697   1.905231   6.248975   3.663884   8.123952
    24  H    3.815902   2.663919   5.312053   4.350838   6.831785
    25  O    3.445834   4.786995   4.604586   5.088328   5.500077
                   11         12         13         14         15
    11  O    0.000000
    12  O    6.484299   0.000000
    13  O    5.234874   2.245123   0.000000
    14  H    2.561318   8.570377   7.598301   0.000000
    15  C    2.615697   8.409405   7.588845   1.087946   0.000000
    16  O    4.941177  10.674183   9.957175   2.664908   2.379146
    17  H    2.611260   8.639431   7.666174   1.788160   1.088708
    18  O    2.177708   7.050730   6.446031   2.078761   1.468411
    19  C    4.086814   9.385258   8.822407   2.173249   1.516664
    20  H    5.165789  11.011757  10.232170   3.157052   2.712921
    21  H    4.452721   9.290752   8.884188   2.489007   2.142000
    22  H    4.498340   9.366351   8.957963   3.069726   2.151662
    23  H    0.973323   7.457510   6.163642   1.943784   2.132101
    24  H    3.938649   5.880795   6.078795   4.360108   3.774503
    25  O    5.938647   4.549827   5.712028   6.871405   6.379179
                   16         17         18         19         20
    16  O    0.000000
    17  H    2.719610   0.000000
    18  O    3.630006   2.071655   0.000000
    19  C    1.407572   2.181795   2.385801   0.000000
    20  H    0.963041   2.670168   3.994629   1.952128   0.000000
    21  H    2.022906   3.068169   2.612759   1.089322   2.814085
    22  H    2.082954   2.511926   2.616867   1.091742   2.251421
    23  H    4.276357   1.986259   2.299643   3.647162   4.451913
    24  H    5.445428   4.353181   2.411794   4.039553   5.859985
    25  O    8.063374   6.896527   4.953468   6.658713   8.481257
                   21         22         23         24         25
    21  H    0.000000
    22  H    1.770681   0.000000
    23  H    4.140700   4.177489   0.000000
    24  H    3.831125   3.825147   4.468846   0.000000
    25  O    6.339366   6.368138   6.691915   2.643325   0.000000
 Symmetry turned off by external request.
 Stoichiometry    C9H9O7(1+)
 Framework group  C1[X(C9H9O7)]
 Deg. of freedom    69
 Full point group                 C1      NOp   1
 Rotational constants (GHZ):           1.1591063           0.2229197           0.1875707
 Standard basis: def2TZVP (5D, 7F)
   550 basis functions,   888 primitive gaussians,   630 cartesian basis functions
    59 alpha electrons       59 beta electrons
       nuclear repulsion energy      1081.5175471649 Hartrees.
 NAtoms=   25 NActive=   25 NUniq=   25 SFac= 1.00D+00 NAtFMM=   60 NAOKFM=F Big=F
 Integral buffers will be    131072 words long.
 Raffenetti 2 integral format.
 Two-electron integral symmetry is turned off.
 Using the following non-standard input for PCM:
 PDENS=7.0
 --- end of non-standard input.
 ------------------------------------------------------------------------------
 Polarizable Continuum Model (PCM)
 =================================
 Model                : PCM.
 Atomic radii         : UFF (Universal Force Field).
 Polarization charges : Total charges.
 Charge compensation  : None.
 Solution method      : On-the-fly selection.
 Cavity type          : Scaled VdW (van der Waals Surface) (Alpha=1.100).
 Cavity algorithm     : GePol (No added spheres)
                        Default sphere list used, NSphG=   25.
                        Lebedev-Laikov grids with approx.  7.0 points / Ang**2.
                        Smoothing algorithm: York/Karplus (Gamma=1.0000).
                        Polarization charges: spherical gaussians, with
                                              point-specific exponents (IZeta= 3).
                        Self-potential: point-specific (ISelfS= 7).
                        Self-field    : sphere-specific E.n sum rule (ISelfD= 2).
 1st derivatives      : Analytical E(r).r(x)/FMM algorithm (CHGder, D1EAlg=3).
                        Cavity 1st derivative terms included.
 Solvent              : 1,2-EthaneDiol, Eps=  40.245000 Eps(inf)=   2.050051
 ------------------------------------------------------------------------------
 One-electron integrals computed using PRISM.
   1 Symmetry operations used in ECPInt.
 ECPInt:  NShTT=   22578 NPrTT=   70504 LenC2=   19172 LenP2D=   43159.
 LDataN:  DoStor=T MaxTD1= 6 Len=  172
 NBasis=   550 RedAO= T EigKep=  2.47D-05  NBF=   550
 NBsUse=   550 1.00D-06 EigRej= -1.00D+00 NBFU=   550
 ExpMin= 9.52D-02 ExpMax= 2.70D+04 ExpMxC= 9.22D+02 IAcc=3 IRadAn=         5 AccDes= 0.00D+00
 Harris functional with IExCor= 1009 and IRadAn=       5 diagonalized for initial guess.
 HarFok:  IExCor= 1009 AccDes= 0.00D+00 IRadAn=         5 IDoV= 1 UseB2=F ITyADJ=14
 ICtDFT=  3500011 ScaDFX=  1.000000  1.000000  1.000000  1.000000
 FoFCou: FMM=F IPFlag=           0 FMFlag=      100000 FMFlg1=           0
         NFxFlg=           0 DoJE=T BraDBF=F KetDBF=T FulRan=T
         wScrn=  0.000000 ICntrl=       500 IOpCl=  0 I1Cent=   200000004 NGrid=           0
         NMat0=    1 NMatS0=      1 NMatT0=    0 NMatD0=    1 NMtDS0=    0 NMtDT0=    0
 Symmetry not used in FoFCou.
 Requested convergence on RMS density matrix=1.00D-08 within  32 cycles.
 Requested convergence on MAX density matrix=1.00D-06.
 Requested convergence on             energy=1.00D-06.
 No special actions if energy rises.
 Inv3:  Mode=1 IEnd=    29767500.
 Iteration    1 A*A^-1 deviation from unit magnitude is 3.33D-15 for    677.
 Iteration    1 A*A^-1 deviation from orthogonality  is 1.83D-15 for   3127   2903.
 Iteration    1 A^-1*A deviation from unit magnitude is 3.11D-15 for   1072.
 Iteration    1 A^-1*A deviation from orthogonality  is 2.00D-15 for   1785     35.
 Error on total polarization charges =  0.00998
 SCF Done:  E(RM062X) =  -874.765849252     A.U. after   14 cycles
            NFock= 14  Conv=0.78D-08     -V/T= 2.0043
 QCSCF skips out because SCF is already converged.

 **********************************************************************

            Population analysis using the SCF Density.

 **********************************************************************

 Alpha  occ. eigenvalues --  -19.77483 -19.77416 -19.74110 -19.70288 -19.65287
 Alpha  occ. eigenvalues --  -19.65280 -19.65153 -10.79945 -10.72220 -10.71704
 Alpha  occ. eigenvalues --  -10.67010 -10.65523 -10.64921 -10.62512 -10.61793
 Alpha  occ. eigenvalues --  -10.60210  -1.37760  -1.30329  -1.27634  -1.27223
 Alpha  occ. eigenvalues --   -1.20271  -1.18051  -1.17729  -1.02123  -0.94721
 Alpha  occ. eigenvalues --   -0.92989  -0.86268  -0.82854  -0.78735  -0.77186
 Alpha  occ. eigenvalues --   -0.75497  -0.73756  -0.68967  -0.67552  -0.65685
 Alpha  occ. eigenvalues --   -0.63833  -0.62097  -0.61588  -0.61347  -0.60677
 Alpha  occ. eigenvalues --   -0.58014  -0.57286  -0.56905  -0.56740  -0.55042
 Alpha  occ. eigenvalues --   -0.52779  -0.52332  -0.50796  -0.50449  -0.49008
 Alpha  occ. eigenvalues --   -0.48667  -0.48252  -0.45111  -0.43209  -0.42990
 Alpha  occ. eigenvalues --   -0.41658  -0.39202  -0.39042  -0.33860
 Alpha virt. eigenvalues --   -0.12014  -0.05070   0.01897   0.03655   0.04637
 Alpha virt. eigenvalues --    0.06153   0.06926   0.07340   0.09286   0.09740
 Alpha virt. eigenvalues --    0.10045   0.11060   0.12660   0.14047   0.14147
 Alpha virt. eigenvalues --    0.14475   0.15215   0.15786   0.17368   0.18329
 Alpha virt. eigenvalues --    0.18931   0.19436   0.20220   0.21321   0.21681
 Alpha virt. eigenvalues --    0.22307   0.23518   0.23957   0.24667   0.25499
 Alpha virt. eigenvalues --    0.26466   0.26835   0.28119   0.28547   0.28915
 Alpha virt. eigenvalues --    0.29241   0.29567   0.30436   0.31964   0.33202
 Alpha virt. eigenvalues --    0.34057   0.34313   0.35418   0.35838   0.36836
 Alpha virt. eigenvalues --    0.37861   0.38595   0.39033   0.39511   0.40383
 Alpha virt. eigenvalues --    0.40524   0.41250   0.41405   0.42918   0.43135
 Alpha virt. eigenvalues --    0.44091   0.44416   0.45367   0.46125   0.46430
 Alpha virt. eigenvalues --    0.46881   0.48797   0.49244   0.49886   0.50639
 Alpha virt. eigenvalues --    0.51248   0.51888   0.52195   0.52494   0.53703
 Alpha virt. eigenvalues --    0.54580   0.55830   0.56215   0.57847   0.58066
 Alpha virt. eigenvalues --    0.58178   0.59768   0.60493   0.61767   0.62199
 Alpha virt. eigenvalues --    0.63302   0.64352   0.64780   0.65199   0.66475
 Alpha virt. eigenvalues --    0.66790   0.67429   0.68666   0.70885   0.71406
 Alpha virt. eigenvalues --    0.72146   0.73102   0.73677   0.74234   0.74540
 Alpha virt. eigenvalues --    0.75862   0.77099   0.78851   0.79786   0.80247
 Alpha virt. eigenvalues --    0.80913   0.81436   0.82862   0.83623   0.84196
 Alpha virt. eigenvalues --    0.86409   0.87306   0.87547   0.88697   0.89408
 Alpha virt. eigenvalues --    0.90056   0.91262   0.91309   0.91800   0.92571
 Alpha virt. eigenvalues --    0.94032   0.95977   0.98445   0.99582   1.01552
 Alpha virt. eigenvalues --    1.01741   1.04329   1.04719   1.07021   1.07770
 Alpha virt. eigenvalues --    1.08825   1.09682   1.11919   1.13047   1.15691
 Alpha virt. eigenvalues --    1.17159   1.18705   1.20333   1.22566   1.23730
 Alpha virt. eigenvalues --    1.25202   1.28559   1.29765   1.30255   1.33617
 Alpha virt. eigenvalues --    1.33722   1.34627   1.35848   1.36135   1.38176
 Alpha virt. eigenvalues --    1.38393   1.38756   1.40767   1.41312   1.42813
 Alpha virt. eigenvalues --    1.45694   1.47515   1.48942   1.49315   1.50823
 Alpha virt. eigenvalues --    1.51792   1.52221   1.54487   1.55408   1.56638
 Alpha virt. eigenvalues --    1.57105   1.57808   1.58805   1.59627   1.59872
 Alpha virt. eigenvalues --    1.62049   1.64391   1.64677   1.65605   1.66168
 Alpha virt. eigenvalues --    1.68139   1.69706   1.69868   1.71797   1.74019
 Alpha virt. eigenvalues --    1.74310   1.76741   1.77487   1.78216   1.80080
 Alpha virt. eigenvalues --    1.81900   1.83028   1.84128   1.85110   1.86697
 Alpha virt. eigenvalues --    1.87284   1.89695   1.91744   1.92478   1.93032
 Alpha virt. eigenvalues --    1.94786   1.94962   1.95681   1.96224   1.97032
 Alpha virt. eigenvalues --    1.97620   2.00083   2.01112   2.02116   2.02499
 Alpha virt. eigenvalues --    2.03867   2.04254   2.06579   2.08117   2.09097
 Alpha virt. eigenvalues --    2.10781   2.11618   2.14714   2.15550   2.16474
 Alpha virt. eigenvalues --    2.17105   2.19123   2.20025   2.20331   2.22311
 Alpha virt. eigenvalues --    2.22836   2.25622   2.27566   2.27953   2.28852
 Alpha virt. eigenvalues --    2.30811   2.31557   2.32688   2.33990   2.34922
 Alpha virt. eigenvalues --    2.36605   2.37567   2.40018   2.42269   2.43257
 Alpha virt. eigenvalues --    2.45066   2.45670   2.47115   2.47871   2.48380
 Alpha virt. eigenvalues --    2.51443   2.51668   2.53046   2.53565   2.57662
 Alpha virt. eigenvalues --    2.58498   2.59059   2.59298   2.59533   2.61056
 Alpha virt. eigenvalues --    2.63309   2.63723   2.65208   2.66483   2.67724
 Alpha virt. eigenvalues --    2.69529   2.70167   2.71430   2.72277   2.73388
 Alpha virt. eigenvalues --    2.74857   2.75365   2.77199   2.78905   2.79232
 Alpha virt. eigenvalues --    2.80404   2.81453   2.81568   2.82726   2.83757
 Alpha virt. eigenvalues --    2.84621   2.85074   2.85607   2.87672   2.88658
 Alpha virt. eigenvalues --    2.89679   2.90240   2.91738   2.92933   2.94454
 Alpha virt. eigenvalues --    2.95629   2.96680   2.98857   2.99434   3.00762
 Alpha virt. eigenvalues --    3.02578   3.02796   3.04499   3.06215   3.06587
 Alpha virt. eigenvalues --    3.07619   3.10498   3.11233   3.11321   3.12853
 Alpha virt. eigenvalues --    3.13234   3.13855   3.14454   3.14698   3.15562
 Alpha virt. eigenvalues --    3.15803   3.16762   3.19907   3.20971   3.22146
 Alpha virt. eigenvalues --    3.22493   3.23310   3.24029   3.24300   3.25351
 Alpha virt. eigenvalues --    3.27571   3.28109   3.28675   3.31283   3.32009
 Alpha virt. eigenvalues --    3.32285   3.33124   3.33769   3.34989   3.35190
 Alpha virt. eigenvalues --    3.36842   3.38935   3.39542   3.40183   3.42445
 Alpha virt. eigenvalues --    3.43041   3.43971   3.45166   3.45696   3.46662
 Alpha virt. eigenvalues --    3.49826   3.52117   3.52992   3.54823   3.56112
 Alpha virt. eigenvalues --    3.57439   3.59385   3.60430   3.61013   3.61943
 Alpha virt. eigenvalues --    3.63256   3.66565   3.67897   3.70520   3.71543
 Alpha virt. eigenvalues --    3.75147   3.76176   3.80052   3.81854   3.83559
 Alpha virt. eigenvalues --    3.86999   3.88668   3.89599   3.90234   3.96337
 Alpha virt. eigenvalues --    3.96906   3.98516   4.01256   4.01935   4.05380
 Alpha virt. eigenvalues --    4.07401   4.08651   4.12343   4.13042   4.17183
 Alpha virt. eigenvalues --    4.20124   4.20453   4.21812   4.25456   4.31937
 Alpha virt. eigenvalues --    4.33195   4.33719   4.34533   4.39711   4.40641
 Alpha virt. eigenvalues --    4.43002   4.46538   4.48769   4.50233   4.52604
 Alpha virt. eigenvalues --    4.56316   4.58404   4.61091   4.64456   4.67957
 Alpha virt. eigenvalues --    4.73942   4.77237   4.81189   4.83997   4.91203
 Alpha virt. eigenvalues --    4.93384   4.97168   5.00306   5.08213   5.09238
 Alpha virt. eigenvalues --    5.13294   5.15089   5.16873   5.17098   5.18223
 Alpha virt. eigenvalues --    5.23708   5.25118   5.25432   5.25680   5.28163
 Alpha virt. eigenvalues --    5.31380   5.34832   5.36878   5.38395   5.43271
 Alpha virt. eigenvalues --    5.46081   5.47287   5.47942   5.48693   5.53563
 Alpha virt. eigenvalues --    5.55315   5.60269   5.66484   5.71342   5.72766
 Alpha virt. eigenvalues --    5.76479   5.79816   5.82247   5.82641   5.85364
 Alpha virt. eigenvalues --    5.87081   5.92762   5.94140   5.97238   5.99148
 Alpha virt. eigenvalues --    5.99635   6.04666   6.13189   6.17495   6.18476
 Alpha virt. eigenvalues --    6.23119   6.23702   6.24054   6.27099   6.29136
 Alpha virt. eigenvalues --    6.29680   6.34447   6.34789   6.40164   6.42037
 Alpha virt. eigenvalues --    6.42206   6.42703   6.49694   6.52222   6.54439
 Alpha virt. eigenvalues --    6.55473   6.58769   6.62971   6.64437   6.67103
 Alpha virt. eigenvalues --    6.67882   6.74663   6.75741   6.76071   6.77843
 Alpha virt. eigenvalues --    6.79908   6.80258   6.82424   6.84440   6.85090
 Alpha virt. eigenvalues --    6.89822   6.92998   6.94135   6.97533   7.06455
 Alpha virt. eigenvalues --    7.08083   7.08554   7.13036   7.15874   7.17310
 Alpha virt. eigenvalues --    7.25273   7.32433   7.36476   7.38250   7.45939
 Alpha virt. eigenvalues --   22.46084  22.50264  22.57128  22.75755  23.14585
 Alpha virt. eigenvalues --   23.18797  23.43813  23.51210  23.57826  43.89663
 Alpha virt. eigenvalues --   43.94681  43.97913  44.02204  44.04275  44.38830
 Alpha virt. eigenvalues --   44.58149
          Condensed to atoms (all electrons):
               1          2          3          4          5          6
     1  C    4.386172  -0.029766   0.039485   0.254267   0.362329  -0.026402
     2  C   -0.029766   5.087209   0.349454  -0.005801  -0.081436   0.556861
     3  C    0.039485   0.349454   5.062901   0.270247   0.031020  -0.045922
     4  C    0.254267  -0.005801   0.270247   5.546893  -0.122588  -0.036430
     5  O    0.362329  -0.081436   0.031020  -0.122588   7.805722   0.303499
     6  C   -0.026402   0.556861  -0.045922  -0.036430   0.303499   5.102294
     7  C    0.000122  -0.071155   0.317783  -0.062135  -0.002968  -0.000016
     8  C   -0.004914  -0.041127  -0.006839   0.007748  -0.027548   0.233062
     9  H    0.000020   0.367959  -0.001957   0.006881   0.002286  -0.004961
    10  H   -0.000023  -0.001204   0.000044  -0.000047  -0.000766   0.024046
    11  O    0.000196   0.007674  -0.056993   0.000756   0.000010  -0.000761
    12  O    0.000220   0.008874  -0.000648   0.000774  -0.002787  -0.135800
    13  O   -0.000243   0.031242   0.001887   0.000874   0.003019  -0.155556
    14  H    0.000001   0.000073   0.000218   0.000230  -0.000000  -0.000003
    15  C   -0.000048  -0.000109   0.002235  -0.002023  -0.000002  -0.000103
    16  O    0.000000  -0.000001   0.000047   0.000017  -0.000000   0.000000
    17  H    0.000005  -0.000032  -0.000180   0.000200  -0.000000   0.000000
    18  O   -0.000413   0.003907  -0.059775   0.006631   0.000007  -0.000447
    19  C   -0.000008  -0.000024   0.001162   0.000003  -0.000000   0.000005
    20  H    0.000000   0.000000   0.000002   0.000000  -0.000000   0.000000
    21  H    0.000013  -0.000003  -0.000014   0.000126   0.000000   0.000000
    22  H    0.000001   0.000007   0.000110   0.000038   0.000000   0.000001
    23  H   -0.000025  -0.000584   0.009949  -0.000304  -0.000000   0.000036
    24  H   -0.019825   0.006929  -0.019234   0.396359   0.003007   0.000168
    25  O    0.724707   0.002140   0.014964  -0.110941  -0.094472  -0.001091
               7          8          9         10         11         12
     1  C    0.000122  -0.004914   0.000020  -0.000023   0.000196   0.000220
     2  C   -0.071155  -0.041127   0.367959  -0.001204   0.007674   0.008874
     3  C    0.317783  -0.006839  -0.001957   0.000044  -0.056993  -0.000648
     4  C   -0.062135   0.007748   0.006881  -0.000047   0.000756   0.000774
     5  O   -0.002968  -0.027548   0.002286  -0.000766   0.000010  -0.002787
     6  C   -0.000016   0.233062  -0.004961   0.024046  -0.000761  -0.135800
     7  C    4.505758  -0.003557  -0.011258   0.000003   0.447901  -0.000030
     8  C   -0.003557   4.392287  -0.010451  -0.030206  -0.000063   0.454363
     9  H   -0.011258  -0.010451   0.414781  -0.000054   0.003853   0.000662
    10  H    0.000003  -0.030206  -0.000054   0.323558   0.000000   0.300955
    11  O    0.447901  -0.000063   0.003853   0.000000   7.645279  -0.000000
    12  O   -0.000030   0.454363   0.000662   0.300955  -0.000000   7.841110
    13  O   -0.000445   0.693925   0.014211   0.002262   0.000000  -0.079239
    14  H   -0.005912   0.000000   0.000009   0.000000  -0.000084   0.000000
    15  C   -0.038148  -0.000002  -0.000024  -0.000000  -0.013183   0.000000
    16  O    0.001207   0.000000   0.000000  -0.000000  -0.000039   0.000000
    17  H   -0.006626   0.000000  -0.000000   0.000000  -0.000407   0.000000
    18  O    0.443505   0.000005   0.000064   0.000000  -0.055492  -0.000000
    19  C    0.001696   0.000000  -0.000001   0.000000   0.001390  -0.000000
    20  H   -0.000017   0.000000   0.000000   0.000000  -0.000005   0.000000
    21  H   -0.000490   0.000000   0.000000   0.000000  -0.000052   0.000000
    22  H    0.001511   0.000000   0.000000   0.000000  -0.000083   0.000000
    23  H   -0.018821  -0.000001   0.000008  -0.000000   0.305826   0.000000
    24  H   -0.021587   0.000108  -0.000065   0.000000   0.000201  -0.000000
    25  O   -0.000809   0.000363   0.000037  -0.000006   0.000001  -0.000089
              13         14         15         16         17         18
     1  C   -0.000243   0.000001  -0.000048   0.000000   0.000005  -0.000413
     2  C    0.031242   0.000073  -0.000109  -0.000001  -0.000032   0.003907
     3  C    0.001887   0.000218   0.002235   0.000047  -0.000180  -0.059775
     4  C    0.000874   0.000230  -0.002023   0.000017   0.000200   0.006631
     5  O    0.003019  -0.000000  -0.000002  -0.000000  -0.000000   0.000007
     6  C   -0.155556  -0.000003  -0.000103   0.000000   0.000000  -0.000447
     7  C   -0.000445  -0.005912  -0.038148   0.001207  -0.006626   0.443505
     8  C    0.693925   0.000000  -0.000002   0.000000   0.000000   0.000005
     9  H    0.014211   0.000009  -0.000024   0.000000  -0.000000   0.000064
    10  H    0.002262   0.000000  -0.000000  -0.000000   0.000000   0.000000
    11  O    0.000000  -0.000084  -0.013183  -0.000039  -0.000407  -0.055492
    12  O   -0.079239   0.000000   0.000000   0.000000   0.000000  -0.000000
    13  O    7.825862   0.000000  -0.000000   0.000000   0.000000  -0.000000
    14  H    0.000000   0.469206   0.403351   0.007032  -0.042536  -0.021825
    15  C   -0.000000   0.403351   5.210321  -0.042695   0.396457   0.141736
    16  O    0.000000   0.007032  -0.042695   8.046150   0.002274   0.003654
    17  H    0.000000  -0.042536   0.396457   0.002274   0.466707  -0.020046
    18  O   -0.000000  -0.021825   0.141736   0.003654  -0.020046   7.715179
    19  C   -0.000000  -0.018496   0.262339   0.242389  -0.011969  -0.023163
    20  H    0.000000  -0.001288  -0.005473   0.306016   0.003391  -0.000056
    21  H    0.000000  -0.008522  -0.046170  -0.031725   0.005661   0.003027
    22  H    0.000000   0.006302  -0.056972  -0.036808  -0.009205   0.003650
    23  H    0.000000  -0.001827   0.009019   0.000031  -0.001585  -0.004168
    24  H   -0.000002   0.000067  -0.000458   0.000004  -0.000018   0.008655
    25  O    0.000002  -0.000000   0.000001  -0.000000  -0.000000   0.000009
              19         20         21         22         23         24
     1  C   -0.000008   0.000000   0.000013   0.000001  -0.000025  -0.019825
     2  C   -0.000024   0.000000  -0.000003   0.000007  -0.000584   0.006929
     3  C    0.001162   0.000002  -0.000014   0.000110   0.009949  -0.019234
     4  C    0.000003   0.000000   0.000126   0.000038  -0.000304   0.396359
     5  O   -0.000000  -0.000000   0.000000   0.000000  -0.000000   0.003007
     6  C    0.000005   0.000000   0.000000   0.000001   0.000036   0.000168
     7  C    0.001696  -0.000017  -0.000490   0.001511  -0.018821  -0.021587
     8  C    0.000000   0.000000   0.000000   0.000000  -0.000001   0.000108
     9  H   -0.000001   0.000000   0.000000   0.000000   0.000008  -0.000065
    10  H    0.000000   0.000000   0.000000   0.000000  -0.000000   0.000000
    11  O    0.001390  -0.000005  -0.000052  -0.000083   0.305826   0.000201
    12  O   -0.000000   0.000000   0.000000   0.000000   0.000000  -0.000000
    13  O   -0.000000   0.000000   0.000000   0.000000   0.000000  -0.000002
    14  H   -0.018496  -0.001288  -0.008522   0.006302  -0.001827   0.000067
    15  C    0.262339  -0.005473  -0.046170  -0.056972   0.009019  -0.000458
    16  O    0.242389   0.306016  -0.031725  -0.036808   0.000031   0.000004
    17  H   -0.011969   0.003391   0.005661  -0.009205  -0.001585  -0.000018
    18  O   -0.023163  -0.000056   0.003027   0.003650  -0.004168   0.008655
    19  C    4.814133  -0.026872   0.418939   0.443586   0.001010  -0.000013
    20  H   -0.026872   0.369404   0.007825  -0.011499   0.000000  -0.000002
    21  H    0.418939   0.007825   0.520225  -0.035355  -0.000023  -0.000083
    22  H    0.443586  -0.011499  -0.035355   0.524736  -0.000068   0.000256
    23  H    0.001010   0.000000  -0.000023  -0.000068   0.281947  -0.000040
    24  H   -0.000013  -0.000002  -0.000083   0.000256  -0.000040   0.430581
    25  O   -0.000001  -0.000000   0.000000   0.000000  -0.000000   0.002818
              25
     1  C    0.724707
     2  C    0.002140
     3  C    0.014964
     4  C   -0.110941
     5  O   -0.094472
     6  C   -0.001091
     7  C   -0.000809
     8  C    0.000363
     9  H    0.000037
    10  H   -0.000006
    11  O    0.000001
    12  O   -0.000089
    13  O    0.000002
    14  H   -0.000000
    15  C    0.000001
    16  O   -0.000000
    17  H   -0.000000
    18  O    0.000009
    19  C   -0.000001
    20  H   -0.000000
    21  H    0.000000
    22  H    0.000000
    23  H   -0.000000
    24  H    0.002818
    25  O    7.777905
 Mulliken charges:
               1
     1  C    0.314129
     2  C   -0.191085
     3  C    0.090054
     4  C   -0.151774
     5  O   -0.178330
     6  C    0.187522
     7  C    0.524488
     8  C    0.342845
     9  H    0.217999
    10  H    0.381438
    11  O   -0.285926
    12  O   -0.388364
    13  O   -0.337802
    14  H    0.214005
    15  C   -0.220050
    16  O   -0.497552
    17  H    0.217908
    18  O   -0.144642
    19  C   -0.106104
    20  H    0.358571
    21  H    0.166622
    22  H    0.169792
    23  H    0.419617
    24  H    0.212177
    25  O   -0.315537
 Sum of Mulliken charges =   1.00000
 Mulliken charges with hydrogens summed into heavy atoms:
               1
     1  C    0.314129
     2  C    0.026914
     3  C    0.090054
     4  C    0.060403
     5  O   -0.178330
     6  C    0.187522
     7  C    0.524488
     8  C    0.342845
    11  O    0.133692
    12  O   -0.006926
    13  O   -0.337802
    15  C    0.211863
    16  O   -0.138981
    18  O   -0.144642
    19  C    0.230309
    25  O   -0.315537
 Electronic spatial extent (au):  <R**2>=           5353.8405
 Charge=              1.0000 electrons
 Dipole moment (field-independent basis, Debye):
    X=              6.7249    Y=             -9.7614    Z=              0.8750  Tot=             11.8859
 Quadrupole moment (field-independent basis, Debye-Ang):
   XX=            -94.1041   YY=            -39.8387   ZZ=            -89.3695
   XY=            -10.8126   XZ=             -5.1156   YZ=             -4.8599
 Traceless Quadrupole moment (field-independent basis, Debye-Ang):
   XX=            -19.6667   YY=             34.5987   ZZ=            -14.9321
   XY=            -10.8126   XZ=             -5.1156   YZ=             -4.8599
 Octapole moment (field-independent basis, Debye-Ang**2):
  XXX=             91.3274  YYY=              6.6945  ZZZ=            106.0593  XYY=             12.8288
  XXY=            -68.3487  XXZ=             55.1469  XZZ=              8.8034  YZZ=              2.4304
  YYZ=             97.7465  XYZ=            -29.5923
 Hexadecapole moment (field-independent basis, Debye-Ang**3):
 XXXX=          -1180.2149 YYYY=          -3683.8306 ZZZZ=           -347.0206 XXXY=            340.5630
 XXXZ=           -188.7472 YYYX=            204.7662 YYYZ=           -636.0704 ZZZX=           -117.7390
 ZZZY=           -301.2541 XXYY=          -1060.8461 XXZZ=           -262.1768 YYZZ=           -978.0917
 XXYZ=            -93.4183 YYXZ=             -7.3599 ZZXY=            132.8037
 N-N= 1.081517547165D+03 E-N=-4.194021002843D+03  KE= 8.709799026373D+02
   1 Symmetry operations used in ECPInt.
 ECPInt:  NShTT=   22578 NPrTT=   70504 LenC2=   19172 LenP2D=   43159.
 LDataN:  DoStor=T MaxTD1= 7 Len=  274
 D1PCM: PCM CHGder 1st derivatives, ID1Alg=3 FixD1E=F DoIter=F DoCFld=F I1PDM=0.
 Calling FoFJK, ICntrl=      2127 FMM=F ISym2X=0 I1Cent= 0 IOpClX= 0 NMat=1 NMatS=1 NMatT=0.
 -------------------------------------------------------------------
 Center     Atomic                   Forces (Hartrees/Bohr)
 Number     Number              X              Y              Z
 -------------------------------------------------------------------
      1        6           0.001149576    0.001600005    0.001426249
      2        6           0.001123527    0.001323779    0.003393791
      3        6           0.008950609    0.001971771    0.002100250
      4        6           0.000113282   -0.001242742   -0.001394788
      5        8          -0.002357198   -0.000749379   -0.001041200
      6        6           0.001165366   -0.000670948    0.000360074
      7        6           0.009575950   -0.017897733    0.001569847
      8        6          -0.000008343   -0.001552569   -0.000586321
      9        1           0.000499898   -0.003131266   -0.001900793
     10        1          -0.000011048   -0.000071584    0.000007089
     11        8          -0.000591407    0.029999205    0.004517321
     12        8          -0.000249211    0.000702857    0.000066054
     13        8           0.000234530    0.000682266    0.000228904
     14        1          -0.000238247   -0.002075498   -0.004133060
     15        6          -0.006326954    0.004491960    0.000143338
     16        8          -0.000408062    0.001126180   -0.000011913
     17        1          -0.001790407   -0.003364881    0.001840226
     18        8          -0.013111667   -0.010453139   -0.007346053
     19        6           0.000936617   -0.003659881   -0.000551791
     20        1          -0.000091975   -0.000316545    0.000104572
     21        1           0.000436141    0.000529585    0.000395492
     22        1           0.000617792    0.000724405    0.000200363
     23        1           0.001240841    0.002182418    0.000939038
     24        1          -0.000281346    0.000243262    0.000077801
     25        8          -0.000578266   -0.000391527   -0.000404488
 -------------------------------------------------------------------
 Cartesian Forces:  Max     0.029999205 RMS     0.005078959

 GradGradGradGradGradGradGradGradGradGradGradGradGradGradGradGradGradGrad
 Berny optimization.
 FormGI is forming the generalized inverse of G from B-inverse, IUseBI=4.
 Internal  Forces:  Max     0.045313336 RMS     0.006510444
 Search for a local minimum.
 Step number   1 out of a maximum of  122
 All quantities printed in internal units (Hartrees-Bohrs-Radians)
 Mixed Optimization -- RFO/linear search
 Second derivative matrix not updated -- first step.
 ITU=  0
     Eigenvalues ---    0.00546   0.00773   0.00787   0.01082   0.01465
     Eigenvalues ---    0.01482   0.01592   0.01695   0.01929   0.01958
     Eigenvalues ---    0.02054   0.02192   0.02232   0.02412   0.02662
     Eigenvalues ---    0.02724   0.03331   0.03561   0.05330   0.05508
     Eigenvalues ---    0.05578   0.06038   0.11138   0.11286   0.13402
     Eigenvalues ---    0.13725   0.15985   0.15998   0.16000   0.16000
     Eigenvalues ---    0.16000   0.22002   0.22020   0.23499   0.23502
     Eigenvalues ---    0.24996   0.24999   0.25000   0.25000   0.25000
     Eigenvalues ---    0.25000   0.25000   0.25000   0.25000   0.30690
     Eigenvalues ---    0.32430   0.34612   0.34891   0.34962   0.35019
     Eigenvalues ---    0.35051   0.35754   0.35931   0.36006   0.36009
     Eigenvalues ---    0.39364   0.44388   0.48763   0.52346   0.52704
     Eigenvalues ---    0.53204   0.54824   0.56089   0.56747   0.61435
     Eigenvalues ---    0.74310   0.80101   1.05465   1.07734
 RFO step:  Lambda=-1.68217886D-02 EMin= 5.45513102D-03
 Linear search not attempted -- first point.
 Iteration  1 RMS(Cart)=  0.11867779 RMS(Int)=  0.00516294
 Iteration  2 RMS(Cart)=  0.00840481 RMS(Int)=  0.00008438
 Iteration  3 RMS(Cart)=  0.00005941 RMS(Int)=  0.00008177
 Iteration  4 RMS(Cart)=  0.00000001 RMS(Int)=  0.00008177
 Variable       Old X    -DE/DX   Delta X   Delta X   Delta X     New X
                                 (Linear)    (Quad)   (Total)
    R1        2.76214   0.00019   0.00000   0.00048   0.00047   2.76261
    R2        2.59539  -0.00073   0.00000  -0.00131  -0.00132   2.59407
    R3        2.25692   0.00067   0.00000   0.00062   0.00062   2.25754
    R4        2.70991  -0.00207   0.00000  -0.00503  -0.00502   2.70489
    R5        2.53020  -0.00014   0.00000  -0.00021  -0.00021   2.52999
    R6        2.04072  -0.00068   0.00000  -0.00181  -0.00181   2.03891
    R7        2.54513   0.00006   0.00000   0.00001   0.00002   2.54515
    R8        2.78945  -0.00663   0.00000  -0.01805  -0.01805   2.77140
    R9        2.04068  -0.00012   0.00000  -0.00031  -0.00031   2.04037
   R10        2.53301   0.00226   0.00000   0.00395   0.00394   2.53696
   R11        2.83363  -0.00030   0.00000  -0.00089  -0.00089   2.83275
   R12        2.41138   0.00205   0.00000   0.00270   0.00270   2.41408
   R13        2.37861   0.02218   0.00000   0.02713   0.02713   2.40574
   R14        2.49822   0.00061   0.00000   0.00097   0.00097   2.49919
   R15        2.26527   0.00041   0.00000   0.00038   0.00038   2.26565
   R16        1.83463  -0.00007   0.00000  -0.00012  -0.00012   1.83451
   R17        1.83931  -0.00142   0.00000  -0.00260  -0.00260   1.83671
   R18        2.05592   0.00187   0.00000   0.00509   0.00509   2.06102
   R19        2.05736   0.00185   0.00000   0.00506   0.00506   2.06242
   R20        2.77489  -0.00152   0.00000  -0.00403  -0.00403   2.77086
   R21        2.86608   0.00018   0.00000   0.00057   0.00057   2.86665
   R22        2.65993  -0.00095   0.00000  -0.00207  -0.00207   2.65785
   R23        1.81988   0.00023   0.00000   0.00040   0.00040   1.82029
   R24        2.05852  -0.00036   0.00000  -0.00098  -0.00098   2.05754
   R25        2.06309  -0.00046   0.00000  -0.00125  -0.00125   2.06184
    A1        2.01724   0.00018   0.00000   0.00095   0.00093   2.01818
    A2        2.19365  -0.00056   0.00000  -0.00226  -0.00227   2.19139
    A3        2.07229   0.00039   0.00000   0.00130   0.00130   2.07358
    A4        2.04172  -0.00084   0.00000  -0.00347  -0.00350   2.03821
    A5        2.17336  -0.00292   0.00000  -0.01689  -0.01697   2.15639
    A6        2.06730   0.00379   0.00000   0.02113   0.02106   2.08836
    A7        2.11321   0.00217   0.00000   0.00787   0.00788   2.12109
    A8        2.10747  -0.00525   0.00000  -0.01950  -0.01952   2.08795
    A9        2.06236   0.00309   0.00000   0.01175   0.01173   2.07410
   A10        2.09714  -0.00124   0.00000  -0.00537  -0.00537   2.09177
   A11        2.03651   0.00028   0.00000   0.00082   0.00080   2.03731
   A12        2.14940   0.00097   0.00000   0.00469   0.00467   2.15407
   A13        2.14298  -0.00005   0.00000   0.00057   0.00057   2.14355
   A14        2.15392  -0.00021   0.00000  -0.00046  -0.00045   2.15347
   A15        2.11937   0.00045   0.00000   0.00152   0.00151   2.12088
   A16        2.00989  -0.00024   0.00000  -0.00104  -0.00105   2.00884
   A17        2.15699  -0.03743   0.00000  -0.14030  -0.14030   2.01669
   A18        2.05905  -0.00788   0.00000  -0.02953  -0.02953   2.02952
   A19        2.06714   0.04531   0.00000   0.16983   0.16983   2.23697
   A20        1.96139   0.00006   0.00000   0.00023   0.00023   1.96162
   A21        2.12541   0.00069   0.00000   0.00258   0.00257   2.12798
   A22        2.19638  -0.00075   0.00000  -0.00280  -0.00280   2.19358
   A23        2.00911   0.00418   0.00000   0.02362   0.02362   2.03273
   A24        1.90142  -0.00004   0.00000  -0.00022  -0.00022   1.90119
   A25        1.92814   0.00316   0.00000   0.02308   0.02262   1.95075
   A26        1.88300   0.00129   0.00000   0.01084   0.01076   1.89376
   A27        1.95571  -0.00327   0.00000  -0.02542  -0.02554   1.93017
   A28        1.87255   0.00160   0.00000   0.01530   0.01526   1.88781
   A29        1.96707  -0.00305   0.00000  -0.02246  -0.02257   1.94450
   A30        1.85187   0.00057   0.00000   0.00107   0.00112   1.85300
   A31        1.91001   0.00028   0.00000   0.00157   0.00157   1.91158
   A32        2.10300   0.02287   0.00000   0.08572   0.08572   2.18872
   A33        1.89962   0.00069   0.00000   0.00295   0.00296   1.90258
   A34        1.91058  -0.00081   0.00000  -0.00582  -0.00583   1.90475
   A35        1.92142  -0.00085   0.00000  -0.00571  -0.00572   1.91570
   A36        1.87695   0.00018   0.00000   0.00250   0.00250   1.87946
   A37        1.95976   0.00028   0.00000   0.00349   0.00350   1.96326
   A38        1.89460   0.00050   0.00000   0.00250   0.00247   1.89707
    D1       -0.00630   0.00034   0.00000   0.00888   0.00888   0.00258
    D2       -3.13093   0.00003   0.00000  -0.00017  -0.00020  -3.13114
    D3        3.13353   0.00006   0.00000   0.00134   0.00136   3.13490
    D4        0.00890  -0.00025   0.00000  -0.00771  -0.00773   0.00118
    D5       -0.00915  -0.00015   0.00000  -0.00434  -0.00433  -0.01349
    D6        3.13406   0.00010   0.00000   0.00265   0.00265   3.13672
    D7       -0.00518  -0.00007   0.00000  -0.00152  -0.00150  -0.00668
    D8        3.11805   0.00022   0.00000   0.00635   0.00635   3.12440
    D9        3.09243   0.00079   0.00000   0.01995   0.01976   3.11218
   D10       -0.06753   0.00109   0.00000   0.02782   0.02760  -0.03993
   D11       -0.01067   0.00025   0.00000   0.00638   0.00641  -0.00426
   D12        3.12564   0.00036   0.00000   0.01003   0.01010   3.13574
   D13       -3.11104  -0.00039   0.00000  -0.01278  -0.01301  -3.12405
   D14        0.02527  -0.00029   0.00000  -0.00913  -0.00932   0.01595
   D15        0.01332  -0.00021   0.00000  -0.00606  -0.00609   0.00723
   D16        3.13681   0.00010   0.00000   0.00355   0.00358   3.14040
   D17       -3.11037  -0.00042   0.00000  -0.01341  -0.01356  -3.12393
   D18        0.01312  -0.00010   0.00000  -0.00380  -0.00388   0.00924
   D19        0.01784  -0.00014   0.00000  -0.00515  -0.00529   0.01255
   D20       -3.12188  -0.00031   0.00000  -0.00882  -0.00868  -3.13055
   D21       -3.14159   0.00014   0.00000   0.00246   0.00232  -3.13927
   D22        0.00187  -0.00003   0.00000  -0.00121  -0.00107   0.00080
   D23        0.01828  -0.00014   0.00000  -0.00333  -0.00337   0.01491
   D24       -3.11833  -0.00024   0.00000  -0.00677  -0.00686  -3.12519
   D25        3.13548   0.00002   0.00000   0.00050   0.00048   3.13597
   D26       -0.00541  -0.00008   0.00000  -0.00241  -0.00243  -0.00784
   D27       -0.01098   0.00011   0.00000   0.00387   0.00389  -0.00709
   D28        3.13131   0.00002   0.00000   0.00096   0.00098   3.13228
   D29        3.14159  -0.00020   0.00000  -0.00450  -0.00457   3.13703
   D30       -0.00188  -0.00008   0.00000  -0.00102  -0.00096  -0.00284
   D31        3.10874   0.00003   0.00000   0.00139   0.00158   3.11032
   D32       -0.03107  -0.00005   0.00000  -0.00175  -0.00194  -0.03301
   D33       -3.14126  -0.00007   0.00000  -0.00195  -0.00195   3.13997
   D34       -0.00040   0.00003   0.00000   0.00110   0.00110   0.00070
   D35       -0.98471  -0.00296   0.00000  -0.03164  -0.03183  -1.01654
   D36        1.09291   0.00232   0.00000   0.00968   0.00985   1.10277
   D37       -3.08356  -0.00011   0.00000  -0.00805  -0.00804  -3.09160
   D38        1.04313  -0.00033   0.00000  -0.00231  -0.00224   1.04090
   D39       -1.00385  -0.00049   0.00000  -0.00371  -0.00363  -1.00747
   D40       -3.08515  -0.00009   0.00000   0.00030   0.00036  -3.08479
   D41       -1.14468   0.00046   0.00000   0.00485   0.00477  -1.13991
   D42        3.09152   0.00031   0.00000   0.00345   0.00338   3.09490
   D43        1.01022   0.00071   0.00000   0.00745   0.00736   1.01758
   D44        3.09407  -0.00019   0.00000  -0.00223  -0.00222   3.09186
   D45        1.04709  -0.00034   0.00000  -0.00363  -0.00361   1.04348
   D46       -1.03421   0.00006   0.00000   0.00037   0.00037  -1.03384
   D47        1.39973   0.00014   0.00000   0.00404   0.00405   1.40378
   D48       -2.81521  -0.00034   0.00000   0.00013   0.00013  -2.81508
   D49       -0.73211   0.00056   0.00000   0.00691   0.00691  -0.72520
         Item               Value     Threshold  Converged?
 Maximum Force            0.045313     0.000450     NO 
 RMS     Force            0.006510     0.000300     NO 
 Maximum Displacement     0.651639     0.001800     NO 
 RMS     Displacement     0.121915     0.001200     NO 
 Predicted change in Energy=-8.963495D-03
 GradGradGradGradGradGradGradGradGradGradGradGradGradGradGradGradGradGrad

                          Input orientation:                          
 ---------------------------------------------------------------------
 Center     Atomic      Atomic             Coordinates (Angstroms)
 Number     Number       Type             X           Y           Z
 ---------------------------------------------------------------------
      1          6           0       -2.050146    1.026505   -0.894709
      2          6           0        0.596837    1.290815    0.051462
      3          6           0        0.080637    0.007781   -0.317556
      4          6           0       -1.180161   -0.141410   -0.767102
      5          8           0       -1.489406    2.226810   -0.535256
      6          6           0       -0.231253    2.334626   -0.079480
      7          6           0        0.941329   -1.175602   -0.219515
      8          6           0        0.196782    3.724763    0.282988
      9          1           0        1.591737    1.444125    0.439787
     10          1           0       -0.429513    5.493999    0.328212
     11          8           0        2.123059   -0.962749    0.216557
     12          8           0       -0.758403    4.615911    0.076790
     13          8           0        1.291671    3.959598    0.711368
     14          1           0        1.980438   -3.496581   -1.245349
     15          6           0        1.109243   -3.576647   -0.594112
     16          8           0        0.736921   -5.832170   -1.259915
     17          1           0        1.391142   -3.826829    0.430126
     18          8           0        0.421501   -2.281797   -0.575599
     19          6           0        0.114359   -4.575409   -1.154350
     20          1           0        0.741459   -6.262601   -0.398192
     21          1           0       -0.176764   -4.265272   -2.156627
     22          1           0       -0.775934   -4.602355   -0.524188
     23          1           0        2.703746   -1.738629    0.290643
     24          1           0       -1.600212   -1.093601   -1.054632
     25          8           0       -3.178531    1.012707   -1.286777
 ---------------------------------------------------------------------
                    Distance matrix (angstroms):
                    1          2          3          4          5
     1  C    0.000000
     2  C    2.823406   0.000000
     3  C    2.431284   1.431368   0.000000
     4  C    1.461911   2.424672   1.346833   0.000000
     5  O    1.372722   2.360664   2.726998   2.399552   0.000000
     6  C    2.384145   1.338813   2.359695   2.739343   1.342499
     7  C    3.775458   2.505057   1.466560   2.422834   4.193396
     8  C    3.703545   2.477448   3.766974   4.236266   2.399295
     9  H    3.901102   1.078947   2.218124   3.413783   3.325169
    10  H    4.907187   4.335521   5.547599   5.789733   3.541677
    11  O    4.754754   2.726749   2.323509   3.543084   4.877337
    12  O    3.936527   3.590764   4.700464   4.849963   2.572309
    13  O    4.727605   2.835608   4.259360   5.011396   3.505854
    14  H    6.068515   5.149294   4.092750   4.634143   6.730621
    15  C    5.591163   4.936751   3.739336   4.131846   6.358974
    16  O    7.412324   7.244049   5.951787   6.025182   8.392187
    17  H    6.095286   5.192743   4.120763   4.650513   6.773187
    18  O    4.141948   3.631460   2.329150   2.680159   4.897012
    19  C    6.011151   6.008273   4.659076   4.635309   7.016090
    20  H    7.821167   7.568169   6.305622   6.426328   8.778703
    21  H    5.753686   6.028616   4.659122   4.465851   6.819017
    22  H    5.783162   6.078266   4.693587   4.485804   6.866342
    23  H    5.625880   3.697811   3.209448   4.330666   5.830038
    24  H    2.173216   3.425772   2.140462   1.079716   3.362612
    25  O    1.194638   4.015175   3.545622   2.365487   2.211780
                    6          7          8          9         10
     6  C    0.000000
     7  C    3.703546   0.000000
     8  C    1.499026   4.982010   0.000000
     9  H    2.094260   2.778610   2.678021   0.000000
    10  H    3.191733   6.831016   1.877362   4.527624   0.000000
    11  O    4.062401   1.277478   5.068306   2.474909   6.943895
    12  O    2.346608   6.043054   1.322513   3.964234   0.970782
    13  O    2.363318   5.230636   1.198932   2.547823   2.337449
    14  H    6.344589   2.742085   7.593751   5.234630   9.440047
    15  C    6.083167   2.435885   7.410295   5.148776   9.246354
    16  O    8.308269   4.775756   9.695734   7.520915  11.496295
    17  H    6.391822   2.766473   7.646874   5.274778   9.497526
    18  O    4.688665   1.273061   6.071773   4.035214   7.874268
    19  C    7.001669   3.621669   8.424107   6.399899  10.192485
    20  H    8.657947   5.094059  10.025373   7.798641  11.837080
    21  H    6.919260   3.814263   8.362530   6.516607  10.073811
    22  H    6.972527   3.845056   8.422505   6.564680  10.138192
    23  H    5.034145   1.919212   6.011121   3.374719   7.882235
    24  H    3.818077   2.676486   5.313666   4.343027   6.832223
    25  O    3.448402   4.785497   4.605664   5.091424   5.499751
                   11         12         13         14         15
    11  O    0.000000
    12  O    6.280431   0.000000
    13  O    5.016527   2.244156   0.000000
    14  H    2.928791   8.663824   7.739364   0.000000
    15  C    2.918470   8.429485   7.650656   1.090642   0.000000
    16  O    5.273766  10.638852  10.003620   2.646038   2.381029
    17  H    2.963826   8.719246   7.792139   1.806529   1.091385
    18  O    2.294057   7.028241   6.431834   2.086756   1.466277
    19  C    4.354948   9.314386   8.815515   2.157405   1.516966
    20  H    5.511366  10.991688  10.296951   3.147000   2.718087
    21  H    4.672028   9.176158   8.833469   2.464718   2.137633
    22  H    4.711644   9.237852   8.894302   3.056205   2.147291
    23  H    0.971945   7.239641   5.885640   2.443940   2.589119
    24  H    3.936470   5.881096   6.084124   4.316450   3.703882
    25  O    5.853998   4.549661   5.714845   6.852033   6.318778
                   16         17         18         19         20
    16  O    0.000000
    17  H    2.702894   0.000000
    18  O    3.629452   2.082981   0.000000
    19  C    1.406476   2.168205   2.385360   0.000000
    20  H    0.963254   2.653523   3.997580   1.952344   0.000000
    21  H    2.023384   3.056445   2.606098   1.088805   2.815058
    22  H    2.083859   2.491661   2.611796   1.091078   2.252725
    23  H    4.798927   2.470417   2.500810   4.103687   4.979094
    24  H    5.287567   4.315465   2.393451   3.882355   5.712520
    25  O    7.885672   6.873920   4.931507   6.487503   8.311799
                   21         22         23         24         25
    21  H    0.000000
    22  H    1.771295   0.000000
    23  H    4.546471   4.579634   0.000000
    24  H    3.646929   3.643097   4.555204   0.000000
    25  O    6.133865   6.154911   6.682760   2.642255   0.000000
 Symmetry turned off by external request.
 Stoichiometry    C9H9O7(1+)
 Framework group  C1[X(C9H9O7)]
 Deg. of freedom    69
 Full point group                 C1      NOp   1
 Rotational constants (GHZ):           1.1449812           0.2258654           0.1892539
 Standard basis: def2TZVP (5D, 7F)
   550 basis functions,   888 primitive gaussians,   630 cartesian basis functions
    59 alpha electrons       59 beta electrons
       nuclear repulsion energy      1081.4411524501 Hartrees.
 NAtoms=   25 NActive=   25 NUniq=   25 SFac= 1.00D+00 NAtFMM=   60 NAOKFM=F Big=F
 Integral buffers will be    131072 words long.
 Raffenetti 2 integral format.
 Two-electron integral symmetry is turned off.
 ------------------------------------------------------------------------------
 Polarizable Continuum Model (PCM)
 =================================
 Model                : PCM.
 Atomic radii         : UFF (Universal Force Field).
 Polarization charges : Total charges.
 Charge compensation  : None.
 Solution method      : On-the-fly selection.
 Cavity type          : Scaled VdW (van der Waals Surface) (Alpha=1.100).
 Cavity algorithm     : GePol (No added spheres)
                        Default sphere list used, NSphG=   25.
                        Lebedev-Laikov grids with approx.  7.0 points / Ang**2.
                        Smoothing algorithm: York/Karplus (Gamma=1.0000).
                        Polarization charges: spherical gaussians, with
                                              point-specific exponents (IZeta= 3).
                        Self-potential: point-specific (ISelfS= 7).
                        Self-field    : sphere-specific E.n sum rule (ISelfD= 2).
 1st derivatives      : Analytical E(r).r(x)/FMM algorithm (CHGder, D1EAlg=3).
                        Cavity 1st derivative terms included.
 Solvent              : 1,2-EthaneDiol, Eps=  40.245000 Eps(inf)=   2.050051
 ------------------------------------------------------------------------------
 One-electron integrals computed using PRISM.
   1 Symmetry operations used in ECPInt.
 ECPInt:  NShTT=   22578 NPrTT=   70504 LenC2=   19212 LenP2D=   43226.
 LDataN:  DoStor=T MaxTD1= 6 Len=  172
 NBasis=   550 RedAO= T EigKep=  2.35D-05  NBF=   550
 NBsUse=   550 1.00D-06 EigRej= -1.00D+00 NBFU=   550
 Initial guess from the checkpoint file:  "/dev/shm/pdc2_eghtsct_prodc.chk"
 B after Tr=     0.006473   -0.008916    0.001051
         Rot=    0.999999    0.000460   -0.000752   -0.001420 Ang=   0.19 deg.
 ExpMin= 9.52D-02 ExpMax= 2.70D+04 ExpMxC= 9.22D+02 IAcc=3 IRadAn=         5 AccDes= 0.00D+00
 Harris functional with IExCor= 1009 and IRadAn=       5 diagonalized for initial guess.
 HarFok:  IExCor= 1009 AccDes= 0.00D+00 IRadAn=         5 IDoV= 1 UseB2=F ITyADJ=14
 ICtDFT=  3500011 ScaDFX=  1.000000  1.000000  1.000000  1.000000
 FoFCou: FMM=F IPFlag=           0 FMFlag=      100000 FMFlg1=           0
         NFxFlg=           0 DoJE=T BraDBF=F KetDBF=T FulRan=T
         wScrn=  0.000000 ICntrl=       500 IOpCl=  0 I1Cent=   200000004 NGrid=           0
         NMat0=    1 NMatS0=      1 NMatT0=    0 NMatD0=    1 NMtDS0=    0 NMtDT0=    0
 Symmetry not used in FoFCou.
 Requested convergence on RMS density matrix=1.00D-08 within  32 cycles.
 Requested convergence on MAX density matrix=1.00D-06.
 Requested convergence on             energy=1.00D-06.
 No special actions if energy rises.
 Inv3:  Mode=1 IEnd=    30165723.
 Iteration    1 A*A^-1 deviation from unit magnitude is 3.55D-15 for   2138.
 Iteration    1 A*A^-1 deviation from orthogonality  is 1.89D-15 for   1649    306.
 Iteration    1 A^-1*A deviation from unit magnitude is 3.11D-15 for    254.
 Iteration    1 A^-1*A deviation from orthogonality  is 2.44D-15 for   3064    666.
 Error on total polarization charges =  0.01011
 SCF Done:  E(RM062X) =  -874.769882491     A.U. after   12 cycles
            NFock= 12  Conv=0.49D-08     -V/T= 2.0044
 QCSCF skips out because SCF is already converged.
   1 Symmetry operations used in ECPInt.
 ECPInt:  NShTT=   22578 NPrTT=   70504 LenC2=   19212 LenP2D=   43226.
 LDataN:  DoStor=T MaxTD1= 7 Len=  274
 D1PCM: PCM CHGder 1st derivatives, ID1Alg=3 FixD1E=F DoIter=F DoCFld=F I1PDM=0.
 Calling FoFJK, ICntrl=      2127 FMM=F ISym2X=0 I1Cent= 0 IOpClX= 0 NMat=1 NMatS=1 NMatT=0.
 -------------------------------------------------------------------
 Center     Atomic                   Forces (Hartrees/Bohr)
 Number     Number              X              Y              Z
 -------------------------------------------------------------------
      1        6           0.001741641    0.000068056   -0.000021266
      2        6          -0.001074740    0.003050779    0.001630436
      3        6          -0.002454883    0.002218316   -0.001023732
      4        6          -0.000696894    0.002454199   -0.000167142
      5        8          -0.001279944   -0.000472068   -0.000245650
      6        6           0.001319839    0.000118707    0.000406108
      7        6          -0.006048739   -0.007845410   -0.002523428
      8        6          -0.000342733   -0.001138207   -0.000027131
      9        1          -0.000221438   -0.000861575   -0.001116849
     10        1           0.000044305   -0.000059655    0.000013645
     11        8          -0.005768159   -0.008006120   -0.003751576
     12        8          -0.000365671    0.000641746   -0.000127010
     13        8           0.000267489    0.000241823   -0.000016645
     14        1          -0.000299220    0.000992048    0.001349247
     15        6           0.004457537    0.001715198    0.002250680
     16        8           0.000084701    0.000871647    0.000265944
     17        1           0.000324170    0.001338918   -0.000728393
     18        8           0.011757393    0.008272594    0.004741470
     19        6          -0.001466626   -0.000231707   -0.000664581
     20        1          -0.000112359    0.000058801   -0.000089549
     21        1          -0.000299668   -0.000213944   -0.000281512
     22        1          -0.000346711   -0.000300035    0.000040017
     23        1           0.002126166   -0.003523043    0.000150133
     24        1           0.000001597    0.000289099    0.000042875
     25        8          -0.001347056    0.000319834   -0.000106091
 -------------------------------------------------------------------
 Cartesian Forces:  Max     0.011757393 RMS     0.002692928

 GradGradGradGradGradGradGradGradGradGradGradGradGradGradGradGradGradGrad
 Berny optimization.
 Using GEDIIS/GDIIS optimizer.
 FormGI is forming the generalized inverse of G from B-inverse, IUseBI=4.
 Internal  Forces:  Max     0.019309216 RMS     0.003340280
 Search for a local minimum.
 Step number   2 out of a maximum of  122
 All quantities printed in internal units (Hartrees-Bohrs-Radians)
 Mixed Optimization -- RFO/linear search
 Update second derivatives using D2CorX and points    1    2
 DE= -4.03D-03 DEPred=-8.96D-03 R= 4.50D-01
 Trust test= 4.50D-01 RLast= 2.56D-01 DXMaxT set to 3.00D-01
 ITU=  0  0
 Use linear search instead of GDIIS.
     Eigenvalues ---    0.00546   0.00773   0.00787   0.01082   0.01462
     Eigenvalues ---    0.01484   0.01592   0.01697   0.01931   0.01963
     Eigenvalues ---    0.02055   0.02200   0.02413   0.02423   0.02662
     Eigenvalues ---    0.02724   0.03331   0.03560   0.05328   0.05644
     Eigenvalues ---    0.05746   0.06083   0.11033   0.11268   0.13377
     Eigenvalues ---    0.13731   0.15904   0.15999   0.16000   0.16000
     Eigenvalues ---    0.16010   0.22029   0.22080   0.23400   0.23504
     Eigenvalues ---    0.23751   0.24999   0.24999   0.25000   0.25000
     Eigenvalues ---    0.25000   0.25000   0.25000   0.30639   0.32411
     Eigenvalues ---    0.32829   0.34613   0.34891   0.34961   0.35049
     Eigenvalues ---    0.35756   0.35836   0.36002   0.36009   0.38504
     Eigenvalues ---    0.39886   0.44394   0.48765   0.52352   0.52929
     Eigenvalues ---    0.53204   0.54825   0.56083   0.56734   0.61435
     Eigenvalues ---    0.74508   0.85766   1.05464   1.07740
 RFO step:  Lambda=-4.92595729D-04 EMin= 5.45518092D-03
 Quartic linear search produced a step of -0.34310.
 Iteration  1 RMS(Cart)=  0.06819252 RMS(Int)=  0.00092559
 Iteration  2 RMS(Cart)=  0.00200099 RMS(Int)=  0.00002261
 Iteration  3 RMS(Cart)=  0.00000143 RMS(Int)=  0.00002260
 Iteration  4 RMS(Cart)=  0.00000000 RMS(Int)=  0.00002260
 Variable       Old X    -DE/DX   Delta X   Delta X   Delta X     New X
                                 (Linear)    (Quad)   (Total)
    R1        2.76261   0.00006  -0.00016   0.00023   0.00008   2.76269
    R2        2.59407  -0.00097   0.00045  -0.00179  -0.00133   2.59274
    R3        2.25754   0.00131  -0.00021   0.00102   0.00081   2.25834
    R4        2.70489   0.00183   0.00172   0.00139   0.00311   2.70800
    R5        2.52999  -0.00029   0.00007  -0.00039  -0.00032   2.52967
    R6        2.03891  -0.00073   0.00062  -0.00192  -0.00130   2.03761
    R7        2.54515   0.00094  -0.00001   0.00115   0.00115   2.54629
    R8        2.77140   0.00820   0.00619   0.00947   0.01566   2.78705
    R9        2.04037  -0.00027   0.00011  -0.00058  -0.00048   2.03989
   R10        2.53696   0.00043  -0.00135   0.00181   0.00046   2.53742
   R11        2.83275  -0.00045   0.00030  -0.00120  -0.00089   2.83185
   R12        2.41408  -0.00652  -0.00093  -0.00480  -0.00573   2.40835
   R13        2.40574  -0.01857  -0.00931  -0.00562  -0.01493   2.39081
   R14        2.49919   0.00065  -0.00033   0.00103   0.00070   2.49989
   R15        2.26565   0.00028  -0.00013   0.00031   0.00018   2.26583
   R16        1.83451  -0.00004   0.00004  -0.00009  -0.00005   1.83447
   R17        1.83671   0.00409   0.00089   0.00420   0.00510   1.84181
   R18        2.06102  -0.00097  -0.00175  -0.00015  -0.00189   2.05912
   R19        2.06242  -0.00091  -0.00174  -0.00005  -0.00179   2.06063
   R20        2.77086  -0.00265   0.00138  -0.00616  -0.00477   2.76609
   R21        2.86665   0.00153  -0.00020   0.00346   0.00326   2.86991
   R22        2.65785  -0.00085   0.00071  -0.00196  -0.00124   2.65661
   R23        1.82029  -0.00011  -0.00014   0.00001  -0.00013   1.82015
   R24        2.05754   0.00028   0.00033   0.00021   0.00054   2.05809
   R25        2.06184   0.00031   0.00043   0.00017   0.00060   2.06244
    A1        2.01818   0.00033  -0.00032   0.00089   0.00054   2.01871
    A2        2.19139   0.00026   0.00078   0.00018   0.00090   2.19229
    A3        2.07358  -0.00059  -0.00045  -0.00094  -0.00144   2.07214
    A4        2.03821   0.00101   0.00120   0.00204   0.00324   2.04145
    A5        2.15639  -0.00141   0.00582  -0.00982  -0.00397   2.15242
    A6        2.08836   0.00040  -0.00723   0.00780   0.00059   2.08895
    A7        2.12109  -0.00221  -0.00270  -0.00325  -0.00595   2.11514
    A8        2.08795  -0.00055   0.00670  -0.00750  -0.00080   2.08715
    A9        2.07410   0.00277  -0.00403   0.01079   0.00677   2.08086
   A10        2.09177   0.00108   0.00184   0.00154   0.00339   2.09516
   A11        2.03731  -0.00066  -0.00028  -0.00178  -0.00205   2.03526
   A12        2.15407  -0.00042  -0.00160   0.00024  -0.00136   2.15271
   A13        2.14355  -0.00022  -0.00019  -0.00091  -0.00109   2.14245
   A14        2.15347   0.00002   0.00016  -0.00024  -0.00009   2.15337
   A15        2.12088   0.00035  -0.00052   0.00147   0.00095   2.12183
   A16        2.00884  -0.00037   0.00036  -0.00122  -0.00086   2.00798
   A17        2.01669   0.00753   0.04814  -0.02333   0.02480   2.04149
   A18        2.02952   0.01178   0.01013   0.02182   0.03195   2.06148
   A19        2.23697  -0.01931  -0.05827   0.00151  -0.05676   2.18021
   A20        1.96162   0.00024  -0.00008   0.00071   0.00062   1.96224
   A21        2.12798   0.00008  -0.00088   0.00100   0.00010   2.12809
   A22        2.19358  -0.00032   0.00096  -0.00169  -0.00074   2.19284
   A23        2.03273  -0.00080  -0.00810   0.00307  -0.00504   2.02770
   A24        1.90119  -0.00011   0.00008  -0.00051  -0.00043   1.90076
   A25        1.95075  -0.00089  -0.00776   0.00235  -0.00535   1.94541
   A26        1.89376  -0.00044  -0.00369  -0.00218  -0.00584   1.88792
   A27        1.93017   0.00128   0.00876   0.00161   0.01038   1.94055
   A28        1.88781  -0.00039  -0.00524  -0.00152  -0.00673   1.88108
   A29        1.94450   0.00128   0.00774   0.00190   0.00965   1.95415
   A30        1.85300  -0.00092  -0.00038  -0.00264  -0.00303   1.84997
   A31        1.91158  -0.00011  -0.00054  -0.00001  -0.00055   1.91103
   A32        2.18872  -0.01259  -0.02941  -0.00670  -0.03611   2.15261
   A33        1.90258  -0.00101  -0.00101  -0.00241  -0.00342   1.89916
   A34        1.90475   0.00052   0.00200   0.00117   0.00317   1.90792
[...]
 0.05601133,0.03710657,0.00052820,0.00227085,0.00150519,-0.01449704,0.0
 7215457,-0.00016287,0.00016676,-0.00000396,0.00002945,-0.00000732,0.00
 000957,0.00022227,0.00029491,-0.00050568,0.00008581,-0.00019609,0.0000
 0317,0.00001942,-0.00005681,0.00000012,-0.00001040,0.00000259,0.000006
 71,-0.00082384,-0.00092330,-0.00033640,0.00001795,0.00005704,0.0000147
 4,0.00000220,0.00001279,0.00000534,0.00000035,0.00000258,-0.00000006,0
 .00037807,0.00008023,0.00000077,0.00000519,-0.00002916,-0.00000300,-0.
 00001764,-0.00002547,-0.00000929,-0.00551725,0.00186828,-0.01316498,-0
 .06045271,0.04600701,-0.30631184,0.00084215,-0.00071181,0.00140040,0.0
 6720229,-0.04885890,0.32024262,0.00135941,0.00044079,0.00100672,-0.003
 46404,0.00286958,-0.00123903,0.01864955,0.01266716,0.00533188,-0.00405
 978,0.00216116,-0.00138304,-0.00045821,0.00020513,-0.00023129,0.001468
 03,0.00096488,0.00076458,-0.17135162,-0.10194177,-0.04711555,-0.000530
 23,-0.00054214,-0.00020937,0.00004997,0.00034656,0.00009430,-0.0000204
 0,-0.00000840,-0.00001281,-0.05074885,-0.05666605,-0.03616741,-0.00000
 807,0.00039835,0.00005412,0.00024465,0.00022452,0.00011651,-0.01393041
 ,0.03129508,-0.00532166,-0.11298577,0.03877186,-0.00827421,-0.00029662
 ,-0.00641920,-0.00193510,-0.00851259,0.01265530,0.00056318,0.32583784,
 -0.00904338,0.00887789,-0.00147859,0.00807341,0.00058997,0.00254232,-0
 .00109142,-0.05752997,-0.01030246,-0.00448777,-0.01002922,-0.00317471,
 0.00002257,-0.00178155,-0.00031597,-0.00087549,-0.00467016,-0.00107118
 ,-0.11757965,-0.40789751,-0.08967283,0.00207707,0.00431519,0.00146249,
 -0.00006378,0.00063610,0.00012306,0.00005971,0.00015532,0.00004280,-0.
 06243014,-0.01251928,-0.02747920,0.00031865,-0.00233014,-0.00027758,-0
 .00149675,-0.00177520,-0.00081581,0.00993076,-0.01520336,-0.00016986,0
 .05023257,-0.09777494,0.01099482,-0.00699154,-0.01792494,-0.00480500,0
 .01397460,-0.02486042,-0.00018786,0.07416912,0.67750619,-0.00053144,0.
 00173846,-0.00120376,-0.00038616,0.00072006,0.00146732,0.00306179,-0.0
 0594749,0.00861376,-0.00225962,-0.00087549,-0.00049892,-0.00022428,-0.
 00027613,0.00017460,0.00041200,-0.00036281,-0.00016775,-0.04910252,-0.
 08457945,-0.10061414,0.00021601,0.00054112,-0.00001327,0.00002178,0.00
 021896,0.00001247,-0.00000186,0.00002000,0.00001488,-0.03742520,-0.025
 68971,0.01871516,0.00004004,-0.00024347,-0.00000203,-0.00016471,-0.000
 21347,-0.00007655,0.00666102,-0.02076812,0.00308869,-0.00758909,0.0074
 3980,-0.06556604,-0.00173018,-0.00578007,0.00049520,-0.01494879,0.0281
 2471,0.00673541,0.08904009,0.11669731,0.12823782,0.00061769,-0.0005668
 1,0.00013594,-0.00055045,0.00015263,-0.00015538,0.00078812,0.00110268,
 0.00019931,0.00002868,0.00049347,0.00014130,-0.00008308,0.00010885,-0.
 00001743,0.00016416,0.00025529,0.00011204,-0.00679891,0.00122082,-0.00
 169702,-0.00014023,-0.00030317,-0.00009959,-0.00000020,-0.00003427,-0.
 00001170,-0.00000388,-0.00001042,-0.00000361,0.00221411,0.00010353,0.0
 0040973,-0.00002598,0.00016701,0.00001900,0.00010020,0.00012618,0.0000
 5651,-0.01762823,-0.01987248,-0.01215567,-0.14715590,-0.07903966,-0.03
 667366,-0.11289898,0.09532406,0.00249333,-0.00523760,-0.00628034,-0.00
 244485,0.01262392,0.03295233,0.01055202,0.57235074,0.00072213,-0.00064
 194,0.00015103,-0.00022520,-0.00004660,-0.00006824,-0.00049164,0.00012
 846,-0.00020893,-0.00008110,0.00060368,0.00008940,-0.00010793,0.000206
 95,-0.00000772,0.00007532,0.00016532,0.00005983,-0.00015394,-0.0072219
 8,-0.00114624,-0.00012140,-0.00037099,-0.00010501,-0.00001303,-0.00005
 780,-0.00001839,-0.00000210,-0.00001597,-0.00000331,0.00104395,0.00252
 433,0.00056939,-0.00003188,0.00017629,0.00001818,0.00011610,0.00015263
 ,0.00006571,-0.00346349,-0.00101914,-0.00213615,-0.05817120,-0.1064900
 7,-0.02451355,0.07826415,-0.21373991,0.01692694,0.00329740,0.00669292,
 0.00225872,-0.00944925,-0.02996569,-0.00879093,-0.01631505,0.48641358,
 0.00034688,-0.00029451,0.00004879,-0.00024080,0.00005734,-0.00007919,0
 .00011487,0.00038036,0.00035599,0.00003008,0.00027786,-0.00001610,-0.0
 0005806,0.00006604,0.00000020,0.00008493,0.00012385,0.00003227,-0.0019
 4391,-0.00046661,-0.00130874,-0.00007289,-0.00017358,-0.00005076,-0.00
 000696,-0.00002734,0.00000009,-0.00000222,-0.00000676,-0.00000029,0.00
 048885,0.00062557,0.00096456,-0.00001453,0.00009095,0.00000839,0.00005
 610,0.00007182,0.00002927,0.01259575,0.01499404,0.00887664,-0.03292743
 ,-0.03043738,-0.10502046,0.02440677,-0.02121257,-0.09562317,-0.0222430
 9,-0.02491301,-0.00973725,0.00281838,0.00599519,0.00221300,-0.02497579
 ,-0.04859302,0.64032424,0.00002751,-0.00001368,0.00000372,-0.00000794,
 -0.00000306,-0.00000088,-0.00001842,0.00000814,0.00003004,-0.00000088,
 0.00001609,-0.00000054,-0.00000590,0.00000127,-0.00000083,0.00000443,0
 .00000548,-0.00000066,-0.00000222,-0.00018747,-0.00003331,0.00000150,-
 0.00000733,-0.00000131,0.00000050,-0.00000201,-0.00000023,0.00000030,-
 0.00000025,-0.00000033,0.00001729,0.00005136,-0.00001304,-0.00000265,0
 .00000485,0.00000050,-0.00000053,0.00000243,0.00000069,-0.00002323,0.0
 0000449,0.00006137,0.00063311,-0.00087441,0.00125519,-0.01215153,0.003
 07592,0.03481536,0.00033084,0.00008714,0.00005835,0.00000516,-0.000024
 74,-0.00031547,-0.00469748,0.01345971,-0.02265204,0.01722317,0.0001134
 2,-0.00009892,0.00001859,-0.00005794,0.00000416,-0.00001281,-0.0000226
 7,0.00008161,0.00005650,-0.00000138,0.00009167,0.00001081,-0.00001796,
 0.00002723,-0.00000085,0.00002180,0.00003298,0.00001062,-0.00052876,-0
 .00081868,-0.00039438,-0.00002006,-0.00005926,-0.00001721,-0.00000093,
 -0.00000792,-0.00000151,-0.00000042,-0.00000265,-0.00000052,0.00027794
 ,0.00013778,0.00012913,-0.00000565,0.00002994,0.00000311,0.00001787,0.
 00002431,0.00001012,0.00006169,0.00024170,-0.00006732,0.00073662,-0.00
 208380,0.00196473,0.01727227,-0.11519854,0.16478187,-0.00025794,-0.000
 54523,-0.00028903,0.00011183,0.00140943,-0.00049310,0.00116574,-0.0217
 9546,0.03475081,-0.02011280,0.13955473,-0.00006399,0.00005905,-0.00001
 122,0.00004071,-0.00000913,0.00001083,-0.00002306,-0.00007842,0.000005
 99,0.00000151,-0.00005011,-0.00001152,0.00000931,-0.00001748,0.0000002
 4,-0.00001320,-0.00002188,-0.00000883,0.00038434,0.00034967,0.00017507
 ,0.00001508,0.00003443,0.00001221,0.00000027,0.00000437,0.00000254,0.0
 0000022,0.00000113,0.00000091,-0.00022253,-0.00011348,-0.00009419,0.00
 000243,-0.00001689,-0.00000277,-0.00001208,-0.00001441,-0.00000777,-0.
 00001605,-0.00003803,-0.00007751,0.00151625,0.00000155,0.00161048,0.00
 806390,0.20881853,-0.44149051,0.00000303,0.00019223,-0.00014164,-0.000
 25156,-0.00160705,-0.00069797,0.00171683,-0.00677266,0.00242176,-0.012
 24279,-0.19845827,0.43552672,-0.00003871,0.00003561,-0.00000715,0.0000
 2102,-0.00000931,0.00000296,-0.00000232,-0.00001246,-0.00002238,0.0000
 1293,-0.00003089,-0.00000422,0.00000942,-0.00001325,0.00000171,-0.0000
 1017,-0.00000901,-0.00000649,-0.00009474,0.00005646,0.00009017,0.00000
 871,0.00002222,0.00000682,0.00000159,0.00000453,0.00000081,0.00000037,
 0.00000076,-0.00000010,0.00012258,-0.00014846,0.00003353,0.00000145,-0
 .00001103,-0.00000104,-0.00000771,-0.00000955,-0.00000377,0.00090825,0
 .00092324,0.00010383,-0.00750928,0.00177502,-0.02397040,-0.00362758,0.
 01163802,-0.01616133,-0.00177857,-0.00300001,-0.00122249,0.00057117,0.
 00056191,0.00097399,-0.06976529,0.01192058,-0.05606367,-0.00209381,0.0
 0155497,-0.00001699,0.07409773,0.00000036,-0.00000117,0.00000228,0.000
 00274,0.00000014,-0.00000592,0.00000272,-0.00000008,0.00000775,-0.0000
 0103,-0.00001405,-0.00001587,0.00000444,0.00000206,0.00000162,-0.00000
 141,0.00000298,-0.00000048,-0.00035560,0.00011917,-0.00016567,-0.00000
 065,-0.00000012,-0.00000040,0.00000109,0.00000538,0.00000092,0.0000001
 2,-0.00000008,-0.00000028,0.00026613,-0.00025254,0.00011232,0.00000019
 ,-0.00000046,0.00000033,0.00000059,-0.00000029,0.00000080,0.00066691,0
 .00113562,0.00060543,-0.00793626,0.00425253,-0.02525483,0.01290551,-0.
 02077510,0.03429863,-0.00284458,-0.00403338,-0.00138920,0.00020136,0.0
 0248426,0.00085968,0.01129282,-0.06009050,0.05133401,0.00511992,-0.003
 35999,-0.00044813,-0.01960200,0.07904338,-0.00002456,0.00002105,-0.000
 00383,0.00002092,-0.00000451,0.00000430,-0.00002390,-0.00002362,-0.000
 02675,-0.00000318,-0.00003313,-0.00000603,0.00000485,0.00000122,0.0000
 0157,-0.00000509,-0.00000560,-0.00000307,0.00003650,-0.00017309,0.0000
 9729,0.00000217,0.00000670,0.00000136,0.00000091,0.00000372,0.00000055
 ,0.00000014,0.00000027,-0.00000031,0.00018242,0.00002945,0.00001305,0.
 00000134,-0.00000509,0.00000011,-0.00000088,-0.00000291,-0.00000018,0.
 00013797,-0.00017290,0.00094161,-0.00345761,0.00178146,-0.01145502,-0.
 00009151,0.00250523,0.00688893,-0.00121185,-0.00134174,0.00091047,0.00
 031227,-0.00037981,0.00031564,-0.06371919,0.05911813,-0.29532760,0.000
 21984,-0.00181087,0.00199390,0.07211188,-0.06279536,0.31027829,-0.0000
 6396,0.00005450,-0.00001232,0.00003734,-0.00001096,0.00001291,-0.00002
 644,-0.00005382,0.00000599,0.00000810,-0.00005903,-0.00001044,0.000013
 06,-0.00001268,0.00000204,-0.00001448,-0.00001724,-0.00000650,0.000138
 51,0.00007655,-0.00009447,0.00001067,0.00002925,0.00000917,0.00000154,
 0.00000691,0.00000268,0.00000008,0.00000088,0.00000080,0.00014826,-0.0
 0013113,0.00004491,0.00000326,-0.00001570,-0.00000221,-0.00000842,-0.0
 0001221,-0.00000590,-0.00128676,-0.00228513,-0.00171514,-0.01864270,-0
 .00461263,0.01223888,-0.01402886,0.01028800,0.00710857,0.00087784,0.00
 061931,0.00015188,0.00076154,-0.00044125,-0.00038205,-0.22330688,-0.01
 842431,0.12042099,0.00079809,-0.00010262,0.00101051,0.00896025,0.00003
 272,-0.00462165,0.24545574,-0.00003453,0.00003302,-0.00000811,0.000015
 25,-0.00000254,0.00001037,0.00001579,-0.00001638,0.00000001,-0.0000038
 0,-0.00004961,-0.00000201,0.00000953,-0.00000707,0.00000252,-0.0000065
 9,-0.00000626,-0.00000289,-0.00025279,0.00034581,0.00002902,0.00000535
 ,0.00001789,0.00000539,0.00000169,0.00000843,0.00000259,-0.00000002,0.
 00000062,0.00000055,0.00025204,-0.00030388,-0.00004673,0.00000216,-0.0
 0000930,-0.00000134,-0.00000455,-0.00000749,-0.00000368,-0.00239706,-0
 .00364924,-0.00237335,-0.02126258,-0.00275201,0.01411240,0.03663345,-0
 .01023597,-0.01999702,0.00083915,0.00100292,-0.00003740,0.00034100,0.0
 0182671,0.00002666,-0.02262328,-0.05337821,0.01752513,-0.00055611,0.00
 245575,-0.00183627,-0.00594625,0.00109060,0.00309833,0.01477806,0.0632
 5084,-0.00000584,0.00000714,-0.00000328,-0.00000132,-0.00000403,0.0000
 0393,0.00001975,0.00001082,-0.00000811,0.00000111,-0.00000477,0.000013
 30,0.00000469,-0.00000662,0.00000066,-0.00000378,-0.00000047,-0.000001
 02,-0.00024212,0.00016112,-0.00001401,0.00000400,0.00000983,0.00000184
 ,0.00000121,0.00000309,0.00000004,0.00000023,0.00000046,-0.00000019,0.
 00011036,-0.00021994,-0.00007435,0.00000005,-0.00000392,-0.00000006,-0
 .00000392,-0.00000424,-0.00000152,-0.00182292,-0.00246245,-0.00008850,
 -0.01335812,-0.00375392,0.00796190,0.00036244,-0.00183157,0.00403127,0
 .00023083,0.00085867,0.00103688,0.00027226,0.00132693,0.00013176,0.125
 74404,0.01376677,-0.14678956,-0.00118031,-0.00011537,0.00072960,0.0242
 0792,0.00293013,-0.01463302,-0.13439708,-0.01083905,0.14753193,-0.0011
 4441,0.00033045,0.00004588,0.00036498,-0.00042423,0.00012779,-0.000039
 36,-0.00324333,-0.00283345,-0.00037793,0.00027374,-0.00014086,0.000415
 06,-0.00018700,0.00009866,-0.00010383,-0.00003180,-0.00005466,-0.04188
 422,0.03517673,-0.00808709,0.00017777,0.00055952,0.00013764,0.00015723
 ,0.00043004,0.00016570,0.00000521,0.00002178,0.00000431,-0.16091554,0.
 17956345,-0.02021849,0.00004574,-0.00025527,-0.00002571,-0.00016829,-0
 .00024224,-0.00009344,-0.00109400,-0.00130030,-0.00039568,0.00025952,-
 0.00335338,-0.00097336,-0.00015710,0.00082407,-0.00000717,-0.00093967,
 -0.00049244,0.00096442,0.00566260,0.00492142,0.00384304,-0.00018663,-0
 .00151660,0.00007398,-0.00002463,-0.00014130,0.00006359,0.00018973,0.0
 0023223,0.00009589,0.00012645,0.00016631,0.00005289,0.19911674,0.00047
 381,-0.00077011,0.00022082,-0.00025430,-0.00011937,-0.00005129,-0.0031
 0967,0.00101397,-0.00201195,0.00016618,0.00088756,0.00016528,-0.000017
 88,0.00022028,0.00002531,0.00008910,0.00012999,0.00004046,0.00381999,0
 .01528362,0.00351858,-0.00009527,-0.00026496,-0.00008505,0.00010001,0.
 00013152,0.00007833,-0.00000051,-0.00001174,-0.00000225,0.21983478,-0.
 35042669,0.02070283,-0.00002048,0.00013027,0.00001454,0.00009160,0.000
 11030,0.00005219,-0.00134356,-0.00153342,-0.00135434,-0.00240070,0.005
 74407,0.00021521,-0.00035052,0.00061360,-0.00006954,-0.00101351,-0.003
 15107,0.00202399,-0.00538582,-0.00900943,-0.00259391,0.00032103,-0.002
 44699,-0.00027562,-0.00005808,-0.00015275,0.00003632,0.00032489,0.0003
 8871,0.00022446,0.00034417,0.00040316,0.00015826,-0.21115154,0.3425252
 5,0.00013939,0.00018586,-0.00115249,0.00017023,-0.00008729,-0.00026727
 ,-0.00288181,-0.00200813,0.00601858,-0.00013391,0.00016815,0.00017208,
 0.00010709,-0.00002921,0.00008823,-0.00002567,-0.00000600,0.00002756,-
 0.01278877,0.01385929,-0.00213817,0.00002483,0.00012803,0.00008225,0.0
 0010094,0.00018721,-0.00002486,0.00000108,0.00000482,0.00000316,-0.014
 01335,0.00742093,-0.01816239,0.00001203,-0.00006042,-0.00000739,-0.000
 03442,-0.00005743,-0.00003675,0.00026642,-0.00010070,-0.00082722,-0.00
 120262,-0.00049710,0.00195531,-0.00013605,0.00032746,0.00004475,0.0004
 1059,0.00123343,-0.00018276,0.00218413,0.00070106,-0.00284374,0.000523
 09,-0.00056874,-0.00135200,0.00000085,-0.00006406,0.00004427,-0.000053
 71,-0.00008500,0.00001681,0.00022071,0.00032153,0.00017870,0.02722177,
 -0.02086693,0.01776591,0.01102981,0.01548733,0.00500799,-0.00336832,0.
 00205804,-0.00393806,-0.00499506,-0.02547288,-0.00825281,-0.10494733,-
 0.10561074,-0.04050221,-0.00016831,0.00628209,0.00008399,-0.00194327,0
 .00009437,-0.00051031,-0.00125474,-0.00200310,0.00169234,-0.00022600,-
 0.00006666,0.00042570,0.00009325,-0.00111107,-0.00035303,0.00002650,-0
 .00001869,0.00000557,0.00091114,0.00008687,0.00024728,0.00008836,-0.00
 000560,-0.00000101,0.00018509,-0.00002160,-0.00000855,0.00006813,-0.00
 010211,0.00001480,-0.00013515,0.00085308,0.00017858,-0.00000134,-0.000
 15203,-0.00000223,0.00010244,-0.00013003,-0.00000664,-0.00041345,0.000
 83253,-0.00054225,0.00007394,0.00018869,0.00002137,0.00000679,0.000019
 13,-0.00001339,-0.00000507,0.00001052,0.00001151,-0.00001131,-0.000000
 96,0.00000046,-0.00005757,0.00008834,-0.00013359,0.10473767,-0.0117922
 9,-0.01372865,-0.00704287,0.00124827,0.00230934,-0.00070605,0.00089726
 ,0.00441347,-0.00004728,-0.10527835,-0.28421204,-0.07761362,0.00028812
 ,-0.00500861,-0.00118577,0.00314840,0.00049876,0.00123521,-0.00122902,
 0.00046479,0.00083116,-0.00017899,-0.00076804,0.00006245,0.00016278,0.
 00032039,0.00001292,-0.00002172,-0.00000161,-0.00000756,-0.00005668,-0
 .00000776,-0.00004659,-0.00012017,0.00017816,-0.00002755,0.00009025,0.
 00021071,0.00003182,-0.00001965,0.00000010,-0.00000415,0.00009474,-0.0
 0005999,0.00006750,-0.00003312,0.00003137,-0.00000629,-0.00000024,-0.0
 0001449,-0.00001440,0.00268615,-0.00175850,0.00073936,0.00007330,-0.00
 000589,0.00000565,-0.00000105,-0.00000239,0.00000554,-0.00001288,0.000
 00271,-0.00003610,-0.00003365,-0.00000693,0.00001732,-0.00002413,0.000
 01974,-0.00006152,0.11022828,0.29508283,0.00044404,0.00234442,0.004575
 09,-0.00406219,-0.00040414,0.00756991,-0.00373835,-0.00926155,0.003689
 52,-0.04063305,-0.07771344,-0.06612959,-0.00092086,0.00090182,0.002470
 72,-0.00000014,0.00019082,-0.00038528,0.00168562,0.00058004,-0.0063266
 8,0.00040294,0.00008722,-0.00133906,-0.00013688,-0.00042924,0.00045974
 ,0.00000501,-0.00000749,0.00000140,0.00036615,-0.00001733,0.00028334,-
 0.00002151,0.00001936,0.00008539,0.00001158,-0.00000199,0.00020526,0.0
 0006054,-0.00009919,0.00003420,0.00006202,0.00037918,-0.00017385,0.000
 01211,-0.00005274,-0.00002854,-0.00001421,0.00000144,0.00000956,-0.000
 16195,0.00012409,0.00104022,-0.00001265,0.00005160,0.00010404,-0.00000
 025,0.00001084,-0.00000254,-0.00000732,0.00000635,-0.00001515,0.000004
 90,0.00000612,-0.00000995,-0.00015455,-0.00001411,0.00031875,0.0463476
 8,0.08324328,0.05459940,-0.67871143,0.04572364,-0.20050554,-0.00323506
 ,-0.01363621,-0.00356822,0.00859703,0.01812442,0.00537647,-0.06140556,
 0.02497137,-0.02540078,-0.06368294,-0.06346310,-0.03707630,0.00217330,
 -0.00042952,-0.00124949,0.00500965,-0.00938862,0.00130803,0.00010400,0
 .01049052,0.00172765,0.00042037,0.00028329,0.00031163,-0.00011321,0.00
 049598,0.00004086,-0.00451357,0.00243696,-0.00118033,0.00069798,-0.004
 06366,-0.00044318,-0.00409552,-0.00522453,-0.00222540,-0.00008242,0.00
 033287,-0.00008514,0.00087785,-0.00204249,-0.00005931,0.00004150,0.000
 61368,0.00007349,-0.00016155,0.00031152,0.00011570,-0.00045380,0.00639
 926,0.00078183,-0.00048185,-0.00051992,-0.00025757,-0.00001946,-0.0000
 8283,0.00004766,0.00002807,0.00000118,0.00002081,0.00004909,0.00002874
 ,0.00000318,0.00057215,-0.00045207,0.00002075,0.00020379,-0.00011562,0
 .00046132,0.79818158,0.03732403,-0.09283839,0.00946377,-0.00457011,0.0
 0677398,-0.00052350,0.00170196,-0.01433110,-0.00204103,0.04101108,0.00
 757344,0.01117224,-0.07479004,-0.00550384,-0.02884904,0.01381650,-0.00
 548067,0.00288010,-0.00234517,0.00545924,0.00066941,-0.00160276,-0.000
 89016,-0.00070938,-0.00006359,0.00059109,0.00012965,-0.00002463,-0.000
 01482,-0.00001050,0.00267436,-0.00122921,0.00063539,-0.00025773,0.0003
 7020,-0.00003711,-0.00021984,-0.00036197,-0.00011146,0.00002800,-0.000
 14999,0.00003428,-0.00033862,0.00085879,0.00001196,-0.00000496,-0.0002
 5649,-0.00002568,0.00006477,-0.00013257,-0.00004815,-0.00009721,-0.002
 77076,-0.00051196,0.00018575,0.00022297,0.00010177,0.00000420,0.000034
 31,-0.00002061,-0.00001311,0.00000022,-0.00000527,-0.00001800,-0.00001
 087,-0.00000419,-0.00013619,0.00028448,-0.00004524,-0.00153381,0.00204
 254,0.00005462,-0.01079486,0.09975959,-0.20195419,0.01236236,-0.140234
 27,-0.00201052,-0.00363189,-0.00089451,0.00261795,0.00355140,0.0031187
 8,-0.02268565,0.00567359,0.01782230,-0.03896085,-0.02494931,-0.0041660
 8,0.00107211,-0.00201905,0.00576852,0.00249445,-0.00178654,-0.00275881
 ,-0.00027137,0.00343990,0.00059275,0.00024845,0.00025196,-0.00020440,-
 0.00004191,0.00016845,0.00000892,-0.00118863,0.00057215,-0.00003525,0.
 00018041,-0.00134376,-0.00010630,-0.00137947,-0.00182410,-0.00096867,-
 0.00001358,0.00010525,-0.00002578,0.00022772,-0.00057108,0.00004661,0.
 00001174,0.00016999,0.00002152,-0.00004848,0.00007347,0.00002112,-0.00
 025547,0.00172786,0.00042824,-0.00013662,-0.00014282,-0.00007411,-0.00
 000391,-0.00002182,0.00001194,0.00000745,0.00000090,0.00000707,0.00001
 283,0.00000720,0.00000179,0.00008890,-0.00015159,0.00027867,0.00022680
 ,0.00054755,-0.00103591,0.26176185,0.00778991,0.12237589\\-0.00000506,
 -0.00001277,-0.00000753,0.00000482,0.00000110,0.00000526,-0.00000321,0
 .00000277,0.00000229,0.00000248,0.00000622,-0.00000346,0.00001390,0.00
 001197,-0.00000250,-0.00000802,-0.00000105,-0.00000046,0.00000831,-0.0
 0000638,-0.00000018,0.00000168,-0.00000023,0.00000392,-0.00000122,-0.0
 0000212,0.00000282,0.00000331,-0.00000010,0.00000272,-0.00000434,-0.00
 000230,0.00000641,0.00000382,0.00000072,0.00000138,0.00000196,-0.00000
 148,0.00000660,-0.00000109,0.00000163,0.00000379,-0.00000828,0.0000042
 8,0.00000327,-0.00000400,-0.00000009,-0.00000124,-0.00000390,-0.000003
 69,-0.00000077,-0.00000075,-0.00000380,-0.00000430,-0.00000225,-0.0000
 0156,-0.00000441,-0.00000416,0.00000080,-0.00000202,0.00000301,-0.0000
 0214,-0.00000297,-0.00000491,0.00000246,-0.00000373,-0.00000010,-0.000
 00208,0.00000457,0.00000111,0.00000160,-0.00000413,0.00000690,0.000006
 24,-0.00000530\\\@


 SUCCESS IS NEVER CERTAIN,
 FAILURE IS NEVER FINAL.
 Job cpu time:       0 days  7 hours 55 minutes  1.2 seconds.
 Elapsed time:       0 days  0 hours 13 minutes 13.5 seconds.
 File lengths (MBytes):  RWF=    788 Int=      0 D2E=      0 Chk=     37 Scr=      1
 Normal termination of Gaussian 16 at Thu Aug 15 14:15:37 2019.
