 Entering Gaussian System, Link 0=g16
 Initial command:
 /nopt/nrel/apps/gaussian/g16B/g16/l1.exe "/dev/shm/Gau-50774.inp" -scrdir="/dev/shm/"
 Default is to use a total of  36 processors:
                               36 via shared-memory
                                1 via Linda
 Entering Link 1 = /nopt/nrel/apps/gaussian/g16B/g16/l1.exe PID=     50776.
  
 Copyright (c) 1988-2017, Gaussian, Inc.  All Rights Reserved.
  
 This is part of the Gaussian(R) 16 program.  It is based on
 the Gaussian(R) 09 system (copyright 2009, Gaussian, Inc.),
 the Gaussian(R) 03 system (copyright 2003, Gaussian, Inc.),
 the Gaussian(R) 98 system (copyright 1998, Gaussian, Inc.),
 the Gaussian(R) 94 system (copyright 1995, Gaussian, Inc.),
 the Gaussian 92(TM) system (copyright 1992, Gaussian, Inc.),
 the Gaussian 90(TM) system (copyright 1990, Gaussian, Inc.),
 the Gaussian 88(TM) system (copyright 1988, Gaussian, Inc.),
 the Gaussian 86(TM) system (copyright 1986, Carnegie Mellon
 University), and the Gaussian 82(TM) system (copyright 1983,
 Carnegie Mellon University). Gaussian is a federally registered
 trademark of Gaussian, Inc.
  
 This software contains proprietary and confidential information,
 including trade secrets, belonging to Gaussian, Inc.
  
 This software is provided under written license and may be
 used, copied, transmitted, or stored only in accord with that
 written license.
  
 The following legend is applicable only to US Government
 contracts under FAR:
  
                    RESTRICTED RIGHTS LEGEND
  
 Use, reproduction and disclosure by the US Government is
 subject to restrictions as set forth in subparagraphs (a)
 and (c) of the Commercial Computer Software - Restricted
 Rights clause in FAR 52.227-19.
  
 Gaussian, Inc.
 340 Quinnipiac St., Bldg. 40, Wallingford CT 06492
  
  
 ---------------------------------------------------------------
 Warning -- This program may not be used in any manner that
 competes with the business of Gaussian, Inc. or will provide
 assistance to any competitor of Gaussian, Inc.  The licensee
 of this program is prohibited from giving any competitor of
 Gaussian, Inc. access to this program.  By using this program,
 the user acknowledges that Gaussian, Inc. is engaged in the
 business of creating and licensing software in the field of
 computational chemistry and represents and warrants to the
 licensee that it is not a competitor of Gaussian, Inc. and that
 it will not use this program in any manner prohibited above.
 ---------------------------------------------------------------
  

 Cite this work as:
 Gaussian 16, Revision B.01,
 M. J. Frisch, G. W. Trucks, H. B. Schlegel, G. E. Scuseria, 
 M. A. Robb, J. R. Cheeseman, G. Scalmani, V. Barone, 
 G. A. Petersson, H. Nakatsuji, X. Li, M. Caricato, A. V. Marenich, 
 J. Bloino, B. G. Janesko, R. Gomperts, B. Mennucci, H. P. Hratchian, 
 J. V. Ortiz, A. F. Izmaylov, J. L. Sonnenberg, D. Williams-Young, 
 F. Ding, F. Lipparini, F. Egidi, J. Goings, B. Peng, A. Petrone, 
 T. Henderson, D. Ranasinghe, V. G. Zakrzewski, J. Gao, N. Rega, 
 G. Zheng, W. Liang, M. Hada, M. Ehara, K. Toyota, R. Fukuda, 
 J. Hasegawa, M. Ishida, T. Nakajima, Y. Honda, O. Kitao, H. Nakai, 
 T. Vreven, K. Throssell, J. A. Montgomery, Jr., J. E. Peralta, 
 F. Ogliaro, M. J. Bearpark, J. J. Heyd, E. N. Brothers, K. N. Kudin, 
 V. N. Staroverov, T. A. Keith, R. Kobayashi, J. Normand, 
 K. Raghavachari, A. P. Rendell, J. C. Burant, S. S. Iyengar, 
 J. Tomasi, M. Cossi, J. M. Millam, M. Klene, C. Adamo, R. Cammi, 
 J. W. Ochterski, R. L. Martin, K. Morokuma, O. Farkas, 
 J. B. Foresman, and D. J. Fox, Gaussian, Inc., Wallingford CT, 2016.
 
 ******************************************
 Gaussian 16:  ES64L-G16RevB.01 20-Dec-2017
                13-Aug-2019 
 ******************************************
 %RWF=/dev/shm/,5GB,/tmp/scratch/1146367/,-1
 %NoSave
 %Chk=/dev/shm/pdc_bh2.chk
 Default route: CacheSize=180224 MaxDisk=256GB
 ----------------------------------------------------------------------
 # m062x/Def2TZVP nosymm scf=xqc opt freq=NoRaman guess=mix CPHF=Grid=F
 ine SCRF=(Solvent=1,2-EthaneDiol,Read)
 ----------------------------------------------------------------------
 1/4=180224,18=20,19=15,26=3,38=1,40=2/1,3;
 2/4=180224,9=110,12=2,15=1,17=6,18=5,40=1/2;
 3/4=180224,5=44,7=101,11=2,25=1,30=1,70=2203,71=1,72=30,74=-55/1,2,3;
 4/4=180224,13=-1/1;
 5/4=180224,5=2,8=3,13=1,38=5,53=30/2,8;
 6/4=180224,7=2,8=2,9=2,10=2,28=1/1;
 7/4=180224,30=1/1,2,3,16;
 1/4=180224,18=20,19=15,26=3/3(2);
 2/4=180224,9=110,15=1/2;
 99/4=180224/99;
 2/4=180224,9=110,15=1/2;
 3/4=180224,5=44,7=101,11=2,25=1,30=1,70=2205,71=1,72=30,74=-55/1,2,3;
 4/4=180224,5=5,16=3,69=1/1;
 5/4=180224,5=2,8=3,13=1,38=5,53=30/2,8;
 7/4=180224,30=1/1,2,3,16;
 1/4=180224,18=20,19=15,26=3/3(-5);
 2/4=180224,9=110,15=1/2;
 6/4=180224,7=2,8=2,9=2,10=2,19=2,28=1/1;
 99/4=180224,9=1/99;
 ----------------------
 protonate for reaction
 ----------------------
 Symbolic Z-matrix:
 Charge =  1 Multiplicity = 1
 H                     5.802     16.968    15.409 
 C                     3.903     20.035    11.252 
 H                     3.996     22.2      11.216 
 C                     5.154     20.242    13.761 
 C                     4.826     19.062    13.221 
 O                     4.227     18.947    12.021 
 C                     4.247     21.335    11.812 
 C                     4.845     21.425    13.013 
 C                     5.07      17.731    13.853 
 C                     5.213     22.746    13.619 
 H                     5.634     20.3      14.724 
 H                     5.146     24.598    13.292 
 O                     5.663     17.853    15.037 
 O                     4.763     16.691    13.343 
 O                     4.884     23.776    12.847 
 O                     5.747     22.842    14.69 
 O                     3.37      19.84     10.195 
 H                     6.52488   23.43511   13.99539 
 
 Add virtual bond connecting atoms H18        and O16        Dist= 2.27D+00.

 GradGradGradGradGradGradGradGradGradGradGradGradGradGradGradGradGradGrad
 Berny optimization.
 Initialization pass.
                           ----------------------------
                           !    Initial Parameters    !
                           ! (Angstroms and Degrees)  !
 --------------------------                            --------------------------
 ! Name  Definition              Value          Derivative Info.                !
 --------------------------------------------------------------------------------
 ! R1    R(1,13)                 0.97           estimate D2E/DX2                !
 ! R2    R(2,6)                  1.3712         estimate D2E/DX2                !
 ! R3    R(2,7)                  1.4567         estimate D2E/DX2                !
 ! R4    R(2,17)                 1.1997         estimate D2E/DX2                !
 ! R5    R(3,7)                  1.08           estimate D2E/DX2                !
 ! R6    R(4,5)                  1.3385         estimate D2E/DX2                !
 ! R7    R(4,8)                  1.4333         estimate D2E/DX2                !
 ! R8    R(4,11)                 1.0776         estimate D2E/DX2                !
 ! R9    R(5,6)                  1.3461         estimate D2E/DX2                !
 ! R10   R(5,9)                  1.4935         estimate D2E/DX2                !
 ! R11   R(7,8)                  1.3447         estimate D2E/DX2                !
 ! R12   R(8,10)                 1.4992         estimate D2E/DX2                !
 ! R13   R(9,13)                 1.3298         estimate D2E/DX2                !
 ! R14   R(9,14)                 1.1983         estimate D2E/DX2                !
 ! R15   R(10,15)                1.3286         estimate D2E/DX2                !
 ! R16   R(10,16)                1.2006         estimate D2E/DX2                !
 ! R17   R(12,15)                0.9707         estimate D2E/DX2                !
 ! R18   R(16,18)                1.1997         estimate D2E/DX2                !
 ! A1    A(6,2,7)              115.8955         estimate D2E/DX2                !
 ! A2    A(6,2,17)             118.0423         estimate D2E/DX2                !
 ! A3    A(7,2,17)             126.0623         estimate D2E/DX2                !
 ! A4    A(5,4,8)              117.6614         estimate D2E/DX2                !
 ! A5    A(5,4,11)             121.1416         estimate D2E/DX2                !
 ! A6    A(8,4,11)             121.197          estimate D2E/DX2                !
 ! A7    A(4,5,6)              122.9566         estimate D2E/DX2                !
 ! A8    A(4,5,9)              125.0933         estimate D2E/DX2                !
 ! A9    A(6,5,9)              111.9501         estimate D2E/DX2                !
 ! A10   A(2,6,5)              122.5015         estimate D2E/DX2                !
 ! A11   A(2,7,3)              116.5983         estimate D2E/DX2                !
 ! A12   A(2,7,8)              120.5385         estimate D2E/DX2                !
 ! A13   A(3,7,8)              122.8631         estimate D2E/DX2                !
 ! A14   A(4,8,7)              120.4466         estimate D2E/DX2                !
 ! A15   A(4,8,10)             117.6048         estimate D2E/DX2                !
 ! A16   A(7,8,10)             121.9486         estimate D2E/DX2                !
 ! A17   A(5,9,13)             111.5839         estimate D2E/DX2                !
 ! A18   A(5,9,14)             123.4704         estimate D2E/DX2                !
 ! A19   A(13,9,14)            124.9457         estimate D2E/DX2                !
 ! A20   A(8,10,15)            112.7954         estimate D2E/DX2                !
 ! A21   A(8,10,16)            122.6978         estimate D2E/DX2                !
 ! A22   A(15,10,16)           124.5068         estimate D2E/DX2                !
 ! A23   A(1,13,9)             108.7626         estimate D2E/DX2                !
 ! A24   A(10,15,12)           108.8606         estimate D2E/DX2                !
 ! A25   A(10,16,18)            79.1312         estimate D2E/DX2                !
 ! D1    D(7,2,6,5)              0.0096         estimate D2E/DX2                !
 ! D2    D(17,2,6,5)          -179.9732         estimate D2E/DX2                !
 ! D3    D(6,2,7,3)           -179.9462         estimate D2E/DX2                !
 ! D4    D(6,2,7,8)             -0.0185         estimate D2E/DX2                !
 ! D5    D(17,2,7,3)             0.0351         estimate D2E/DX2                !
 ! D6    D(17,2,7,8)           179.9628         estimate D2E/DX2                !
 ! D7    D(8,4,5,6)              0.0252         estimate D2E/DX2                !
 ! D8    D(8,4,5,9)            179.9992         estimate D2E/DX2                !
 ! D9    D(11,4,5,6)          -179.94           estimate D2E/DX2                !
 ! D10   D(11,4,5,9)             0.0341         estimate D2E/DX2                !
 ! D11   D(5,4,8,7)             -0.0336         estimate D2E/DX2                !
 ! D12   D(5,4,8,10)          -179.997          estimate D2E/DX2                !
 ! D13   D(11,4,8,7)           179.9315         estimate D2E/DX2                !
 ! D14   D(11,4,8,10)           -0.0319         estimate D2E/DX2                !
 ! D15   D(4,5,6,2)             -0.0144         estimate D2E/DX2                !
 ! D16   D(9,5,6,2)           -179.9915         estimate D2E/DX2                !
 ! D17   D(4,5,9,13)            -0.0408         estimate D2E/DX2                !
 ! D18   D(4,5,9,14)           179.9455         estimate D2E/DX2                !
 ! D19   D(6,5,9,13)           179.9358         estimate D2E/DX2                !
 ! D20   D(6,5,9,14)            -0.078          estimate D2E/DX2                !
 ! D21   D(2,7,8,4)              0.0307         estimate D2E/DX2                !
 ! D22   D(2,7,8,10)           179.9925         estimate D2E/DX2                !
 ! D23   D(3,7,8,4)            179.9537         estimate D2E/DX2                !
 ! D24   D(3,7,8,10)            -0.0845         estimate D2E/DX2                !
 ! D25   D(4,8,10,15)         -179.9904         estimate D2E/DX2                !
 ! D26   D(4,8,10,16)           -0.0417         estimate D2E/DX2                !
 ! D27   D(7,8,10,15)            0.0468         estimate D2E/DX2                !
 ! D28   D(7,8,10,16)          179.9955         estimate D2E/DX2                !
 ! D29   D(5,9,13,1)          -179.9634         estimate D2E/DX2                !
 ! D30   D(14,9,13,1)            0.0506         estimate D2E/DX2                !
 ! D31   D(8,10,15,12)         179.9664         estimate D2E/DX2                !
 ! D32   D(16,10,15,12)          0.0187         estimate D2E/DX2                !
 ! D33   D(8,10,16,18)         124.0375         estimate D2E/DX2                !
 ! D34   D(15,10,16,18)        -56.0199         estimate D2E/DX2                !
 --------------------------------------------------------------------------------
 Trust Radius=3.00D-01 FncErr=1.00D-07 GrdErr=1.00D-06 EigMax=2.50D+02 EigMin=1.00D-04
 Number of steps in this run=     87 maximum allowed number of steps=    108.
 GradGradGradGradGradGradGradGradGradGradGradGradGradGradGradGradGradGrad

                          Input orientation:                          
 ---------------------------------------------------------------------
 Center     Atomic      Atomic             Coordinates (Angstroms)
 Number     Number       Type             X           Y           Z
 ---------------------------------------------------------------------
      1          1           0        5.802000   16.968000   15.409000
      2          6           0        3.903000   20.035000   11.252000
      3          1           0        3.996000   22.200000   11.216000
      4          6           0        5.154000   20.242000   13.761000
      5          6           0        4.826000   19.062000   13.221000
      6          8           0        4.227000   18.947000   12.021000
      7          6           0        4.247000   21.335000   11.812000
      8          6           0        4.845000   21.425000   13.013000
      9          6           0        5.070000   17.731000   13.853000
     10          6           0        5.213000   22.746000   13.619000
     11          1           0        5.634000   20.300000   14.724000
     12          1           0        5.146000   24.598000   13.292000
     13          8           0        5.663000   17.853000   15.037000
     14          8           0        4.763000   16.691000   13.343000
     15          8           0        4.884000   23.776000   12.847000
     16          8           0        5.747000   22.842000   14.690000
     17          8           0        3.370000   19.840000   10.195000
     18          1           0        6.524880   23.435110   13.995390
 ---------------------------------------------------------------------
                    Distance matrix (angstroms):
                    1          2          3          4          5
     1  H    0.000000
     2  C    5.503938   0.000000
     3  H    6.943825   2.167296   0.000000
     4  C    3.722215   2.811215   3.413466   0.000000
     5  C    3.181942   2.382356   3.815229   1.338501   0.000000
     6  O    4.227956   1.371160   3.359077   2.358804   1.346115
     7  C    5.867463   1.456687   1.080019   2.411618   2.736248
     8  C    5.149904   2.433225   2.133222   1.433344   2.372213
     9  C    1.881257   3.665448   5.298982   2.514089   1.493493
    10  C    6.077525   3.829923   2.748384   2.508717   3.725591
    11  H    3.405829   3.888621   4.312668   1.077559   2.108202
    12  H    7.945371   5.150497   3.373823   4.381183   5.545695
    13  O    0.970015   4.710090   6.022901   2.755826   2.336687
    14  O    2.329078   4.036610   5.954956   3.596833   2.374972
    15  O    7.331810   4.183475   2.435668   3.660253   4.729169
    16  O    5.918096   4.806187   3.942948   2.823949   4.158678
    17  O    6.430304   1.199735   2.646491   4.007570   3.447013
    18  H    6.659156   5.095213   3.955470   3.482844   4.754994
                    6          7          8          9         10
     6  O    0.000000
     7  C    2.397212   0.000000
     8  C    2.739794   1.344658   0.000000
     9  C    2.354895   4.222775   3.794978   0.000000
    10  C    4.237712   2.487836   1.499233   5.022492   0.000000
    11  H    3.334137   3.387438   2.194463   2.770649   2.716833
    12  H    5.864623   3.694018   3.199433   6.890297   1.881840
    13  O    3.514995   4.952778   4.186273   1.329808   5.114164
    14  O    2.669179   4.917007   4.746196   1.198311   6.077968
    15  O    4.942992   2.726807   2.357176   6.130959   1.328580
    16  O    4.960341   3.578258   2.373567   5.223143   1.200589
    17  O    2.205941   2.370410   3.553727   4.551796   4.854406
    18  H    5.414942   3.790302   2.797790   5.888448   1.528912
                   11         12         13         14         15
    11  H    0.000000
    12  H    4.556487   0.000000
    13  O    2.467107   6.986225   0.000000
    14  O    3.961147   7.916435   2.242739   0.000000
    15  O    4.020971   0.970749   6.362772   7.103371   0.000000
    16  O    2.544738   2.323605   5.001758   6.373183   2.239146
    17  O    5.084205   5.948458   5.714104   4.665464   4.981706
    18  H    3.339679   1.936074   5.743496   7.000918   2.031623
                   16         17         18
    16  O    0.000000
    17  O    5.904842   0.000000
    18  H    1.199733   6.109096   0.000000
 Symmetry turned off by external request.
 Stoichiometry    C7H5O6(1+)
 Framework group  C1[X(C7H5O6)]
 Deg. of freedom    48
 Full point group                 C1      NOp   1
 Rotational constants (GHZ):           1.1797673           0.5765613           0.3878469
 Standard basis: def2TZVP (5D, 7F)
   433 basis functions,   703 primitive gaussians,   498 cartesian basis functions
    47 alpha electrons       47 beta electrons
       nuclear repulsion energy       781.8598220465 Hartrees.
 NAtoms=   18 NActive=   18 NUniq=   18 SFac= 1.00D+00 NAtFMM=   60 NAOKFM=F Big=F
 Integral buffers will be    131072 words long.
 Raffenetti 2 integral format.
 Two-electron integral symmetry is turned off.
 Using the following non-standard input for PCM:
 PDENS=7.0
 --- end of non-standard input.
 ------------------------------------------------------------------------------
 Polarizable Continuum Model (PCM)
 =================================
 Model                : PCM.
 Atomic radii         : UFF (Universal Force Field).
 Polarization charges : Total charges.
 Charge compensation  : None.
 Solution method      : On-the-fly selection.
 Cavity type          : Scaled VdW (van der Waals Surface) (Alpha=1.100).
 Cavity algorithm     : GePol (No added spheres)
                        Default sphere list used, NSphG=   18.
                        Lebedev-Laikov grids with approx.  7.0 points / Ang**2.
                        Smoothing algorithm: York/Karplus (Gamma=1.0000).
                        Polarization charges: spherical gaussians, with
                                              point-specific exponents (IZeta= 3).
                        Self-potential: point-specific (ISelfS= 7).
                        Self-field    : sphere-specific E.n sum rule (ISelfD= 2).
 1st derivatives      : Analytical E(r).r(x)/FMM algorithm (CHGder, D1EAlg=3).
                        Cavity 1st derivative terms included.
 Solvent              : 1,2-EthaneDiol, Eps=  40.245000 Eps(inf)=   2.050051
 ------------------------------------------------------------------------------
 Spheres list:
 ISph  on   Nord     Re0    Alpha      Xe            Ye            Ze
    1   H      1    1.4430  1.100      5.802000     16.968000     15.409000
    2   C      2    1.9255  1.100      3.903000     20.035000     11.252000
    3   H      3    1.4430  1.100      3.996000     22.200000     11.216000
    4   C      4    1.9255  1.100      5.154000     20.242000     13.761000
    5   C      5    1.9255  1.100      4.826000     19.062000     13.221000
    6   O      6    1.7500  1.100      4.227000     18.947000     12.021000
    7   C      7    1.9255  1.100      4.247000     21.335000     11.812000
    8   C      8    1.9255  1.100      4.845000     21.425000     13.013000
    9   C      9    1.9255  1.100      5.070000     17.731000     13.853000
   10   C     10    1.9255  1.100      5.213000     22.746000     13.619000
   11   H     11    1.4430  1.100      5.634000     20.300000     14.724000
   12   H     12    1.4430  1.100      5.146000     24.598000     13.292000
   13   O     13    1.7500  1.100      5.663000     17.853000     15.037000
   14   O     14    1.7500  1.100      4.763000     16.691000     13.343000
   15   O     15    1.7500  1.100      4.884000     23.776000     12.847000
   16   O     16    1.7500  1.100      5.747000     22.842000     14.690000
   17   O     17    1.7500  1.100      3.370000     19.840000     10.195000
   18   H     18    1.4430  1.100      6.524880     23.435110     13.995390
 ------------------------------------------------------------------------------
 One-electron integrals computed using PRISM.
   1 Symmetry operations used in ECPInt.
 ECPInt:  NShTT=   13366 NPrTT=   42496 LenC2=   12236 LenP2D=   28914.
 LDataN:  DoStor=T MaxTD1= 6 Len=  172
 NBasis=   433 RedAO= T EigKep=  2.36D-05  NBF=   433
 NBsUse=   433 1.00D-06 EigRej= -1.00D+00 NBFU=   433
 ExpMin= 9.52D-02 ExpMax= 2.70D+04 ExpMxC= 9.22D+02 IAcc=3 IRadAn=         5 AccDes= 0.00D+00
 Harris functional with IExCor= 1009 and IRadAn=       5 diagonalized for initial guess.
 HarFok:  IExCor= 1009 AccDes= 0.00D+00 IRadAn=         5 IDoV= 1 UseB2=F ITyADJ=14
 ICtDFT=  3500011 ScaDFX=  1.000000  1.000000  1.000000  1.000000
 FoFCou: FMM=F IPFlag=           0 FMFlag=      100000 FMFlg1=           0
         NFxFlg=           0 DoJE=T BraDBF=F KetDBF=T FulRan=T
         wScrn=  0.000000 ICntrl=       500 IOpCl=  0 I1Cent=   200000004 NGrid=           0
         NMat0=    1 NMatS0=      1 NMatT0=    0 NMatD0=    1 NMtDS0=    0 NMtDT0=    0
 Symmetry not used in FoFCou.
 Mixing orbitals, IMix= 1 IMixAn=  0 NRI=1 NE=   47 Coef=  7.07106781D-01  7.07106781D-01
 Requested convergence on RMS density matrix=1.00D-08 within  32 cycles.
 Requested convergence on MAX density matrix=1.00D-06.
 Requested convergence on             energy=1.00D-06.
 No special actions if energy rises.
 Inv3:  Mode=1 IEnd=    17021772.
 Iteration    1 A*A^-1 deviation from unit magnitude is 3.11D-15 for   1331.
 Iteration    1 A*A^-1 deviation from orthogonality  is 1.46D-15 for   2113    992.
 Iteration    1 A^-1*A deviation from unit magnitude is 2.89D-15 for   1137.
 Iteration    1 A^-1*A deviation from orthogonality  is 1.69D-15 for   2103    648.
 Error on total polarization charges =  0.00772
 SCF Done:  E(RM062X) =  -720.854011129     A.U. after   15 cycles
            NFock= 15  Conv=0.73D-08     -V/T= 2.0043
 QCSCF skips out because SCF is already converged.

 **********************************************************************

            Population analysis using the SCF Density.

 **********************************************************************

 Alpha  occ. eigenvalues --  -19.80666 -19.77604 -19.74145 -19.70120 -19.65301
 Alpha  occ. eigenvalues --  -19.65284 -10.81840 -10.72314 -10.71660 -10.67184
 Alpha  occ. eigenvalues --  -10.64770 -10.62773 -10.60376  -1.40585  -1.30223
 Alpha  occ. eigenvalues --   -1.28751  -1.27115  -1.20041  -1.17784  -1.01604
 Alpha  occ. eigenvalues --   -0.93904  -0.87264  -0.82908  -0.78102  -0.76655
 Alpha  occ. eigenvalues --   -0.74147  -0.72084  -0.68704  -0.65568  -0.63795
 Alpha  occ. eigenvalues --   -0.62733  -0.61376  -0.60673  -0.58023  -0.57257
 Alpha  occ. eigenvalues --   -0.56702  -0.55011  -0.52665  -0.51946  -0.51417
 Alpha  occ. eigenvalues --   -0.48423  -0.48154  -0.45619  -0.43022  -0.40819
 Alpha  occ. eigenvalues --   -0.39670  -0.34153
 Alpha virt. eigenvalues --   -0.13016  -0.05786  -0.05231   0.01058   0.06146
 Alpha virt. eigenvalues --    0.06783   0.07233   0.08465   0.10572   0.11253
 Alpha virt. eigenvalues --    0.13343   0.14037   0.15390   0.16957   0.18125
 Alpha virt. eigenvalues --    0.18785   0.19861   0.20528   0.22059   0.22438
 Alpha virt. eigenvalues --    0.23573   0.24109   0.24514   0.25392   0.25870
 Alpha virt. eigenvalues --    0.26876   0.27622   0.28644   0.29623   0.30595
 Alpha virt. eigenvalues --    0.32400   0.34087   0.34453   0.35162   0.36127
 Alpha virt. eigenvalues --    0.37099   0.37672   0.39228   0.39599   0.40396
 Alpha virt. eigenvalues --    0.40748   0.41470   0.43935   0.44580   0.45351
 Alpha virt. eigenvalues --    0.45556   0.46003   0.48612   0.49071   0.50619
 Alpha virt. eigenvalues --    0.51380   0.51519   0.52583   0.54069   0.55823
 Alpha virt. eigenvalues --    0.56079   0.56576   0.58126   0.59070   0.60345
 Alpha virt. eigenvalues --    0.61379   0.61809   0.62218   0.64187   0.66320
 Alpha virt. eigenvalues --    0.66790   0.68466   0.69295   0.70025   0.71957
 Alpha virt. eigenvalues --    0.72633   0.72771   0.74213   0.74782   0.75990
 Alpha virt. eigenvalues --    0.77789   0.79618   0.80289   0.80922   0.81461
 Alpha virt. eigenvalues --    0.83090   0.83642   0.85415   0.87821   0.89006
 Alpha virt. eigenvalues --    0.90297   0.90997   0.92811   0.94012   0.94683
 Alpha virt. eigenvalues --    0.96623   1.00802   1.02263   1.02349   1.03808
 Alpha virt. eigenvalues --    1.05564   1.07959   1.11006   1.13893   1.15810
 Alpha virt. eigenvalues --    1.17098   1.17282   1.20807   1.22608   1.23647
 Alpha virt. eigenvalues --    1.27727   1.31348   1.32271   1.32836   1.33542
 Alpha virt. eigenvalues --    1.34768   1.36290   1.36652   1.36939   1.38852
 Alpha virt. eigenvalues --    1.39802   1.40827   1.45248   1.47679   1.48339
 Alpha virt. eigenvalues --    1.48843   1.49739   1.52040   1.53986   1.54641
 Alpha virt. eigenvalues --    1.58830   1.59240   1.62943   1.63604   1.63911
 Alpha virt. eigenvalues --    1.64925   1.67888   1.69325   1.71880   1.73372
 Alpha virt. eigenvalues --    1.74827   1.76483   1.76749   1.77021   1.79665
 Alpha virt. eigenvalues --    1.82080   1.85138   1.86422   1.88574   1.88838
 Alpha virt. eigenvalues --    1.90052   1.91894   1.93771   1.94173   1.95871
 Alpha virt. eigenvalues --    1.97798   1.98859   1.99142   2.01544   2.03843
 Alpha virt. eigenvalues --    2.04630   2.05832   2.06239   2.09291   2.11803
 Alpha virt. eigenvalues --    2.12371   2.13404   2.14923   2.16153   2.18882
 Alpha virt. eigenvalues --    2.20153   2.20653   2.21881   2.22528   2.25799
 Alpha virt. eigenvalues --    2.28407   2.30918   2.31575   2.33524   2.36183
 Alpha virt. eigenvalues --    2.38512   2.40312   2.42591   2.43791   2.45742
 Alpha virt. eigenvalues --    2.48931   2.50277   2.51598   2.53472   2.56938
 Alpha virt. eigenvalues --    2.57606   2.61419   2.61898   2.63406   2.64742
 Alpha virt. eigenvalues --    2.66474   2.68852   2.70805   2.72085   2.73054
 Alpha virt. eigenvalues --    2.74890   2.75908   2.77363   2.78390   2.79763
 Alpha virt. eigenvalues --    2.80509   2.80870   2.81383   2.82595   2.84276
 Alpha virt. eigenvalues --    2.84592   2.87135   2.88873   2.91698   2.91938
 Alpha virt. eigenvalues --    2.94108   2.95902   2.97234   2.99450   3.00771
 Alpha virt. eigenvalues --    3.01912   3.03784   3.04165   3.07794   3.08224
 Alpha virt. eigenvalues --    3.09235   3.10626   3.11641   3.12180   3.12792
 Alpha virt. eigenvalues --    3.13446   3.14690   3.15857   3.18223   3.20555
 Alpha virt. eigenvalues --    3.21541   3.22802   3.23295   3.23995   3.25060
 Alpha virt. eigenvalues --    3.26506   3.27681   3.28242   3.29434   3.31586
 Alpha virt. eigenvalues --    3.32831   3.34979   3.35295   3.37469   3.39312
 Alpha virt. eigenvalues --    3.39380   3.40111   3.41554   3.43199   3.46837
 Alpha virt. eigenvalues --    3.49182   3.51968   3.53504   3.53903   3.57295
 Alpha virt. eigenvalues --    3.57778   3.58828   3.61588   3.62704   3.66874
 Alpha virt. eigenvalues --    3.67568   3.70338   3.73478   3.77964   3.78987
 Alpha virt. eigenvalues --    3.81348   3.85561   3.91306   3.94735   3.96012
 Alpha virt. eigenvalues --    3.98000   4.00316   4.03195   4.03885   4.08516
 Alpha virt. eigenvalues --    4.12995   4.13304   4.20163   4.22713   4.29829
 Alpha virt. eigenvalues --    4.30469   4.33269   4.34273   4.38268   4.39384
 Alpha virt. eigenvalues --    4.45232   4.49384   4.50970   4.57751   4.59302
 Alpha virt. eigenvalues --    4.61745   4.67673   4.74309   4.79928   4.86358
 Alpha virt. eigenvalues --    4.93768   4.96600   4.98653   5.05047   5.09368
 Alpha virt. eigenvalues --    5.11450   5.13003   5.15352   5.16751   5.17088
 Alpha virt. eigenvalues --    5.20013   5.21555   5.22200   5.24865   5.26643
 Alpha virt. eigenvalues --    5.34427   5.36759   5.36905   5.37492   5.41564
 Alpha virt. eigenvalues --    5.47485   5.47890   5.49060   5.52599   5.60885
 Alpha virt. eigenvalues --    5.67502   5.73882   5.75888   5.79255   5.81052
 Alpha virt. eigenvalues --    5.82189   5.84082   5.88114   5.93603   5.98267
 Alpha virt. eigenvalues --    6.02202   6.14862   6.15553   6.16145   6.18497
 Alpha virt. eigenvalues --    6.24867   6.27485   6.29058   6.31587   6.32806
 Alpha virt. eigenvalues --    6.34491   6.37050   6.39296   6.41877   6.42095
 Alpha virt. eigenvalues --    6.48994   6.51181   6.51900   6.55449   6.60457
 Alpha virt. eigenvalues --    6.61903   6.67360   6.68679   6.69842   6.71193
 Alpha virt. eigenvalues --    6.76137   6.76982   6.77294   6.80233   6.84402
 Alpha virt. eigenvalues --    6.84735   6.87664   6.92027   7.02852   7.05217
 Alpha virt. eigenvalues --    7.05652   7.06922   7.13174   7.16940   7.25808
 Alpha virt. eigenvalues --    7.32624   7.36472   7.42180  22.47338  22.78539
 Alpha virt. eigenvalues --   23.11859  23.17096  23.43595  23.47417  23.50497
 Alpha virt. eigenvalues --   43.89004  43.92700  43.95951  44.03300  44.05984
 Alpha virt. eigenvalues --   44.56949
          Condensed to atoms (all electrons):
               1          2          3          4          5          6
     1  H    0.321491   0.000032   0.000000  -0.003625   0.024225  -0.000142
     2  C    0.000032   4.388708  -0.019583  -0.041874  -0.024606   0.368814
     3  H    0.000000  -0.019583   0.427922   0.005096   0.001016   0.002609
     4  C   -0.003625  -0.041874   0.005096   5.112513   0.508328  -0.085462
     5  C    0.024225  -0.024606   0.001016   0.508328   5.115612   0.331076
     6  O   -0.000142   0.368814   0.002609  -0.085462   0.331076   7.787171
     7  C   -0.000039   0.236190   0.397787  -0.002414  -0.018759  -0.130357
     8  C    0.000066   0.054765  -0.019326   0.297959  -0.033572   0.037151
     9  C   -0.025822  -0.007215   0.000086  -0.011405   0.231840  -0.037487
    10  C    0.000003   0.004076  -0.015648  -0.049350  -0.015952  -0.001169
    11  H   -0.000096  -0.000068  -0.000041   0.372108   0.009935   0.002032
    12  H   -0.000000  -0.000079   0.000201  -0.000603   0.000057  -0.000001
    13  O    0.299346  -0.000423  -0.000001   0.025069  -0.177776   0.002228
    14  O    0.003369  -0.000351  -0.000001   0.007927  -0.106209  -0.003681
    15  O    0.000000   0.000410   0.001141   0.003206  -0.000893   0.000011
    16  O   -0.000001   0.000545   0.000059   0.016063  -0.004791   0.000013
    17  O   -0.000000   0.719218   0.001823   0.001978  -0.000675  -0.095752
    18  H    0.000000  -0.000104   0.000015  -0.001812   0.000292  -0.000001
               7          8          9         10         11         12
     1  H   -0.000039   0.000066  -0.025822   0.000003  -0.000096  -0.000000
     2  C    0.236190   0.054765  -0.007215   0.004076  -0.000068  -0.000079
     3  H    0.397787  -0.019326   0.000086  -0.015648  -0.000041   0.000201
     4  C   -0.002414   0.297959  -0.011405  -0.049350   0.372108  -0.000603
     5  C   -0.018759  -0.033572   0.231840  -0.015952   0.009935   0.000057
     6  O   -0.130357   0.037151  -0.037487  -0.001169   0.002032  -0.000001
     7  C    5.570400   0.239571   0.011095  -0.052616   0.006814  -0.000471
     8  C    0.239571   5.197079  -0.009129   0.316976  -0.014704   0.018402
     9  C    0.011095  -0.009129   4.374855  -0.002469  -0.006672   0.000001
    10  C   -0.052616   0.316976  -0.002469   4.588876  -0.016078  -0.021142
    11  H    0.006814  -0.014704  -0.006672  -0.016078   0.416394  -0.000002
    12  H   -0.000471   0.018402   0.000001  -0.021142  -0.000002   0.300111
    13  O    0.000875  -0.001323   0.437212  -0.000269   0.006915   0.000000
    14  O    0.001035  -0.000933   0.712165  -0.000027   0.000182   0.000000
    15  O   -0.001167  -0.113364  -0.000014   0.464088   0.000024   0.296085
    16  O   -0.002963  -0.068111  -0.000095   0.382936   0.003299   0.002270
    17  O   -0.109566   0.016256   0.000189  -0.000225   0.000030  -0.000001
    18  H   -0.000248   0.008549   0.000004   0.024499   0.000005   0.005095
              13         14         15         16         17         18
     1  H    0.299346   0.003369   0.000000  -0.000001  -0.000000   0.000000
     2  C   -0.000423  -0.000351   0.000410   0.000545   0.719218  -0.000104
     3  H   -0.000001  -0.000001   0.001141   0.000059   0.001823   0.000015
     4  C    0.025069   0.007927   0.003206   0.016063   0.001978  -0.001812
     5  C   -0.177776  -0.106209  -0.000893  -0.004791  -0.000675   0.000292
     6  O    0.002228  -0.003681   0.000011   0.000013  -0.095752  -0.000001
     7  C    0.000875   0.001035  -0.001167  -0.002963  -0.109566  -0.000248
     8  C   -0.001323  -0.000933  -0.113364  -0.068111   0.016256   0.008549
     9  C    0.437212   0.712165  -0.000014  -0.000095   0.000189   0.000004
    10  C   -0.000269  -0.000027   0.464088   0.382936  -0.000225   0.024499
    11  H    0.006915   0.000182   0.000024   0.003299   0.000030   0.000005
    12  H    0.000000   0.000000   0.296085   0.002270  -0.000001   0.005095
    13  O    7.891289  -0.084481  -0.000000  -0.000011   0.000001   0.000000
    14  O   -0.084481   7.794689  -0.000000  -0.000000  -0.000069   0.000000
    15  O   -0.000000  -0.000000   7.705539  -0.057791   0.000000  -0.010011
    16  O   -0.000011  -0.000000  -0.057791   7.697709   0.000001   0.210660
    17  O    0.000001  -0.000069   0.000000   0.000001   7.790175  -0.000001
    18  H    0.000000   0.000000  -0.010011   0.210660  -0.000001   0.274902
 Mulliken charges:
               1
     1  H    0.381193
     2  C    0.321544
     3  H    0.216843
     4  C   -0.153702
     5  C    0.160852
     6  O   -0.177054
     7  C   -0.145166
     8  C    0.073687
     9  C    0.332860
    10  C    0.393492
    11  H    0.219924
    12  H    0.400076
    13  O   -0.398652
    14  O   -0.323616
    15  O   -0.287264
    16  O   -0.179792
    17  O   -0.323382
    18  H    0.488156
 Sum of Mulliken charges =   1.00000
 Mulliken charges with hydrogens summed into heavy atoms:
               1
     2  C    0.321544
     4  C    0.066222
     5  C    0.160852
     6  O   -0.177054
     7  C    0.071677
     8  C    0.073687
     9  C    0.332860
    10  C    0.393492
    13  O   -0.017459
    14  O   -0.323616
    15  O    0.112813
    16  O    0.308364
    17  O   -0.323382
 Electronic spatial extent (au):  <R**2>=         203982.0804
 Charge=              1.0000 electrons
 Dipole moment (field-independent basis, Debye):
    X=             29.7451    Y=            113.5632    Z=             70.0519  Tot=            136.7064
 Quadrupole moment (field-independent basis, Debye-Ang):
   XX=            110.7333   YY=           2608.9568   ZZ=            937.4635
   XY=            688.2895   XZ=            423.3021   YZ=           1626.6723
 Traceless Quadrupole moment (field-independent basis, Debye-Ang):
   XX=          -1108.3179   YY=           1389.9056   ZZ=           -281.5877
   XY=            688.2895   XZ=            423.3021   YZ=           1626.6723
 Octapole moment (field-independent basis, Debye-Ang**2):
  XXX=             91.8493  YYY=          58911.6966  ZZZ=          11648.3381  XYY=          15649.1751
  XXY=           2717.3235  XXZ=           1633.4666  XZZ=           5659.9013  YZZ=          21636.8883
  YYZ=          36952.8481  XYZ=           9678.4719
 Hexadecapole moment (field-independent basis, Debye-Ang**3):
 XXXX=          -3169.6811 YYYY=        1315992.9063 ZZZZ=         132674.2843 XXXY=           4565.1479
 XXXZ=           2111.8960 YYYX=         352172.9471 YYYZ=         828581.3187 ZZZX=          71489.5723
 ZZZY=         269600.4298 XXYY=          64572.6306 XXZZ=          22159.6290 YYZZ=         489785.9593
 XXYZ=          39252.0633 YYXZ=         218354.5415 ZZXY=         128797.1790
 N-N= 7.818598220465D+02 E-N=-3.237930758544D+03  KE= 7.177805120084D+02
   1 Symmetry operations used in ECPInt.
 ECPInt:  NShTT=   13366 NPrTT=   42496 LenC2=   12236 LenP2D=   28914.
 LDataN:  DoStor=T MaxTD1= 7 Len=  274
 D1PCM: PCM CHGder 1st derivatives, ID1Alg=3 FixD1E=F DoIter=F DoCFld=F I1PDM=0.
 Calling FoFJK, ICntrl=      2127 FMM=F ISym2X=0 I1Cent= 0 IOpClX= 0 NMat=1 NMatS=1 NMatT=0.
 -------------------------------------------------------------------
 Center     Atomic                   Forces (Hartrees/Bohr)
 Number     Number              X              Y              Z
 -------------------------------------------------------------------
      1        1           0.000050267   -0.000084545    0.000148169
      2        6          -0.003063110   -0.010055159   -0.006739116
      3        1          -0.000450928   -0.000206337   -0.000494666
      4        6           0.001581276    0.000340091    0.002845160
      5        6          -0.001201172    0.001076122   -0.002585203
      6        8           0.001359950    0.002758257    0.002552074
      7        6          -0.000431689    0.010563293   -0.001947278
      8        6          -0.000022730    0.001285447    0.012801852
      9        6           0.001033504   -0.005324325    0.002861409
     10        6          -0.106493885   -0.027913755   -0.134450793
     11        1           0.000295798   -0.001847501    0.000752995
     12        1          -0.007381295    0.012882881   -0.003603526
     13        8          -0.000797842    0.001471099   -0.001785782
     14        8           0.000029252    0.003193879   -0.000331066
     15        8           0.016382410   -0.025441600    0.025127471
     16        8           0.111714930    0.057690597    0.018293841
     17        8           0.003059559    0.004463959    0.006039789
     18        1          -0.015664295   -0.024852402    0.080514669
 -------------------------------------------------------------------
 Cartesian Forces:  Max     0.134450793 RMS     0.032221335

 GradGradGradGradGradGradGradGradGradGradGradGradGradGradGradGradGradGrad
 Berny optimization.
 FormGI is forming the generalized inverse of G from B-inverse, IUseBI=4.
 Internal  Forces:  Max     0.133494798 RMS     0.022084000
 Search for a local minimum.
 Step number   1 out of a maximum of   87
 All quantities printed in internal units (Hartrees-Bohrs-Radians)
 Mixed Optimization -- RFO/linear search
 Second derivative matrix not updated -- first step.
 ITU=  0
     Eigenvalues ---    0.00776   0.00852   0.01455   0.01533   0.01687
     Eigenvalues ---    0.01903   0.01986   0.02090   0.02227   0.02264
     Eigenvalues ---    0.02435   0.02620   0.02637   0.02651   0.04330
     Eigenvalues ---    0.16000   0.16000   0.16000   0.16000   0.16000
     Eigenvalues ---    0.23496   0.23498   0.24685   0.25000   0.25000
     Eigenvalues ---    0.25000   0.25000   0.25000   0.25000   0.25000
     Eigenvalues ---    0.25000   0.32458   0.33070   0.35992   0.36291
     Eigenvalues ---    0.36308   0.39471   0.49128   0.52197   0.53224
     Eigenvalues ---    0.53374   0.56014   0.56373   0.59551   0.59842
     Eigenvalues ---    1.04528   1.04957   1.05676
 RFO step:  Lambda=-8.81750562D-02 EMin= 7.76087237D-03
 Linear search not attempted -- first point.
 Maximum step size (   0.300) exceeded in Quadratic search.
    -- Step size scaled by   0.563
 Iteration  1 RMS(Cart)=  0.05814886 RMS(Int)=  0.00810771
 Iteration  2 RMS(Cart)=  0.01312738 RMS(Int)=  0.00035038
 Iteration  3 RMS(Cart)=  0.00040170 RMS(Int)=  0.00001587
 Iteration  4 RMS(Cart)=  0.00000035 RMS(Int)=  0.00001587
 Variable       Old X    -DE/DX   Delta X   Delta X   Delta X     New X
                                 (Linear)    (Quad)   (Total)
    R1        1.83306   0.00014   0.00000   0.00013   0.00013   1.83319
    R2        2.59112  -0.00031   0.00000  -0.00037  -0.00037   2.59075
    R3        2.75274   0.00280   0.00000   0.00351   0.00351   2.75625
    R4        2.26717  -0.00741   0.00000  -0.00366  -0.00366   2.26351
    R5        2.04094   0.00021   0.00000   0.00027   0.00027   2.04121
    R6        2.52940  -0.00069   0.00000  -0.00066  -0.00066   2.52874
    R7        2.70863   0.00197   0.00000   0.00233   0.00233   2.71096
    R8        2.03629   0.00070   0.00000   0.00088   0.00088   2.03717
    R9        2.54379  -0.00111   0.00000  -0.00110  -0.00110   2.54269
   R10        2.82229   0.00109   0.00000   0.00146   0.00146   2.82376
   R11        2.54104   0.00090   0.00000   0.00092   0.00092   2.54195
   R12        2.83314  -0.01278   0.00000  -0.01742  -0.01742   2.81572
   R13        2.51297  -0.00168   0.00000  -0.00138  -0.00138   2.51159
   R14        2.26448  -0.00263   0.00000  -0.00129  -0.00129   2.26318
   R15        2.51065  -0.02448   0.00000  -0.02006  -0.02006   2.49059
   R16        2.26878   0.13349   0.00000   0.06626   0.06626   2.33504
   R17        1.83445   0.00727   0.00000   0.00659   0.00659   1.84104
   R18        2.26717  -0.06905   0.00000  -0.11596  -0.11596   2.15121
    A1        2.02276  -0.00043   0.00000  -0.00055  -0.00055   2.02221
    A2        2.06023   0.00397   0.00000   0.00651   0.00651   2.06674
    A3        2.20020  -0.00353   0.00000  -0.00596  -0.00596   2.19424
    A4        2.05358  -0.00276   0.00000  -0.00487  -0.00487   2.04871
    A5        2.11432  -0.00055   0.00000  -0.00193  -0.00193   2.11239
    A6        2.11529   0.00331   0.00000   0.00681   0.00680   2.12209
    A7        2.14600   0.00047   0.00000   0.00056   0.00056   2.14656
    A8        2.18329  -0.00085   0.00000  -0.00131  -0.00131   2.18198
    A9        1.95390   0.00038   0.00000   0.00074   0.00074   1.95464
   A10        2.13805   0.00228   0.00000   0.00346   0.00346   2.14152
   A11        2.03502   0.00109   0.00000   0.00137   0.00137   2.03640
   A12        2.10379  -0.00348   0.00000  -0.00570  -0.00570   2.09809
   A13        2.14437   0.00239   0.00000   0.00433   0.00433   2.14869
   A14        2.10219   0.00392   0.00000   0.00709   0.00710   2.10929
   A15        2.05259   0.00330   0.00000   0.00520   0.00520   2.05779
   A16        2.12840  -0.00722   0.00000  -0.01230  -0.01230   2.11610
   A17        1.94751  -0.00131   0.00000  -0.00219  -0.00219   1.94532
   A18        2.15496  -0.00142   0.00000  -0.00237  -0.00237   2.15260
   A19        2.18071   0.00274   0.00000   0.00455   0.00455   2.18527
   A20        1.96865   0.00526   0.00000   0.00875   0.00871   1.97736
   A21        2.14148  -0.00750   0.00000  -0.01248  -0.01252   2.12896
   A22        2.17305   0.00224   0.00000   0.00372   0.00367   2.17673
   A23        1.89827   0.00018   0.00000   0.00041   0.00041   1.89868
   A24        1.89998   0.02240   0.00000   0.05077   0.05077   1.95075
   A25        1.38110   0.11508   0.00000   0.26087   0.26087   1.64197
    D1        0.00017  -0.00010   0.00000  -0.00053  -0.00054  -0.00037
    D2       -3.14113   0.00011   0.00000   0.00054   0.00054  -3.14058
    D3       -3.14065   0.00009   0.00000   0.00044   0.00045  -3.14021
    D4       -0.00032   0.00015   0.00000   0.00077   0.00077   0.00045
    D5        0.00061  -0.00013   0.00000  -0.00073  -0.00072  -0.00011
    D6        3.14094  -0.00007   0.00000  -0.00040  -0.00040   3.14055
    D7        0.00044   0.00007   0.00000   0.00033   0.00033   0.00077
    D8        3.14158   0.00001   0.00000   0.00008   0.00008  -3.14153
    D9       -3.14055   0.00012   0.00000   0.00060   0.00060  -3.13994
   D10        0.00059   0.00007   0.00000   0.00035   0.00035   0.00094
   D11       -0.00059  -0.00001   0.00000  -0.00008  -0.00008  -0.00066
   D12       -3.14154   0.00028   0.00000   0.00142   0.00143  -3.14011
   D13        3.14040  -0.00007   0.00000  -0.00035  -0.00035   3.14005
   D14       -0.00056   0.00022   0.00000   0.00115   0.00116   0.00060
   D15       -0.00025  -0.00001   0.00000  -0.00001  -0.00001  -0.00026
   D16       -3.14144   0.00004   0.00000   0.00022   0.00022  -3.14122
   D17       -0.00071  -0.00000   0.00000  -0.00001  -0.00001  -0.00072
   D18        3.14064   0.00004   0.00000   0.00021   0.00021   3.14086
   D19        3.14047  -0.00005   0.00000  -0.00024  -0.00024   3.14023
   D20       -0.00136  -0.00000   0.00000  -0.00002  -0.00002  -0.00138
   D21        0.00054  -0.00010   0.00000  -0.00048  -0.00048   0.00006
   D22        3.14146  -0.00040   0.00000  -0.00203  -0.00203   3.13943
   D23        3.14079  -0.00004   0.00000  -0.00013  -0.00013   3.14065
   D24       -0.00147  -0.00033   0.00000  -0.00169  -0.00168  -0.00316
   D25       -3.14143   0.00139   0.00000   0.00697   0.00695  -3.13447
   D26       -0.00073  -0.00189   0.00000  -0.00971  -0.00969  -0.01042
   D27        0.00082   0.00168   0.00000   0.00848   0.00846   0.00928
   D28        3.14151  -0.00160   0.00000  -0.00820  -0.00819   3.13333
   D29       -3.14095   0.00002   0.00000   0.00013   0.00013  -3.14083
   D30        0.00088  -0.00002   0.00000  -0.00010  -0.00010   0.00078
   D31        3.14101  -0.00655   0.00000  -0.03243  -0.03250   3.10850
   D32        0.00033  -0.00319   0.00000  -0.01539  -0.01531  -0.01499
   D33        2.16486   0.00227   0.00000   0.01120   0.01116   2.17603
   D34       -0.97773  -0.00140   0.00000  -0.00747  -0.00744  -0.98517
         Item               Value     Threshold  Converged?
 Maximum Force            0.133495     0.000450     NO 
 RMS     Force            0.022084     0.000300     NO 
 Maximum Displacement     0.513375     0.001800     NO 
 RMS     Displacement     0.070146     0.001200     NO 
 Predicted change in Energy=-3.969689D-02
 GradGradGradGradGradGradGradGradGradGradGradGradGradGradGradGradGradGrad

                          Input orientation:                          
 ---------------------------------------------------------------------
 Center     Atomic      Atomic             Coordinates (Angstroms)
 Number     Number       Type             X           Y           Z
 ---------------------------------------------------------------------
      1          1           0        5.816825   16.982719   15.408117
      2          6           0        3.882100   20.024261   11.247771
      3          1           0        3.975911   22.191587   11.196402
      4          6           0        5.157784   20.244001   13.747419
      5          6           0        4.822530   19.062553   13.215977
      6          8           0        4.212780   18.942634   12.022545
      7          6           0        4.231740   21.330023   11.795575
      8          6           0        4.841150   21.421289   12.991276
      9          6           0        5.070619   17.734129   13.853612
     10          6           0        5.211051   22.742987   13.571303
     11          1           0        5.647216   20.303310   14.706103
     12          1           0        5.096362   24.614316   13.219788
     13          8           0        5.674441   17.864818   15.030374
     14          8           0        4.756734   16.693672   13.350391
     15          8           0        4.871307   23.761231   12.806590
     16          8           0        5.763322   22.843103   14.672124
     17          8           0        3.339480   19.828843   10.197965
     18          1           0        6.643529   23.440634   14.267056
 ---------------------------------------------------------------------
                    Distance matrix (angstroms):
                    1          2          3          4          5
     1  H    0.000000
     2  C    5.504782   0.000000
     3  H    6.946928   2.169963   0.000000
     4  C    3.718631   2.814941   3.420176   0.000000
     5  C    3.181165   2.383931   3.819201   1.338149   0.000000
     6  O    4.228041   1.370963   3.360701   2.358342   1.345532
     7  C    5.870435   1.458544   1.080161   2.417994   2.740072
     8  C    5.147229   2.431311   2.136252   1.434579   2.369487
     9  C    1.880938   3.667109   5.303591   2.513629   1.494268
    10  C    6.076310   3.815283   2.733087   2.505751   3.717902
    11  H    3.398223   3.892757   4.321672   1.078024   2.107144
    12  H    7.971770   5.141195   3.349495   4.402479   5.558513
    13  O    0.970084   4.709964   6.025385   2.751984   2.335028
    14  O    2.332719   4.034702   5.956209   3.594900   2.373604
    15  O    7.321897   4.168140   2.420376   3.652141   4.716730
    16  O    5.906662   4.817786   3.962317   2.824374   4.159088
    17  O    6.432989   1.197797   2.642817   4.009639   3.448917
    18  H    6.609851   5.330401   4.255023   3.563134   4.856789
                    6          7          8          9         10
     6  O    0.000000
     7  C    2.398229   0.000000
     8  C    2.734414   1.345144   0.000000
     9  C    2.355670   4.227255   3.793603   0.000000
    10  C    4.223491   2.471584   1.490015   5.018772   0.000000
    11  H    3.333246   3.395421   2.200056   2.767651   2.725809
    12  H    5.863624   3.682734   3.211350   6.909367   1.907508
    13  O    3.513570   4.955094   4.183393   1.329078   5.112744
    14  O    2.667751   4.918214   4.741988   1.197626   6.070373
    15  O    4.926181   2.709606   2.347413   6.120615   1.317965
    16  O    4.963679   3.593006   2.386882   5.220288   1.235651
    17  O    2.208418   2.366860   3.548730   4.555043   4.834710
    18  H    5.583760   4.047175   2.992313   5.933732   1.738613
                   11         12         13         14         15
    11  H    0.000000
    12  H    4.593184   0.000000
    13  O    2.460109   7.011998   0.000000
    14  O    3.957322   7.928998   2.244128   0.000000
    15  O    4.020871   0.974237   6.352788   7.089375   0.000000
    16  O    2.542673   2.385647   4.991950   6.369906   2.262492
    17  O    5.086656   5.926112   5.715033   4.666444   4.961360
    18  H    3.320874   2.206360   5.710649   7.065534   2.318731
                   16         17         18
    16  O    0.000000
    17  O    5.914294   0.000000
    18  H    1.138371   6.365475   0.000000
 Symmetry turned off by external request.
 Stoichiometry    C7H5O6(1+)
 Framework group  C1[X(C7H5O6)]
 Deg. of freedom    48
 Full point group                 C1      NOp   1
 Rotational constants (GHZ):           1.1739145           0.5783820           0.3879863
 Standard basis: def2TZVP (5D, 7F)
   433 basis functions,   703 primitive gaussians,   498 cartesian basis functions
    47 alpha electrons       47 beta electrons
       nuclear repulsion energy       780.9610487593 Hartrees.
 NAtoms=   18 NActive=   18 NUniq=   18 SFac= 1.00D+00 NAtFMM=   60 NAOKFM=F Big=F
 Integral buffers will be    131072 words long.
 Raffenetti 2 integral format.
 Two-electron integral symmetry is turned off.
 ------------------------------------------------------------------------------
 Polarizable Continuum Model (PCM)
 =================================
 Model                : PCM.
 Atomic radii         : UFF (Universal Force Field).
 Polarization charges : Total charges.
 Charge compensation  : None.
 Solution method      : On-the-fly selection.
 Cavity type          : Scaled VdW (van der Waals Surface) (Alpha=1.100).
 Cavity algorithm     : GePol (No added spheres)
                        Default sphere list used, NSphG=   18.
                        Lebedev-Laikov grids with approx.  7.0 points / Ang**2.
                        Smoothing algorithm: York/Karplus (Gamma=1.0000).
                        Polarization charges: spherical gaussians, with
                                              point-specific exponents (IZeta= 3).
                        Self-potential: point-specific (ISelfS= 7).
                        Self-field    : sphere-specific E.n sum rule (ISelfD= 2).
 1st derivatives      : Analytical E(r).r(x)/FMM algorithm (CHGder, D1EAlg=3).
                        Cavity 1st derivative terms included.
 Solvent              : 1,2-EthaneDiol, Eps=  40.245000 Eps(inf)=   2.050051
 ------------------------------------------------------------------------------
 Spheres list:
 ISph  on   Nord     Re0    Alpha      Xe            Ye            Ze
    1   H      1    1.4430  1.100      5.816825     16.982719     15.408117
    2   C      2    1.9255  1.100      3.882100     20.024261     11.247771
    3   H      3    1.4430  1.100      3.975911     22.191587     11.196402
    4   C      4    1.9255  1.100      5.157784     20.244001     13.747419
    5   C      5    1.9255  1.100      4.822530     19.062553     13.215977
    6   O      6    1.7500  1.100      4.212780     18.942634     12.022545
    7   C      7    1.9255  1.100      4.231740     21.330023     11.795575
    8   C      8    1.9255  1.100      4.841150     21.421289     12.991276
    9   C      9    1.9255  1.100      5.070619     17.734129     13.853612
   10   C     10    1.9255  1.100      5.211051     22.742987     13.571303
   11   H     11    1.4430  1.100      5.647216     20.303310     14.706103
   12   H     12    1.4430  1.100      5.096362     24.614316     13.219788
   13   O     13    1.7500  1.100      5.674441     17.864818     15.030374
   14   O     14    1.7500  1.100      4.756734     16.693672     13.350391
   15   O     15    1.7500  1.100      4.871307     23.761231     12.806590
   16   O     16    1.7500  1.100      5.763322     22.843103     14.672124
   17   O     17    1.7500  1.100      3.339480     19.828843     10.197965
   18   H     18    1.4430  1.100      6.643529     23.440634     14.267056
 ------------------------------------------------------------------------------
 One-electron integrals computed using PRISM.
   1 Symmetry operations used in ECPInt.
 ECPInt:  NShTT=   13366 NPrTT=   42496 LenC2=   12230 LenP2D=   28900.
 LDataN:  DoStor=T MaxTD1= 6 Len=  172
 NBasis=   433 RedAO= T EigKep=  2.38D-05  NBF=   433
 NBsUse=   433 1.00D-06 EigRej= -1.00D+00 NBFU=   433
 Initial guess from the checkpoint file:  "/dev/shm/pdc_bh2.chk"
 B after Tr=    -0.200998   -0.103329    0.209445
         Rot=    0.999992    0.002145   -0.003453    0.000298 Ang=   0.47 deg.
 ExpMin= 9.52D-02 ExpMax= 2.70D+04 ExpMxC= 9.22D+02 IAcc=3 IRadAn=         5 AccDes= 0.00D+00
 Harris functional with IExCor= 1009 and IRadAn=       5 diagonalized for initial guess.
 HarFok:  IExCor= 1009 AccDes= 0.00D+00 IRadAn=         5 IDoV= 1 UseB2=F ITyADJ=14
 ICtDFT=  3500011 ScaDFX=  1.000000  1.000000  1.000000  1.000000
 FoFCou: FMM=F IPFlag=           0 FMFlag=      100000 FMFlg1=           0
         NFxFlg=           0 DoJE=T BraDBF=F KetDBF=T FulRan=T
         wScrn=  0.000000 ICntrl=       500 IOpCl=  0 I1Cent=   200000004 NGrid=           0
         NMat0=    1 NMatS0=      1 NMatT0=    0 NMatD0=    1 NMtDS0=    0 NMtDT0=    0
 Symmetry not used in FoFCou.
 Requested convergence on RMS density matrix=1.00D-08 within  32 cycles.
 Requested convergence on MAX density matrix=1.00D-06.
 Requested convergence on             energy=1.00D-06.
 No special actions if energy rises.
 Inv3:  Mode=1 IEnd=    17308812.
 Iteration    1 A*A^-1 deviation from unit magnitude is 2.89D-15 for    272.
 Iteration    1 A*A^-1 deviation from orthogonality  is 1.78D-15 for   2345   1773.
 Iteration    1 A^-1*A deviation from unit magnitude is 3.00D-15 for    249.
 Iteration    1 A^-1*A deviation from orthogonality  is 1.93D-15 for   2109   1019.
 Error on total polarization charges =  0.00773
 SCF Done:  E(RM062X) =  -720.895084896     A.U. after   12 cycles
            NFock= 12  Conv=0.62D-08     -V/T= 2.0045
 QCSCF skips out because SCF is already converged.
   1 Symmetry operations used in ECPInt.
 ECPInt:  NShTT=   13366 NPrTT=   42496 LenC2=   12230 LenP2D=   28900.
 LDataN:  DoStor=T MaxTD1= 7 Len=  274
 D1PCM: PCM CHGder 1st derivatives, ID1Alg=3 FixD1E=F DoIter=F DoCFld=F I1PDM=0.
 Calling FoFJK, ICntrl=      2127 FMM=F ISym2X=0 I1Cent= 0 IOpClX= 0 NMat=1 NMatS=1 NMatT=0.
 -------------------------------------------------------------------
 Center     Atomic                   Forces (Hartrees/Bohr)
 Number     Number              X              Y              Z
 -------------------------------------------------------------------
      1        1           0.000086717   -0.000039156    0.000211823
      2        6          -0.001504606   -0.007170299   -0.004102876
      3        1          -0.000433496   -0.000328789   -0.000141518
      4        6           0.001164236    0.000023818    0.001733038
      5        6          -0.000844011    0.000959229   -0.001898154
      6        8           0.000598608    0.002078564    0.001097675
      7        6          -0.000554268    0.007218527   -0.001738136
      8        6           0.000631030    0.002305147    0.014401434
      9        6           0.000691803   -0.003331339    0.001892124
     10        6          -0.067499130   -0.002752804   -0.088695105
     11        1           0.000024441   -0.001027840    0.000185658
     12        1          -0.002973663    0.004841550   -0.001790903
     13        8          -0.000610527    0.000650723   -0.001270761
     14        8           0.000055317    0.001879355   -0.000133390
     15        8           0.018690425   -0.026655165    0.027814515
     16        8           0.099001044    0.050323789   -0.006734559
     17        8           0.001827558    0.002621733    0.003649367
     18        1          -0.048351478   -0.031597044    0.055519767
 -------------------------------------------------------------------
 Cartesian Forces:  Max     0.099001044 RMS     0.024906447

 GradGradGradGradGradGradGradGradGradGradGradGradGradGradGradGradGradGrad
 Berny optimization.
 Using GEDIIS/GDIIS optimizer.
 FormGI is forming the generalized inverse of G from B-inverse, IUseBI=4.
 Internal  Forces:  Max     0.073707366 RMS     0.014520547
 Search for a local minimum.
 Step number   2 out of a maximum of   87
 All quantities printed in internal units (Hartrees-Bohrs-Radians)
 Mixed Optimization -- RFO/linear search
 Update second derivatives using D2CorX and points    1    2
 DE= -4.11D-02 DEPred=-3.97D-02 R= 1.03D+00
 TightC=F SS=  1.41D+00  RLast= 3.03D-01 DXNew= 5.0454D-01 9.0870D-01
 Trust test= 1.03D+00 RLast= 3.03D-01 DXMaxT set to 5.05D-01
 ITU=  1  0
 Use linear search instead of GDIIS.
     Eigenvalues ---    0.00776   0.00852   0.01459   0.01535   0.01688
     Eigenvalues ---    0.01903   0.01986   0.02090   0.02225   0.02274
     Eigenvalues ---    0.02434   0.02620   0.02650   0.02662   0.04146
     Eigenvalues ---    0.12507   0.16000   0.16000   0.16000   0.16157
     Eigenvalues ---    0.23433   0.23499   0.24490   0.24989   0.24999
     Eigenvalues ---    0.25000   0.25000   0.25000   0.25000   0.25000
     Eigenvalues ---    0.28260   0.32379   0.33069   0.35993   0.36293
     Eigenvalues ---    0.36308   0.39466   0.49124   0.52205   0.53260
     Eigenvalues ---    0.53374   0.56016   0.56372   0.59208   0.59572
     Eigenvalues ---    1.04941   1.05674   1.09028
 RFO step:  Lambda=-3.82458351D-02 EMin= 7.75994043D-03
 Quartic linear search produced a step of  1.53758.
 Iteration  1 RMS(Cart)=  0.07135071 RMS(Int)=  0.05447420
 Iteration  2 RMS(Cart)=  0.04720252 RMS(Int)=  0.02786933
 Iteration  3 RMS(Cart)=  0.02282481 RMS(Int)=  0.00484593
 Iteration  4 RMS(Cart)=  0.00468825 RMS(Int)=  0.00004230
 Iteration  5 RMS(Cart)=  0.00002227 RMS(Int)=  0.00003946
 Iteration  6 RMS(Cart)=  0.00000000 RMS(Int)=  0.00003946
 Variable       Old X    -DE/DX   Delta X   Delta X   Delta X     New X
                                 (Linear)    (Quad)   (Total)
    R1        1.83319   0.00013   0.00020   0.00028   0.00048   1.83367
    R2        2.59075  -0.00087  -0.00057  -0.00339  -0.00397   2.58678
    R3        2.75625   0.00242   0.00540   0.00661   0.01201   2.76826
    R4        2.26351  -0.00445  -0.00563  -0.00278  -0.00841   2.25509
    R5        2.04121  -0.00008   0.00041  -0.00111  -0.00069   2.04052
    R6        2.52874  -0.00016  -0.00102   0.00051  -0.00052   2.52822
    R7        2.71096   0.00119   0.00359   0.00168   0.00527   2.71623
    R8        2.03717   0.00012   0.00135  -0.00127   0.00008   2.03725
    R9        2.54269  -0.00063  -0.00169  -0.00074  -0.00244   2.54025
   R10        2.82376   0.00108   0.00225   0.00370   0.00595   2.82971
   R11        2.54195   0.00144   0.00141   0.00440   0.00581   2.54777
   R12        2.81572  -0.01087  -0.02679  -0.03176  -0.05854   2.75717
   R13        2.51159  -0.00111  -0.00212  -0.00137  -0.00349   2.50811
   R14        2.26318  -0.00159  -0.00199  -0.00100  -0.00299   2.26019
   R15        2.49059  -0.03600  -0.03084  -0.09480  -0.12565   2.36495
   R16        2.33504   0.06760   0.10188   0.02205   0.12393   2.45897
   R17        1.84104   0.00279   0.01013  -0.00213   0.00801   1.84905
   R18        2.15121  -0.07371  -0.17830  -0.33551  -0.51381   1.63740
    A1        2.02221  -0.00022  -0.00084  -0.00009  -0.00094   2.02127
    A2        2.06674   0.00227   0.01001   0.00272   0.01272   2.07946
    A3        2.19424  -0.00206  -0.00917  -0.00264  -0.01182   2.18242
    A4        2.04871  -0.00158  -0.00749  -0.00171  -0.00919   2.03951
    A5        2.11239  -0.00027  -0.00297   0.00028  -0.00270   2.10969
    A6        2.12209   0.00185   0.01046   0.00143   0.01189   2.13398
    A7        2.14656   0.00048   0.00086   0.00163   0.00249   2.14905
    A8        2.18198  -0.00057  -0.00201  -0.00099  -0.00300   2.17899
    A9        1.95464   0.00008   0.00114  -0.00064   0.00051   1.95515
   A10        2.14152   0.00143   0.00532   0.00173   0.00704   2.14855
   A11        2.03640   0.00059   0.00211  -0.00019   0.00192   2.03831
   A12        2.09809  -0.00212  -0.00876  -0.00286  -0.01161   2.08649
   A13        2.14869   0.00153   0.00665   0.00305   0.00969   2.15839
   A14        2.10929   0.00200   0.01091   0.00129   0.01221   2.12149
   A15        2.05779   0.00273   0.00800   0.00887   0.01685   2.07465
   A16        2.11610  -0.00473  -0.01891  -0.01018  -0.02910   2.08700
   A17        1.94532  -0.00069  -0.00336  -0.00036  -0.00372   1.94160
   A18        2.15260  -0.00080  -0.00364  -0.00080  -0.00444   2.14816
   A19        2.18527   0.00149   0.00700   0.00116   0.00816   2.19343
   A20        1.97736   0.01091   0.01339   0.06990   0.08322   2.06057
   A21        2.12896  -0.00680  -0.01926  -0.02580  -0.04513   2.08383
   A22        2.17673  -0.00413   0.00565  -0.04358  -0.03801   2.13872
   A23        1.89868   0.00035   0.00063   0.00315   0.00379   1.90246
   A24        1.95075   0.00894   0.07807  -0.03394   0.04413   1.99488
   A25        1.64197   0.06582   0.40111   0.06760   0.46870   2.11067
    D1       -0.00037  -0.00012  -0.00083  -0.00217  -0.00304  -0.00341
    D2       -3.14058   0.00014   0.00084   0.00281   0.00370  -3.13688
    D3       -3.14021   0.00015   0.00069   0.00357   0.00428  -3.13592
    D4        0.00045   0.00018   0.00119   0.00322   0.00441   0.00486
    D5       -0.00011  -0.00013  -0.00111  -0.00181  -0.00289  -0.00300
    D6        3.14055  -0.00010  -0.00061  -0.00216  -0.00276   3.13778
    D7        0.00077   0.00006   0.00051   0.00061   0.00116   0.00193
    D8       -3.14153   0.00000   0.00012  -0.00016  -0.00003  -3.14155
    D9       -3.13994   0.00014   0.00093   0.00193   0.00290  -3.13704
   D10        0.00094   0.00008   0.00053   0.00116   0.00172   0.00266
   D11       -0.00066   0.00001  -0.00012   0.00054   0.00040  -0.00027
   D12       -3.14011   0.00035   0.00220   0.00627   0.00860  -3.13151
   D13        3.14005  -0.00007  -0.00054  -0.00079  -0.00138   3.13867
   D14        0.00060   0.00027   0.00178   0.00494   0.00682   0.00742
   D15       -0.00026  -0.00000  -0.00001   0.00031   0.00030   0.00005
   D16       -3.14122   0.00005   0.00034   0.00099   0.00135  -3.13987
   D17       -0.00072  -0.00000  -0.00002  -0.00030  -0.00031  -0.00103
   D18        3.14086   0.00003   0.00033   0.00002   0.00035   3.14121
   D19        3.14023  -0.00005  -0.00038  -0.00099  -0.00137   3.13885
   D20       -0.00138  -0.00002  -0.00003  -0.00068  -0.00071  -0.00209
   D21        0.00006  -0.00013  -0.00073  -0.00247  -0.00320  -0.00314
   D22        3.13943  -0.00047  -0.00312  -0.00837  -0.01140   3.12803
   D23        3.14065  -0.00010  -0.00021  -0.00285  -0.00307   3.13758
   D24       -0.00316  -0.00044  -0.00259  -0.00875  -0.01127  -0.01443
   D25       -3.13447   0.00024   0.01069  -0.03083  -0.02017   3.12854
   D26       -0.01042  -0.00120  -0.01490  -0.00003  -0.01482  -0.02524
   D27        0.00928   0.00057   0.01301  -0.02508  -0.01218  -0.00291
   D28        3.13333  -0.00087  -0.01259   0.00571  -0.00684   3.12649
   D29       -3.14083   0.00003   0.00020   0.00042   0.00062  -3.14021
   D30        0.00078  -0.00001  -0.00016   0.00010  -0.00006   0.00072
   D31        3.10850  -0.00248  -0.04997   0.07157   0.02154   3.13004
   D32       -0.01499  -0.00097  -0.02355   0.03953   0.01604   0.00105
   D33        2.17603   0.00799   0.01717   0.18888   0.20613   2.38216
   D34       -0.98517   0.00653  -0.01143   0.22448   0.21297  -0.77220
         Item               Value     Threshold  Converged?
 Maximum Force            0.073707     0.000450     NO 
 RMS     Force            0.014521     0.000300     NO 
 Maximum Displacement     0.831729     0.001800     NO 
 RMS     Displacement     0.117465     0.001200     NO 
 Predicted change in Energy=-5.549536D-02
 GradGradGradGradGradGradGradGradGradGradGradGradGradGradGradGradGradGrad

                          Input orientation:                          
 ---------------------------------------------------------------------
 Center     Atomic      Atomic             Coordinates (Angstroms)
 Number     Number       Type             X           Y           Z
 ---------------------------------------------------------------------
      1          1           0        5.866744   17.029802   15.411539
      2          6           0        3.836339   20.005664   11.245983
      3          1           0        3.927345   22.178524   11.156365
      4          6           0        5.175443   20.261914   13.718142
      5          6           0        4.821650   19.076113   13.209599
      6          8           0        4.183921   18.941651   12.033927
      7          6           0        4.198977   21.327485   11.762917
      8          6           0        4.839823   21.426216   12.944977
      9          6           0        5.081535   17.753516   13.861866
     10          6           0        5.216447   22.741328   13.452336
     11          1           0        5.689942   20.327288   14.663257
     12          1           0        5.197925   24.597017   13.156651
     13          8           0        5.714201   17.903926   15.018869
     14          8           0        4.750477   16.710879   13.378309
     15          8           0        4.929455   23.743702   12.760184
     16          8           0        5.819736   22.833763   14.601553
     17          8           0        3.266719   19.805065   10.216729
     18          1           0        6.498200   23.362258   14.707188
 ---------------------------------------------------------------------
                    Distance matrix (angstroms):
                    1          2          3          4          5
     1  H    0.000000
     2  C    5.507282   0.000000
     3  H    6.955366   2.176611   0.000000
     4  C    3.713763   2.823195   3.434217   0.000000
     5  C    3.182475   2.385517   3.826292   1.337875   0.000000
     6  O    4.230287   1.368865   3.363524   2.358557   1.344241
     7  C    5.879113   1.464902   1.079795   2.431426   2.747597
     8  C    5.144604   2.431363   2.144229   1.437367   2.365024
     9  C    1.881968   3.669540   5.313434   2.514266   1.497416
    10  C    6.073129   3.775785   2.692585   2.493959   3.694400
    11  H    3.385941   3.900903   4.339599   1.078066   2.105348
    12  H    7.924303   5.156073   3.385945   4.371372   5.533965
    13  O    0.970336   4.709388   6.031913   2.746317   2.333265
    14  O    2.341322   4.029649   5.959004   3.592482   2.372311
    15  O    7.279055   4.178592   2.454840   3.619536   4.690414
    16  O    5.860397   4.815793   3.984948   2.794627   4.129607
    17  O    6.438033   1.193345   2.636788   4.013955   3.450573
    18  H    6.402722   5.507465   4.540800   3.512839   4.839901
                    6          7          8          9         10
     6  O    0.000000
     7  C    2.401224   0.000000
     8  C    2.726404   1.348220   0.000000
     9  C    2.357698   4.237659   3.793130   0.000000
    10  C    4.185157   2.426589   1.459034   5.006415   0.000000
    11  H    3.331886   3.411062   2.209713   2.763456   2.741919
    12  H    5.854219   3.691914   3.197972   6.880725   1.879189
    13  O    3.511198   4.961641   4.179962   1.327232   5.109036
    14  O    2.665463   4.922062   4.736049   1.196043   6.048878
    15  O    4.913549   2.714082   2.326569   6.092549   1.251476
    16  O    4.941370   3.599110   2.384464   5.186617   1.301232
    17  O    2.211097   2.361687   3.542051   4.559544   4.784583
    18  H    5.660741   4.253876   3.099010   5.846324   1.898183
                   11         12         13         14         15
    11  H    0.000000
    12  H    4.554397   0.000000
    13  O    2.449434   6.966481   0.000000
    14  O    3.951215   7.901931   2.245788   0.000000
    15  O    3.983957   0.978473   6.310346   7.062203   0.000000
    16  O    2.510592   2.362933   4.948594   6.334774   2.238578
    17  O    5.090809   5.944367   5.715334   4.665953   4.974607
    18  H    3.141060   2.370550   5.523150   7.004377   2.529286
                   16         17         18
    16  O    0.000000
    17  O    5.909111   0.000000
    18  H    0.866475   6.577258   0.000000
 Symmetry turned off by external request.
 Stoichiometry    C7H5O6(1+)
 Framework group  C1[X(C7H5O6)]
 Deg. of freedom    48
 Full point group                 C1      NOp   1
 Rotational constants (GHZ):           1.1682741           0.5844407           0.3897126
 Standard basis: def2TZVP (5D, 7F)
   433 basis functions,   703 primitive gaussians,   498 cartesian basis functions
    47 alpha electrons       47 beta electrons
       nuclear repulsion energy       783.1346004718 Hartrees.
 NAtoms=   18 NActive=   18 NUniq=   18 SFac= 1.00D+00 NAtFMM=   60 NAOKFM=F Big=F
 Integral buffers will be    131072 words long.
 Raffenetti 2 integral format.
 Two-electron integral symmetry is turned off.
 ------------------------------------------------------------------------------
 Polarizable Continuum Model (PCM)
 =================================
 Model                : PCM.
 Atomic radii         : UFF (Universal Force Field).
 Polarization charges : Total charges.
 Charge compensation  : None.
 Solution method      : On-the-fly selection.
 Cavity type          : Scaled VdW (van der Waals Surface) (Alpha=1.100).
 Cavity algorithm     : GePol (No added spheres)
                        Default sphere list used, NSphG=   18.
                        Lebedev-Laikov grids with approx.  7.0 points / Ang**2.
                        Smoothing algorithm: York/Karplus (Gamma=1.0000).
                        Polarization charges: spherical gaussians, with
                                              point-specific exponents (IZeta= 3).
                        Self-potential: point-specific (ISelfS= 7).
                        Self-field    : sphere-specific E.n sum rule (ISelfD= 2).
 1st derivatives      : Analytical E(r).r(x)/FMM algorithm (CHGder, D1EAlg=3).
                        Cavity 1st derivative terms included.
 Solvent              : 1,2-EthaneDiol, Eps=  40.245000 Eps(inf)=   2.050051
 ------------------------------------------------------------------------------
 Spheres list:
 ISph  on   Nord     Re0    Alpha      Xe            Ye            Ze
    1   H      1    1.4430  1.100      5.866744     17.029802     15.411539
    2   C      2    1.9255  1.100      3.836339     20.005664     11.245983
    3   H      3    1.4430  1.100      3.927345     22.178524     11.156365
    4   C      4    1.9255  1.100      5.175443     20.261914     13.718142
    5   C      5    1.9255  1.100      4.821650     19.076113     13.209599
    6   O      6    1.7500  1.100      4.183921     18.941651     12.033927
    7   C      7    1.9255  1.100      4.198977     21.327485     11.762917
    8   C      8    1.9255  1.100      4.839823     21.426216     12.944977
    9   C      9    1.9255  1.100      5.081535     17.753516     13.861866
   10   C     10    1.9255  1.100      5.216447     22.741328     13.452336
   11   H     11    1.4430  1.100      5.689942     20.327288     14.663257
   12   H     12    1.4430  1.100      5.197925     24.597017     13.156651
   13   O     13    1.7500  1.100      5.714201     17.903926     15.018869
   14   O     14    1.7500  1.100      4.750477     16.710879     13.378309
   15   O     15    1.7500  1.100      4.929455     23.743702     12.760184
   16   O     16    1.7500  1.100      5.819736     22.833763     14.601553
   17   O     17    1.7500  1.100      3.266719     19.805065     10.216729
   18   H     18    1.4430  1.100      6.498200     23.362258     14.707188
 ------------------------------------------------------------------------------
 One-electron integrals computed using PRISM.
   1 Symmetry operations used in ECPInt.
 ECPInt:  NShTT=   13366 NPrTT=   42496 LenC2=   12236 LenP2D=   28915.
 LDataN:  DoStor=T MaxTD1= 6 Len=  172
 NBasis=   433 RedAO= T EigKep=  2.41D-05  NBF=   433
 NBsUse=   433 1.00D-06 EigRej= -1.00D+00 NBFU=   433
 Initial guess from the checkpoint file:  "/dev/shm/pdc_bh2.chk"
 B after Tr=    -0.699288   -0.195738    0.554311
         Rot=    0.999934    0.005267   -0.009712    0.002989 Ang=   1.31 deg.
 ExpMin= 9.52D-02 ExpMax= 2.70D+04 ExpMxC= 9.22D+02 IAcc=3 IRadAn=         5 AccDes= 0.00D+00
 Harris functional with IExCor= 1009 and IRadAn=       5 diagonalized for initial guess.
 HarFok:  IExCor= 1009 AccDes= 0.00D+00 IRadAn=         5 IDoV= 1 UseB2=F ITyADJ=14
 ICtDFT=  3500011 ScaDFX=  1.000000  1.000000  1.000000  1.000000
 FoFCou: FMM=F IPFlag=           0 FMFlag=      100000 FMFlg1=           0
         NFxFlg=           0 DoJE=T BraDBF=F KetDBF=T FulRan=T
         wScrn=  0.000000 ICntrl=       500 IOpCl=  0 I1Cent=   200000004 NGrid=           0
         NMat0=    1 NMatS0=      1 NMatT0=    0 NMatD0=    1 NMtDS0=    0 NMtDT0=    0
 Symmetry not used in FoFCou.
 Requested convergence on RMS density matrix=1.00D-08 within  32 cycles.
 Requested convergence on MAX density matrix=1.00D-06.
 Requested convergence on             energy=1.00D-06.
 No special actions if energy rises.
 Inv3:  Mode=1 IEnd=    17467707.
 Iteration    1 A*A^-1 deviation from unit magnitude is 2.66D-15 for    797.
 Iteration    1 A*A^-1 deviation from orthogonality  is 2.45D-15 for   1502    528.
 Iteration    1 A^-1*A deviation from unit magnitude is 2.66D-15 for   2270.
 Iteration    1 A^-1*A deviation from orthogonality  is 1.93D-15 for   2122   1029.
 Error on total polarization charges =  0.00753
 SCF Done:  E(RM062X) =  -720.917694663     A.U. after   12 cycles
            NFock= 12  Conv=0.66D-08     -V/T= 2.0040
 QCSCF skips out because SCF is already converged.
   1 Symmetry operations used in ECPInt.
 ECPInt:  NShTT=   13366 NPrTT=   42496 LenC2=   12236 LenP2D=   28915.
 LDataN:  DoStor=T MaxTD1= 7 Len=  274
 D1PCM: PCM CHGder 1st derivatives, ID1Alg=3 FixD1E=F DoIter=F DoCFld=F I1PDM=0.
 Calling FoFJK, ICntrl=      2127 FMM=F ISym2X=0 I1Cent= 0 IOpClX= 0 NMat=1 NMatS=1 NMatT=0.
 -------------------------------------------------------------------
 Center     Atomic                   Forces (Hartrees/Bohr)
 Number     Number              X              Y              Z
 -------------------------------------------------------------------
      1        1           0.000022391    0.000095254    0.000047537
      2        6           0.000700929    0.000344734    0.001817310
      3        1          -0.000168092    0.000195910   -0.000054906
      4        6          -0.000165393   -0.000153954   -0.000778104
      5        6           0.000144390    0.000429292   -0.000171602
      6        8          -0.000339662    0.000280847   -0.000830182
      7        6           0.000797172   -0.000209029    0.001517479
      8        6          -0.002810121   -0.005554047    0.006863740
      9        6           0.000112219    0.000672059    0.000063786
     10        6           0.015606989    0.001337601    0.023864978
     11        1          -0.000319589    0.000267305   -0.000394593
     12        1          -0.001762427    0.000949315   -0.002601496
     13        8          -0.000053473   -0.000336486    0.000022182
     14        8          -0.000136468   -0.000665567   -0.000127030
     15        8           0.000806106    0.015160896   -0.007609889
     16        8          -0.120319369   -0.111630743   -0.036662926
     17        8          -0.000778318   -0.000847981   -0.001875943
     18        1           0.108662716    0.099664596    0.016909660
 -------------------------------------------------------------------
 Cartesian Forces:  Max     0.120319369 RMS     0.030889238

 GradGradGradGradGradGradGradGradGradGradGradGradGradGradGradGradGradGrad
 Berny optimization.
 Using GEDIIS/GDIIS optimizer.
 FormGI is forming the generalized inverse of G from B-inverse, IUseBI=4.
 Internal  Forces:  Max     0.147939416 RMS     0.017345201
 Search for a local minimum.
 Step number   3 out of a maximum of   87
 All quantities printed in internal units (Hartrees-Bohrs-Radians)
 Mixed Optimization -- RFO/linear search
 Update second derivatives using D2CorX and points    2    3
 DE= -2.26D-02 DEPred=-5.55D-02 R= 4.07D-01
 Trust test= 4.07D-01 RLast= 7.89D-01 DXMaxT set to 5.05D-01
 ITU=  0  1  0
 Use linear search instead of GDIIS.
     Eigenvalues ---    0.00776   0.00852   0.01466   0.01540   0.01689
     Eigenvalues ---    0.01903   0.01985   0.02092   0.02200   0.02223
     Eigenvalues ---    0.02435   0.02620   0.02650   0.02670   0.04288
     Eigenvalues ---    0.15967   0.16000   0.16000   0.16001   0.19131
     Eigenvalues ---    0.23487   0.23508   0.24824   0.24999   0.24999
     Eigenvalues ---    0.25000   0.25000   0.25000   0.25000   0.26433
     Eigenvalues ---    0.32327   0.33069   0.35992   0.36293   0.36310
     Eigenvalues ---    0.39462   0.44669   0.49114   0.52226   0.53241
     Eigenvalues ---    0.53374   0.56018   0.56370   0.59480   0.59759
     Eigenvalues ---    1.04922   1.05670   1.06776
 RFO step:  Lambda=-2.47560191D-02 EMin= 7.76319665D-03
 Quartic linear search produced a step of -0.32356.
 Iteration  1 RMS(Cart)=  0.03808299 RMS(Int)=  0.00829046
 Iteration  2 RMS(Cart)=  0.00900909 RMS(Int)=  0.00017765
 Iteration  3 RMS(Cart)=  0.00019267 RMS(Int)=  0.00003666
 Iteration  4 RMS(Cart)=  0.00000013 RMS(Int)=  0.00003666
 Variable       Old X    -DE/DX   Delta X   Delta X   Delta X     New X
                                 (Linear)    (Quad)   (Total)
    R1        1.83367  -0.00006  -0.00015   0.00011  -0.00005   1.83362
[...]
 45614,-0.098272,0.7954513,-0.1855612,1.8230123,1.0843676,0.2319013,0.8
 939878,0.4512851,2.4833986,0.4132004,0.851525,0.0223512,2.2010595,0.18
 67792,0.0140659,-0.0145662,-0.0031666,0.1577555,0.000556,-0.0103204,0.
 0334508,0.170779,0.430773,0.0224002,-0.0434738,0.0195003,0.7259794,-0.
 0265489,-0.0470595,-0.0258303,0.3651593,-0.7544599,0.0570007,-0.587598
 6,0.1030859,-0.7053778,0.2250811,-0.5940124,0.1430822,-1.4625637,-0.58
 47117,-0.1781913,-0.2327121,-0.2459818,-1.6919613,-0.2172508,-0.221455
 ,-0.1034174,-0.7957104,-0.3669059,0.0559328,-0.1166065,-0.0487457,-1.7
 655905,0.235454,-0.0905159,0.4219083,-0.5801663,-0.6874645,-0.2042483,
 -0.664097,-0.2463682,-0.674669,-0.3914195,-0.6597211,-0.3161098,-1.500
 8742,-0.9183649,-0.0527735,-0.7998945,-0.2601191,-0.5826266,-0.4314984
 ,-0.7637684,-0.0691853,-1.7692578,0.5002078,0.0753955,0.0824243,0.1019
 227,0.4486559,0.1938968,0.0802426,0.1522127,0.570037\Polar=87.7922488,
 8.9666527,154.8638834,43.0480413,0.2338162,138.1126897\Quadrupole=-843
 .5920079,1053.8291853,-210.2371774,507.8426123,313.6906288,1229.308367
 5\PG=C01 [X(C7H5O6)]\NImag=0\\0.03307451,-0.06484711,0.41852683,0.0487
 4618,-0.17640726,0.12251840,-0.00006205,0.00023146,-0.00022110,0.40479
 512,-0.00035964,0.00027288,-0.00063378,0.09836481,0.52866410,-0.000134
 12,0.00036150,-0.00022668,0.34248214,0.11697776,0.77402584,0.00000356,
 0.00000841,0.00001884,0.00631465,-0.00708345,0.00465130,0.05156405,0.0
 0002091,-0.00000601,0.00003499,0.00745149,-0.01367665,0.01592568,-0.05
 918164,0.25753658,0.00001665,0.00001605,0.00001842,0.00225361,-0.00936
 275,0.00979123,0.05607866,-0.14114055,0.14595217,-0.00038657,-0.000180
 63,0.00030552,-0.00299332,-0.00962189,0.00908796,0.00558667,-0.0014850
 1,-0.00577416,0.29806750,-0.00051339,0.00051617,-0.00104050,-0.0019229
 4,-0.04489749,0.00289893,-0.00193477,0.00161775,-0.00214322,0.08812413
 ,0.72939683,0.00035693,-0.00048083,0.00013077,0.00794744,-0.01028336,0
 .00839585,-0.00567672,-0.00137046,-0.00065825,0.28774776,0.05375573,0.
 61696559,0.00168715,-0.00097204,-0.00398869,-0.01663484,0.04250165,-0.
 02426063,-0.00082376,-0.00183140,-0.00032914,-0.10826886,-0.08622326,-
 0.06198265,0.28494930,-0.00160391,0.00090524,-0.00219459,0.01464023,0.
 02633313,0.02037740,-0.00015357,-0.00007336,-0.00036242,-0.10216646,-0
 .40183033,-0.12330572,0.08977214,0.79611963,-0.00388123,-0.00114588,-0
 .00243194,-0.01976347,0.06846547,-0.05249900,-0.00063425,-0.00324403,-
 0.00094844,-0.05916849,-0.09515957,-0.15196426,0.22070250,0.05123249,0
 .52386660,0.00027628,-0.00030089,-0.00065205,-0.06012446,-0.00646622,-
 0.01571802,0.00182488,-0.00013186,-0.00114673,-0.00503147,-0.03172121,
 -0.03120880,-0.11005331,-0.01735081,-0.09923915,0.17846786,0.00066531,
 0.00076262,0.00112697,-0.00730465,-0.20575282,0.01269777,-0.00332423,-
 0.00588841,-0.00435197,-0.01750521,0.00544561,-0.02873389,-0.02376985,
 -0.11552323,-0.03100020,-0.00725714,0.35495672,-0.00080838,-0.00054562
 ,-0.00061695,-0.01557386,0.01419562,-0.07947063,-0.00061899,0.00114912
 ,0.00120935,-0.03372400,-0.05336466,-0.03376268,-0.09821509,-0.0198050
 1,-0.21815768,0.21838437,-0.06163436,0.44215108,0.00000533,-0.00012648
 ,0.00016706,-0.09364862,-0.02435993,-0.00925129,-0.06193983,0.05722677
 ,-0.04847642,0.00101063,0.02466625,-0.01507680,-0.00653277,-0.01034675
 ,-0.01078529,0.01872388,0.00890437,0.00787242,0.30511780,-0.00000567,-
 0.00007909,-0.00001662,-0.02772588,-0.21342584,-0.02776812,0.05729656,
 -0.24860059,0.13386247,0.01743730,0.02935081,0.02670184,-0.01204972,-0
 .01554727,-0.01800451,0.00833920,-0.03827857,0.02297392,0.00417061,0.6
 4098505,0.00015514,-0.00022089,0.00020818,-0.00899837,-0.02159307,-0.0
 9761205,-0.04860134,0.13376395,-0.14575460,-0.01392120,0.03934475,-0.0
 2340753,-0.01041195,-0.01515259,-0.01532063,0.00802547,0.02399868,0.02
 326078,0.30567218,-0.07639739,0.67406540,0.00019240,0.00011354,-0.0000
 6836,-0.00267626,-0.01244450,-0.01255410,0.00306400,-0.00170354,-0.006
 18611,-0.08566855,0.01803827,-0.04293572,0.01750505,0.00486351,0.01203
 920,-0.01137733,-0.00000259,-0.00730050,-0.16437309,-0.00871661,-0.182
 62842,0.31340850,0.00016088,-0.00012092,0.00032302,-0.01153811,0.04608
 567,-0.02693559,0.01272991,0.00787301,0.02148476,0.03866001,-0.2078127
 6,0.09115064,-0.01276936,-0.05809786,-0.01080861,0.01932669,-0.0052507
 0,0.03311199,-0.02311257,-0.13872348,-0.02699463,0.03124767,0.62681060
 ,-0.00008368,0.00025015,0.00005201,-0.01201730,-0.02868045,-0.01188806
 ,-0.00845038,-0.00312968,-0.00755362,-0.04607026,0.05522111,-0.1537270
 9,0.01504858,0.01971655,0.03310400,-0.01069874,-0.00025812,-0.02550689
 ,-0.18071051,-0.00160280,-0.37288254,0.28414533,-0.02350253,0.65352497
 ,-0.00508471,0.00429921,-0.01413991,0.00147889,-0.00373015,-0.00344996
 ,-0.00110805,0.00021298,0.00057791,0.00927852,-0.00804367,0.00490361,-
 0.08667982,0.02139666,-0.00696755,-0.00792558,0.01755886,-0.01759865,0
 .00050559,0.00003883,0.00034970,0.00632681,-0.00209620,-0.00628740,0.3
 5673518,0.02604450,0.00796525,0.04340045,0.00330044,0.00921435,0.00481
 541,0.00007133,-0.00076129,0.00004690,0.00110571,-0.01366416,0.0053470
 0,0.02116073,-0.16990337,0.05016368,0.00571774,0.00561339,0.00914639,-
 0.00300494,-0.00193330,-0.00486211,-0.00025690,-0.00683159,0.00223289,
 0.13901221,0.91354208,-0.01764349,0.00616381,-0.02842212,-0.00463107,-
 0.00741267,-0.00295681,0.00060973,0.00025197,-0.00046695,0.00345168,-0
 .01064055,0.01493295,-0.00691788,0.05029626,-0.10496811,-0.01574590,0.
 02980934,-0.03143460,0.00084989,0.00049463,0.00168673,-0.00655714,-0.0
 0090946,-0.00111129,0.23293635,0.12471977,0.58828284,0.00005719,-0.000
 07489,0.00003907,0.00845733,-0.00721278,-0.01194501,-0.00557638,0.0009
 3372,0.00266247,0.00533210,0.00076813,0.00697801,0.00316994,0.00395596
 ,-0.00207483,-0.00275227,0.00149885,-0.00095350,-0.00307242,-0.0136837
 2,-0.01126785,-0.09510760,-0.03050245,-0.01143921,0.00072107,-0.001634
 05,0.00153125,0.35400459,0.00010483,-0.00017307,0.00020838,-0.00720791
 ,-0.01993719,-0.00621249,0.00125116,0.00139958,0.00101982,-0.00644196,
 -0.03368105,-0.00431296,0.00294080,0.00122421,0.00544155,-0.00059038,0
 .00552015,-0.00228488,-0.01073861,0.01127287,-0.02044084,-0.02336829,-
 0.20559513,-0.02317717,0.00072074,-0.00528451,0.00208703,0.02247620,0.
 79086433,0.00001189,-0.00009568,0.00007238,-0.01201575,-0.00674486,-0.
 00375469,0.00247250,0.00019200,-0.00283610,0.00769682,0.00709717,0.014
 09228,-0.00183120,0.00727320,-0.00048194,-0.00067858,0.00146447,-0.003
 68335,-0.01135432,-0.02453258,-0.01119303,-0.01247800,-0.03588098,-0.1
 0191026,0.00116674,-0.00192571,0.00229852,0.26330351,-0.07349549,0.733
 95553,-0.00017852,0.00006804,0.00030917,-0.00030228,0.00013232,0.00000
 592,0.00043264,-0.00012799,-0.00025671,-0.11617901,-0.01000058,-0.1430
 5953,-0.00302883,0.00057012,-0.00600336,0.00825425,-0.00153996,-0.0033
 8453,0.00202706,0.00030137,-0.00072467,-0.00045671,-0.00019785,-0.0023
 7236,-0.00447958,-0.00030498,0.00223279,-0.00116190,-0.00003878,0.0000
 0463,0.11402568,0.00024308,0.00012685,0.00034286,0.00051624,-0.0022978
 6,0.00121434,0.00056262,0.00047884,0.00098986,-0.00913625,-0.05630288,
 -0.01169267,-0.01301178,0.00591913,-0.02349487,-0.00320626,-0.00442836
 ,-0.00320689,0.00040524,-0.00492004,0.00191192,0.01265414,0.00564239,0
 .02127033,-0.00045726,0.00004197,-0.00169593,0.00119991,0.00140859,0.0
 0177952,0.01074523,0.05733957,0.00028325,0.00004399,0.00012370,-0.0000
 8123,0.00054433,-0.00054141,-0.00036571,-0.00019647,-0.00001637,-0.143
 15615,-0.01324655,-0.27908935,-0.00384558,0.00013773,-0.00632119,-0.00
 308582,-0.00033785,0.00502098,-0.00073440,0.00173076,0.00086082,-0.004
 45859,-0.00091788,-0.00669647,0.00224830,-0.00149573,-0.00157879,-0.00
 023267,-0.00053959,-0.00158727,0.15353743,0.01275460,0.28886368,0.0000
 0132,-0.00000194,0.00000262,-0.00013753,-0.00035814,-0.00002221,-0.000
 01693,0.00005049,0.00022931,0.00071944,0.00004561,-0.00016598,-0.00022
 922,0.00015531,0.00014896,-0.00000224,-0.00000013,-0.00008721,-0.00054
 276,0.00033706,0.00004232,0.00489451,0.00090278,-0.00302690,-0.0000409
 8,-0.00005317,0.00008666,0.00567364,0.01192770,0.00639440,0.00003937,-
 0.00001850,-0.00001551,0.05753040,0.00001157,-0.00002041,0.00002281,-0
 .00076312,-0.00168727,-0.00101597,-0.00019390,-0.00000346,-0.00037358,
 -0.00022354,-0.00036641,-0.00007161,0.00016765,0.00029639,0.00017529,-
 0.00000776,0.00053574,-0.00009065,0.00010736,0.00179822,-0.00030234,0.
 00191934,0.00242662,0.00425979,0.00011501,-0.00060345,0.00026601,-0.00
 581169,-0.04705232,-0.00188461,0.00001669,-0.00011207,0.00005031,0.112
 39210,0.41043708,0.00000004,0.00000103,0.00000071,0.00007678,-0.000122
 46,0.00013807,0.00029838,0.00005408,0.00030334,-0.00004780,0.00041895,
 0.00065760,0.00006851,0.00015637,-0.00019624,-0.00005256,-0.00013725,-
 0.00003327,0.00005707,-0.00011430,-0.00044007,-0.00335401,0.00241115,-
 0.00060583,0.00006549,0.00002231,0.00002069,0.01006912,0.03271417,0.01
 078080,-0.00001920,-0.00000745,0.00000624,0.05764056,0.13406536,0.0907
 6601,-0.02822723,0.06460525,-0.03675845,0.00148117,0.00012192,0.002264
 83,0.00010015,-0.00006171,0.00001453,-0.00045587,0.00100133,-0.0012932
 7,0.00138674,0.00478604,-0.01767890,0.00035704,0.00330141,-0.00164160,
 -0.00050069,-0.00009728,-0.00078086,-0.00032491,-0.00061365,0.00111756
 ,-0.12592993,-0.01087014,-0.10469229,-0.00040664,-0.00095628,-0.000526
 27,0.00034659,0.00041350,-0.00053679,-0.00001062,-0.00010741,-0.000004
 49,0.15590519,0.04106802,-0.42417114,0.13645365,-0.00169624,0.00083398
 ,-0.00305965,0.00000354,0.00010317,-0.00000201,0.00046542,-0.00711668,
 0.00200018,0.01733557,0.00201983,0.03133530,0.00277256,-0.00914958,0.0
 0644227,0.00093173,0.00009316,0.00160451,-0.00020786,0.00230019,-0.000
 88492,0.00101402,-0.12631850,0.01153388,0.00040698,0.00151836,0.000446
 92,0.00120939,-0.00209975,0.00253590,0.00001733,0.00016527,-0.00000485
 ,-0.02691460,0.56604019,-0.03298985,0.17684510,-0.09756165,0.00252102,
 0.00012275,0.00452826,-0.00000293,-0.00010580,0.00012567,-0.00119408,0
 .00296460,-0.00242773,-0.01976406,0.00978619,-0.02421905,-0.00151406,0
 .00727267,-0.00285859,-0.00093026,-0.00019561,-0.00163416,0.00105444,-
 0.00155530,0.00114148,-0.10657682,-0.00882040,-0.24573621,-0.00073918,
 -0.00188249,-0.00098833,-0.00065068,0.00117170,-0.00070004,-0.00002894
 ,-0.00020837,-0.00000286,0.21034078,-0.13121862,0.41806123,-0.00130590
 ,-0.00265132,0.00617453,0.00009647,-0.00088018,0.00141307,0.00018473,0
 .00007613,-0.00002999,0.00045781,0.00093768,-0.00020612,0.01855113,-0.
 00795390,-0.00618531,-0.00031139,0.00272432,-0.00010100,0.00003448,0.0
 0039200,-0.00008043,-0.00143303,0.00041979,0.00116688,-0.14344094,-0.1
 7620402,-0.08557995,-0.00012258,0.00005599,0.00002522,0.00091071,0.000
 29586,-0.00031989,0.00002491,0.00000521,-0.00001314,-0.00285132,-0.038
 04184,-0.04790139,0.12908039,-0.00098096,-0.00460777,-0.00157735,-0.00
 314953,-0.00332174,-0.00502077,0.00001465,0.00031425,-0.00000465,0.004
 06861,-0.00672677,0.00819404,-0.01681075,-0.06111082,-0.01528336,-0.00
 199309,-0.00001765,-0.00362097,0.00125275,0.00060134,0.00207526,-0.001
 47775,0.00014662,-0.00300935,-0.16966884,-0.61413856,-0.20384152,0.001
 34345,0.00264713,0.00186451,0.00031709,0.00071266,0.00066066,0.0000462
 2,0.00032944,0.00002584,-0.03537939,-0.00273047,-0.05571800,0.22078192
 ,0.69016649,0.00592553,-0.00446011,0.00609306,0.00178862,-0.00109496,0
 .00266203,-0.00001916,0.00011329,0.00014272,-0.00072292,0.00279587,-0.
 00122273,-0.00475876,-0.00002472,0.01467326,0.00070581,0.00451666,-0.0
 0007673,-0.00021707,0.00057868,-0.00042753,0.00148037,0.00036512,0.000
 35754,-0.08671280,-0.21515295,-0.19085269,-0.00017565,-0.00035138,-0.0
 0039812,-0.00033707,0.00056013,0.00041262,-0.00001966,-0.00003511,0.00
 000409,-0.04830944,-0.06026751,-0.04457684,0.13167432,0.27198876,0.213
 66819,-0.00000521,0.00001167,-0.00001288,-0.00049241,0.00015507,0.0012
 6746,0.00045876,-0.00151942,-0.00033276,0.00022569,-0.00160881,-0.0020
 5915,0.00020484,-0.00039091,0.00087152,0.00010978,-0.00013044,-0.00026
 756,-0.00063333,-0.00158153,-0.00171167,0.01159832,-0.00558651,0.00544
 282,-0.00030137,0.00027621,-0.00020632,-0.09785369,0.03702584,-0.05970
 498,-0.00001748,-0.00017907,0.00009395,-0.05879509,-0.10681967,-0.0625
 0560,0.00007552,-0.00007099,0.00011686,0.00004734,-0.00025833,0.000015
 68,0.13253757,-0.00008098,0.00013380,-0.00015432,0.00460895,0.00984319
 ,0.00566784,-0.00085475,-0.00261256,-0.00045521,-0.00424329,-0.0004981
 4,-0.00723329,0.00057028,-0.00445195,0.00156580,0.00015263,-0.00167960
 ,0.00063144,0.00214378,-0.00982451,0.00562263,0.00076491,-0.05552908,0
 .01601079,-0.00111147,0.00383846,-0.00255463,0.05437039,-0.37177752,0.
 16814621,0.00001081,0.00049489,-0.00000881,-0.12729948,-0.37204731,-0.
 16905499,0.00073504,-0.00103962,0.00142237,-0.00006889,-0.00269113,0.0
 0032740,0.05394420,0.80661525,0.00000582,-0.00000673,0.00001103,0.0003
 5317,-0.00200658,-0.00018824,-0.00054379,-0.00193219,0.00011056,-0.001
 54653,-0.00274010,-0.00062161,0.00073052,0.00019565,0.00096851,-0.0003
 3233,0.00011787,-0.00033001,-0.00263016,-0.00103935,-0.00389406,0.0043
 2926,0.00328909,0.01622080,0.00006091,-0.00036003,-0.00004998,-0.06369
 184,0.13513900,-0.22126448,0.00006260,-0.00045114,0.00011634,-0.058053
 03,-0.12935706,-0.09678735,-0.00004379,0.00009566,-0.00007373,-0.00001
 172,0.00011345,0.00002621,0.15707307,-0.05826387,0.35679404,-0.0000298
 1,0.00004267,-0.00004307,0.00022206,0.00454567,0.00197438,0.00050066,0
 .00001300,0.00031013,-0.00063609,0.00175555,-0.00114889,-0.00039986,-0
 .00069279,-0.00013893,0.00029015,-0.00122015,0.00050822,0.00207008,-0.
 00504396,0.00224829,-0.00494795,-0.00963976,-0.02684253,-0.00024112,0.
 00122171,-0.00077235,-0.16066595,-0.01210675,-0.16992039,-0.00006615,-
 0.00068016,0.00008937,-0.00438113,-0.00334268,0.00135871,0.00026463,-0
 .00034832,0.00050378,-0.00000838,-0.00073566,0.00012713,0.01439156,0.0
 2019594,-0.04192576,0.20391557,-0.00004569,0.00006242,-0.00008772,0.00
 105043,0.00435780,0.00116008,0.00007284,-0.00006235,0.00005632,-0.0009
 6351,-0.00260516,-0.00178445,0.00024391,0.00086300,0.00028034,-0.00069
 323,-0.00143204,-0.00095814,-0.00017045,-0.00976383,0.00158625,-0.0222
 9691,0.00147168,-0.04065779,-0.00034708,0.00197274,-0.00093436,-0.0265
 5958,-0.14554197,-0.03812793,-0.00116482,-0.00264958,-0.00156730,0.000
 41687,0.00602698,-0.00145084,0.00035654,-0.00059834,0.00070949,-0.0000
 3369,-0.00113655,0.00012826,0.02347258,0.00826354,0.05055721,0.1233460
 4,0.55118265,-0.00003398,0.00006909,-0.00007651,0.00257209,0.00741774,
 0.00215644,0.00049402,0.00011092,0.00084622,-0.00061347,0.00373214,-0.
 00265682,-0.00033125,-0.00134390,-0.00050789,0.00041555,-0.00202430,0.
 00111858,0.00159366,-0.00745629,0.00535242,-0.02442402,-0.01634645,-0.
 03229230,-0.00054248,0.00198892,-0.00119056,-0.16708830,-0.01053912,-0
 .38809381,0.00015158,-0.00065259,0.00054723,0.00066914,-0.00882637,-0.
 00173840,0.00042684,-0.00055596,0.00082882,0.00001073,-0.00119655,0.00
 020033,-0.04267527,0.04441340,-0.05692556,0.27638304,0.13667862,0.5468
 4229,-0.00002899,-0.00021701,0.00010680,-0.24444145,-0.07306315,-0.285
 98675,-0.00084242,0.00007995,0.00062630,-0.00090387,0.00643557,-0.0034
 0569,0.00520374,0.00047187,-0.00117894,-0.01088945,0.02727306,-0.04661
 358,0.00168410,-0.01937493,-0.03711248,0.00338974,-0.00852257,0.004856
 31,0.00007825,-0.00527769,0.00091496,-0.00100792,0.00554967,0.00328615
 ,-0.00014502,-0.00013077,0.00040988,0.00012185,0.00054134,-0.00001391,
 -0.00114531,0.00196850,-0.00214065,0.00008488,0.00245174,-0.00043001,0
 .00001121,-0.00316393,0.00027319,-0.00103454,-0.00166282,-0.00219042,0
 .24945247,0.00011224,-0.00008109,0.00018749,-0.06859881,-0.11961031,-0
 .11153638,0.00081956,0.00232215,0.00080468,0.00191681,0.00919990,0.001
 81528,-0.00722996,-0.00729185,-0.01043247,0.03341650,0.01427474,0.0578
 8731,-0.02781320,-0.00389331,-0.04354334,-0.00015567,-0.01708672,0.002
 95041,0.00101140,-0.00241269,0.00217791,0.00187007,0.00760888,0.001507
 80,0.00005345,0.00057137,-0.00005351,0.00010463,0.00063562,0.00001456,
 -0.00025872,0.00005556,-0.00046908,0.00014231,0.00135656,0.00004119,-0
 .00003923,-0.00350673,0.00068920,-0.00185063,-0.00221931,-0.00300347,0
 .06637294,0.11967360,0.00005990,-0.00037475,0.00007856,-0.28671645,-0.
 11925837,-0.55146786,0.00050457,-0.00051555,-0.00026057,-0.00261833,0.
 00970545,-0.00582329,0.00015499,0.00299355,0.00549596,-0.04763700,0.04
 724581,-0.07716231,-0.03576995,-0.02886959,-0.03261267,0.00351678,-0.0
 1167824,0.00966995,-0.00011642,-0.00875974,0.00127014,0.00383635,0.007
 67295,0.00203179,0.00035813,-0.00037522,0.00036321,0.00010182,0.000832
 63,0.00000895,-0.00181022,0.00340014,-0.00372058,-0.00004931,0.0040497
 8,-0.00065443,-0.00037534,-0.00475167,0.00055646,-0.00202527,-0.002521
 56,-0.00302255,0.36845377,0.10074603,0.65475524,0.00001127,-0.00000795
 ,0.00001472,-0.00133249,-0.00024141,0.00017503,0.00027262,-0.00002287,
 -0.00023754,-0.00015476,0.00019610,0.00028558,-0.00000662,0.00004725,-
 0.00006248,0.00016338,0.00012819,0.00012344,0.00006455,-0.00003363,-0.
 00025387,0.00598608,0.00113130,-0.00377822,0.00010777,-0.00030470,0.00
 013308,-0.00968849,-0.02060398,-0.01585237,-0.00002081,-0.00021579,0.0
 0017015,-0.00484895,0.00199353,-0.00362397,-0.00006452,0.00008679,-0.0
 0010398,0.00000070,0.00017787,-0.00001492,-0.00156201,-0.00067413,0.00
 589040,-0.04924375,-0.09502143,-0.04481749,0.00041273,0.00012630,0.000
 13197,0.05990329,0.00000601,-0.00001256,0.00001151,-0.00025687,-0.0009
 9792,-0.00054771,-0.00010427,0.00003935,-0.00008450,0.00018977,-0.0000
 2524,0.00030453,-0.00002463,0.00014947,-0.00008640,-0.00000646,0.00029
 200,-0.00002689,-0.00013592,0.00088837,-0.00040075,0.00102921,0.002291
 46,0.00299077,0.00007475,-0.00033682,0.00018851,-0.00334450,0.00557865
 ,-0.00708395,-0.00004955,0.00007428,-0.00009460,0.00133525,-0.00075865
 ,0.00100831,-0.00006185,0.00009438,-0.00012120,0.00000263,0.00020696,-
 0.00002863,0.00329937,-0.00353095,0.00595993,-0.11545972,-0.40819166,-
 0.14246582,0.00026822,0.00040364,0.00045835,0.11323855,0.40383524,0.00
 001339,-0.00001298,0.00002863,0.00002371,-0.00053035,-0.00109229,-0.00
 021474,0.00003874,-0.00000479,0.00026766,0.00040047,0.00018630,-0.0000
 6823,0.00002356,-0.00009196,0.00017856,0.00022770,0.00033290,-0.000275
 83,-0.00034513,-0.00025545,-0.00362044,0.00339389,0.00010360,0.0000829
 7,-0.00050707,0.00027622,-0.01881175,-0.04104649,-0.02703992,0.0001458
 6,-0.00041850,0.00021605,-0.00389635,0.00249346,-0.00288251,-0.0000881
 4,0.00014510,-0.00018570,0.00001351,0.00030022,-0.00003098,0.00497016,
 -0.00133108,0.00533107,-0.04068587,-0.10306649,-0.07138792,0.00014506,
 0.00021640,0.00049399,0.06182046,0.14001856,0.09600276\\0.00001666,0.0
 0000269,0.00000042,-0.00001550,-0.00000133,-0.00000912,-0.00001461,0.0
 0000029,0.00000538,-0.00000423,-0.00000580,0.00001680,0.00001289,-0.00
 000645,-0.00001513,-0.00000970,-0.00000301,0.00002162,-0.00000479,-0.0
 0000143,0.00000359,-0.00000863,0.00001756,-0.00000080,0.00000300,-0.00
 000156,0.00000099,0.00001865,-0.00000581,-0.00002731,0.00000808,0.0000
 0140,-0.00001193,-0.00001111,-0.00000563,-0.00000042,0.00001301,0.0000
 0067,-0.00000324,0.00001023,0.00000279,0.00000661,-0.00000975,-0.00000
 431,-0.00000697,-0.00000514,0.00000984,0.00001088,0.00000071,-0.000006
 85,0.00001036,0.00000023,0.00000693,-0.00000174\\\@


 The juvenile sea squirt wanders through the sea searching
 for a suitable rock or hunk of coral to cling to and make
 its home for life.  For this task it has a rudimentary
 nervous system.  When it finds its spot and takes root, it
 doesn't need its brain any more so it eats it.
 It's rather like getting tenure.

                               -- source unknown
 Job cpu time:       0 days  3 hours 54 minutes 36.4 seconds.
 Elapsed time:       0 days  0 hours  6 minutes 32.3 seconds.
 File lengths (MBytes):  RWF=    393 Int=      0 D2E=      0 Chk=     25 Scr=      1
 Normal termination of Gaussian 16 at Tue Aug 13 18:30:47 2019.
