 Entering Gaussian System, Link 0=g16
 Initial command:
 /nopt/nrel/apps/gaussian/g16B/g16/l1.exe "/dev/shm/Gau-60060.inp" -scrdir="/dev/shm/"
 Default is to use a total of  36 processors:
                               36 via shared-memory
                                1 via Linda
 Entering Link 1 = /nopt/nrel/apps/gaussian/g16B/g16/l1.exe PID=     60061.
  
 Copyright (c) 1988-2017, Gaussian, Inc.  All Rights Reserved.
  
 This is part of the Gaussian(R) 16 program.  It is based on
 the Gaussian(R) 09 system (copyright 2009, Gaussian, Inc.),
 the Gaussian(R) 03 system (copyright 2003, Gaussian, Inc.),
 the Gaussian(R) 98 system (copyright 1998, Gaussian, Inc.),
 the Gaussian(R) 94 system (copyright 1995, Gaussian, Inc.),
 the Gaussian 92(TM) system (copyright 1992, Gaussian, Inc.),
 the Gaussian 90(TM) system (copyright 1990, Gaussian, Inc.),
 the Gaussian 88(TM) system (copyright 1988, Gaussian, Inc.),
 the Gaussian 86(TM) system (copyright 1986, Carnegie Mellon
 University), and the Gaussian 82(TM) system (copyright 1983,
 Carnegie Mellon University). Gaussian is a federally registered
 trademark of Gaussian, Inc.
  
 This software contains proprietary and confidential information,
 including trade secrets, belonging to Gaussian, Inc.
  
 This software is provided under written license and may be
 used, copied, transmitted, or stored only in accord with that
 written license.
  
 The following legend is applicable only to US Government
 contracts under FAR:
  
                    RESTRICTED RIGHTS LEGEND
  
 Use, reproduction and disclosure by the US Government is
 subject to restrictions as set forth in subparagraphs (a)
 and (c) of the Commercial Computer Software - Restricted
 Rights clause in FAR 52.227-19.
  
 Gaussian, Inc.
 340 Quinnipiac St., Bldg. 40, Wallingford CT 06492
  
  
 ---------------------------------------------------------------
 Warning -- This program may not be used in any manner that
 competes with the business of Gaussian, Inc. or will provide
 assistance to any competitor of Gaussian, Inc.  The licensee
 of this program is prohibited from giving any competitor of
 Gaussian, Inc. access to this program.  By using this program,
 the user acknowledges that Gaussian, Inc. is engaged in the
 business of creating and licensing software in the field of
 computational chemistry and represents and warrants to the
 licensee that it is not a competitor of Gaussian, Inc. and that
 it will not use this program in any manner prohibited above.
 ---------------------------------------------------------------
  

 Cite this work as:
 Gaussian 16, Revision B.01,
 M. J. Frisch, G. W. Trucks, H. B. Schlegel, G. E. Scuseria, 
 M. A. Robb, J. R. Cheeseman, G. Scalmani, V. Barone, 
 G. A. Petersson, H. Nakatsuji, X. Li, M. Caricato, A. V. Marenich, 
 J. Bloino, B. G. Janesko, R. Gomperts, B. Mennucci, H. P. Hratchian, 
 J. V. Ortiz, A. F. Izmaylov, J. L. Sonnenberg, D. Williams-Young, 
 F. Ding, F. Lipparini, F. Egidi, J. Goings, B. Peng, A. Petrone, 
 T. Henderson, D. Ranasinghe, V. G. Zakrzewski, J. Gao, N. Rega, 
 G. Zheng, W. Liang, M. Hada, M. Ehara, K. Toyota, R. Fukuda, 
 J. Hasegawa, M. Ishida, T. Nakajima, Y. Honda, O. Kitao, H. Nakai, 
 T. Vreven, K. Throssell, J. A. Montgomery, Jr., J. E. Peralta, 
 F. Ogliaro, M. J. Bearpark, J. J. Heyd, E. N. Brothers, K. N. Kudin, 
 V. N. Staroverov, T. A. Keith, R. Kobayashi, J. Normand, 
 K. Raghavachari, A. P. Rendell, J. C. Burant, S. S. Iyengar, 
 J. Tomasi, M. Cossi, J. M. Millam, M. Klene, C. Adamo, R. Cammi, 
 J. W. Ochterski, R. L. Martin, K. Morokuma, O. Farkas, 
 J. B. Foresman, and D. J. Fox, Gaussian, Inc., Wallingford CT, 2016.
 
 ******************************************
 Gaussian 16:  ES64L-G16RevB.01 20-Dec-2017
                27-Aug-2019 
 ******************************************
 %RWF=/dev/shm/,5GB,/tmp/scratch/1270728/,-1
 %NoSave
 %OldChk=tieg5ipatse.chk
 %Chk=/dev/shm/tieg5ipatse_ts.chk
 Copying data from "tieg5ipatse.chk" to current chk file "/dev/shm/tieg5ipatse_ts.chk"
 IOpt=  2 FromEx=T IUOpen= 4 IOptOp= 5 NList=   0 IFRang= 0 IUIn= 4 IUOut= 2.
 Default route: CacheSize=180224 MaxDisk=256GB
 ----------------------------------------------------------------------
 # m062x/Def2TZVP nosymm scf=(xqc,maxconventionalcycles=400) opt=(TS,Re
 adFC,NoFreeze) freq=NoRaman guess=read geom=allcheck CPHF=Grid=Fine SC
 RF=(Solvent=1,2-EthaneDiol,Read)
 ----------------------------------------------------------------------
 1/4=180224,5=1,10=3,18=20,26=3,29=2007,38=1,40=2/1,3;
 2/4=180224,9=110,12=2,15=1,40=1/2;
 3/4=180224,5=44,7=101,11=2,14=-4,25=1,30=1,70=2203,71=1,72=30,74=-55,116=-2/1,2,3;
 4/4=180224,5=1/1;
 5/4=180224,5=2,8=3,13=1,38=6,53=30,85=400/2,8;
 6/4=180224,7=2,8=2,9=2,10=2,28=1/1;
 7/4=180224,30=1/1,2,3,16;
 1/4=180224,5=1,18=20,26=3/3(2);
 2/4=180224,9=110,15=1/2;
 99/4=180224/99;
 2/4=180224,9=110,15=1/2;
 3/4=180224,5=44,7=101,11=2,14=-2,25=1,30=1,70=2205,71=1,72=30,74=-55/1,2,3;
 4/4=180224,5=5,16=3,69=1/1;
 5/4=180224,5=2,8=3,13=1,38=5,53=30,85=400/2,8;
 7/4=180224,30=1/1,2,3,16;
 1/4=180224,5=1,18=20,26=3/3(-5);
 2/4=180224,9=110,15=1/2;
 6/4=180224,7=2,8=2,9=2,10=2,19=2,28=1/1;
 99/4=180224,9=1/99;
 Structure from the checkpoint file:  "/dev/shm/tieg5ipatse_ts.chk"
 --------------------------
 rotated tieg5ipatsa_ts.log
 --------------------------
 Charge =  0 Multiplicity = 1
 Redundant internal coordinates found in file.  (old form).
 O,0,6.9102016766,-4.1836079764,-0.3536071525
 Ti,0,5.6013718376,-5.6152677301,0.587430296
 O,0,5.5417578728,-6.7339439939,-3.252371072
 O,0,7.1130722344,-6.7831918309,0.6561125127
 O,0,4.46003947,-4.1717910032,0.7662613257
 C,0,4.4114282385,-2.8392563534,0.3348571032
 C,0,3.0198646149,-2.2837597538,0.5906925114
 C,0,8.3143225618,-4.0343316056,-0.1942625003
 C,0,8.5887723504,-2.9045495903,0.7828785576
 O,0,9.9685893973,-2.8170824316,1.0854747798
 C,0,7.5739180109,-7.1350183019,1.9384675258
 C,0,7.7103001145,-5.8495320949,2.7416551345
 O,0,6.5862002984,-5.0201114783,2.395356849
 C,0,6.8919066017,-6.8180776607,-3.7045656881
 C,0,7.8700203791,-6.9958912649,-2.5553110324
 O,0,7.4690193739,-8.0809731369,-1.7416433076
 H,0,8.7447584614,-4.9684827725,0.1740940424
 H,0,8.7636142787,-3.8105468072,-1.1660307503
 H,0,8.2046725192,-1.9639338799,0.3773035299
 H,0,8.068686465,-3.1046485671,1.7200742968
 H,0,7.9200440147,-6.0803992348,-1.9623398285
 H,0,6.8517042228,-7.8010800097,2.424803585
 H,0,8.536887235,-7.6483159843,1.8789137137
 H,0,7.7284095319,-6.0252936523,3.8159744287
 H,0,8.6056143164,-5.2979317441,2.4540133035
 H,0,5.1614111338,-2.2391704691,0.8652826506
 H,0,4.6329514164,-2.7740935286,-0.7369504733
 H,0,2.785316106,-2.3471622716,1.6592985768
 H,0,2.2877768365,-2.8872305898,0.0516645319
 O,0,2.8922823963,-0.9558209848,0.1165136668
 H,0,7.4030281596,-7.7557959178,-0.8233416641
 H,0,3.4530867302,-0.382803264,0.649562465
 H,0,10.4401791299,-2.5100381373,0.3041084068
 H,0,5.879524342,-4.9943760483,3.0867751082
 O,0,5.9988713289,-4.4287000747,-2.6485618265
 H,0,5.4351942915,-6.961330833,-2.0366637861
 C,0,5.1426080178,-5.3473928665,-2.5130739253
 O,0,5.1418755506,-6.0923217932,-1.2613360341
 C,0,3.5072161018,-4.7530594564,-4.3083229109
 C,0,3.732651044,-5.0589607848,-2.9689264863
 C,0,2.2369988078,-4.4096867349,-4.7423972329
 C,0,2.6873125917,-5.0102243355,-2.0641126329
 C,0,1.1836218254,-4.356149363,-3.8383093183
 C,0,1.4125658663,-4.6528410555,-2.4996817025
 H,0,2.8489830582,-5.2385555655,-1.0183644845
 C,0,0.3224154866,-4.6056075455,-1.4906356706
 H,0,0.1909636186,-4.0860352309,-4.1698609379
 O,0,0.4732027346,-4.8316220529,-0.3153016199
 O,0,-0.8656096108,-4.2812057522,-2.0121430038
 H,0,-1.5165671467,-4.2687918629,-1.2941922359
 H,0,7.1324755394,-5.9136520538,-4.2658388498
 H,0,8.8625301287,-7.1789474752,-2.9780991882
 H,0,6.9288936993,-7.6789122834,-4.3726914018
 O,0,4.4883658521,-6.7247342503,1.4758445463
 C,0,3.2844305062,-6.5468085746,2.1736851413
 C,0,3.5468017261,-6.1050068351,3.5985301056
 O,0,4.2602678071,-4.8682140817,3.6447663222
 H,0,6.634377993,-4.1943801837,-1.3463712565
 H,0,4.1679687276,-6.8376097738,4.1144979754
 H,0,2.5968929998,-6.010015295,4.1301762829
 H,0,3.9226417834,-4.2977635534,2.9366612229
 H,0,2.669743595,-5.793995437,1.6638432508
 H,0,2.7303214968,-7.4887906643,2.1900329161
 H,0,2.0646857025,-4.1814786359,-5.785508397
 H,0,4.3334170692,-4.7909319644,-5.008029656
 Recover connectivity data from disk.
 Any frozen variables have been unfrozen.

 GradGradGradGradGradGradGradGradGradGradGradGradGradGradGradGradGradGrad
 Berny optimization.
 Initialization pass.
 Force constant matrix read from checkpoint file:
 "/dev/shm/tieg5ipatse_ts.chk"
                           ----------------------------
                           !    Initial Parameters    !
                           ! (Angstroms and Degrees)  !
 --------------------------                            --------------------------
 ! Name  Definition              Value          Derivative Info.                !
 --------------------------------------------------------------------------------
 ! R1    R(1,2)                  2.156          D2E/DX2 =    0.0969             !
 ! R2    R(1,8)                  1.421          D2E/DX2 =    0.3629             !
 ! R3    R(1,58)                 1.0304         D2E/DX2 =    0.2218             !
 ! R4    R(2,4)                  1.9115         D2E/DX2 =    0.1412             !
 ! R5    R(2,5)                  1.8488         D2E/DX2 =    0.2119             !
 ! R6    R(2,13)                 2.1431         D2E/DX2 =    0.0741             !
 ! R7    R(2,38)                 1.9638         D2E/DX2 =    0.2069             !
 ! R8    R(2,54)                 1.8053         D2E/DX2 =    0.2653             !
 ! R9    R(3,14)                 1.4263         D2E/DX2 =    0.348              !
 ! R10   R(3,36)                 1.2414         D2E/DX2 =    0.0595             !
 ! R11   R(3,37)                 1.6212         D2E/DX2 =    0.0727             !
 ! R12   R(4,11)                 1.4073         D2E/DX2 =    0.2985             !
 ! R13   R(5,6)                  1.4015         D2E/DX2 =    0.3737             !
 ! R14   R(6,7)                  1.52           D2E/DX2 =    0.2912             !
 ! R15   R(6,26)                 1.0972         D2E/DX2 =    0.3263             !
 ! R16   R(6,27)                 1.0964         D2E/DX2 =    0.3287             !
 ! R17   R(7,28)                 1.0959         D2E/DX2 =    0.3289             !
 ! R18   R(7,29)                 1.0912         D2E/DX2 =    0.343              !
 ! R19   R(7,30)                 1.4158         D2E/DX2 =    0.3651             !
 ! R20   R(8,9)                  1.5187         D2E/DX2 =    0.293              !
 ! R21   R(8,17)                 1.0925         D2E/DX2 =    0.3398             !
 ! R22   R(8,18)                 1.0937         D2E/DX2 =    0.3351             !
 ! R23   R(9,10)                 1.4153         D2E/DX2 =    0.368              !
 ! R24   R(9,19)                 1.094          D2E/DX2 =    0.3337             !
 ! R25   R(9,20)                 1.0904         D2E/DX2 =    0.3458             !
 ! R26   R(10,33)                0.9629         D2E/DX2 =    0.5343             !
 ! R27   R(11,12)                1.5219         D2E/DX2 =    0.2238             !
 ! R28   R(11,22)                1.0962         D2E/DX2 =    0.3285             !
 ! R29   R(11,23)                1.0929         D2E/DX2 =    0.3369             !
 ! R30   R(12,13)                1.4393         D2E/DX2 =    0.2811             !
 ! R31   R(12,24)                1.0888         D2E/DX2 =    0.3472             !
 ! R32   R(12,25)                1.0902         D2E/DX2 =    0.3437             !
 ! R33   R(13,34)                0.989          D2E/DX2 =    0.3882             !
 ! R34   R(14,15)                1.5196         D2E/DX2 =    0.3007             !
 ! R35   R(14,51)                1.0913         D2E/DX2 =    0.3433             !
 ! R36   R(14,53)                1.0903         D2E/DX2 =    0.3431             !
 ! R37   R(15,16)                1.4143         D2E/DX2 =    0.3769             !
 ! R38   R(15,21)                1.0919         D2E/DX2 =    0.3444             !
 ! R39   R(15,52)                1.0942         D2E/DX2 =    0.3328             !
 ! R40   R(16,31)                0.9764         D2E/DX2 =    0.4511             !
 ! R41   R(30,32)                0.9628         D2E/DX2 =    0.5341             !
 ! R42   R(35,37)                1.2631         D2E/DX2 =    0.5863             !
 ! R43   R(36,38)                1.201          D2E/DX2 =    0.0695             !
 ! R44   R(37,38)                1.4566         D2E/DX2 =    0.201              !
 ! R45   R(37,40)                1.5096         D2E/DX2 =    0.3068             !
 ! R46   R(39,40)                1.3923         D2E/DX2 =    0.395              !
 ! R47   R(39,41)                1.3856         D2E/DX2 =    0.41               !
 ! R48   R(39,65)                1.0833         D2E/DX2 =    0.3631             !
 ! R49   R(40,42)                1.3834         D2E/DX2 =    0.416              !
 ! R50   R(41,43)                1.3892         D2E/DX2 =    0.4031             !
 ! R51   R(41,64)                1.0816         D2E/DX2 =    0.3665             !
 ! R52   R(42,44)                1.3937         D2E/DX2 =    0.3971             !
 ! R53   R(42,45)                1.0825         D2E/DX2 =    0.3675             !
 ! R54   R(43,44)                1.3901         D2E/DX2 =    0.4037             !
 ! R55   R(43,47)                1.0809         D2E/DX2 =    0.37               !
 ! R56   R(44,46)                1.4862         D2E/DX2 =    0.3265             !
 ! R57   R(46,48)                1.2063         D2E/DX2 =    0.845              !
 ! R58   R(46,49)                1.3374         D2E/DX2 =    0.4271             !
 ! R59   R(49,50)                0.9692         D2E/DX2 =    0.5174             !
 ! R60   R(54,55)                1.4029         D2E/DX2 =    0.3909             !
 ! R61   R(55,56)                1.5147         D2E/DX2 =    0.3009             !
 ! R62   R(55,62)                1.0975         D2E/DX2 =    0.3265             !
 ! R63   R(55,63)                1.093          D2E/DX2 =    0.3367             !
 ! R64   R(56,57)                1.4286         D2E/DX2 =    0.347              !
 ! R65   R(56,59)                1.0903         D2E/DX2 =    0.3436             !
 ! R66   R(56,60)                1.0927         D2E/DX2 =    0.3375             !
 ! R67   R(57,61)                0.97           D2E/DX2 =    0.5062             !
 ! A1    A(2,1,8)              128.3654         D2E/DX2 =    0.1163             !
 ! A2    A(2,1,58)             104.5416         D2E/DX2 =    0.0915             !
 ! A3    A(8,1,58)             111.9401         D2E/DX2 =    0.0654             !
 ! A4    A(1,2,4)               86.6357         D2E/DX2 =    0.0213             !
 ! A5    A(1,2,5)               84.1761         D2E/DX2 =    0.0278             !
 ! A6    A(1,2,13)              84.5391         D2E/DX2 =    0.0593             !
 ! A7    A(1,2,38)              83.8257         D2E/DX2 =    0.1084             !
 ! A8    A(4,2,13)              77.0529         D2E/DX2 =    0.0186             !
 ! A9    A(4,2,38)              94.0394         D2E/DX2 =    0.0262             !
 ! A10   A(4,2,54)              95.4165         D2E/DX2 =    0.0147             !
 ! A11   A(5,2,13)              89.1556         D2E/DX2 =    0.0187             !
 ! A12   A(5,2,38)              97.8324         D2E/DX2 =    0.0189             !
 ! A13   A(5,2,54)              92.9592         D2E/DX2 =    0.0248             !
 ! A14   A(13,2,38)            165.7368         D2E/DX2 =    0.0405             !
 ! A15   A(13,2,54)             92.2256         D2E/DX2 =    0.0336             !
 ! A16   A(38,2,54)             99.7728         D2E/DX2 =    0.0463             !
 ! A17   A(14,3,36)            112.3912         D2E/DX2 =    0.0431             !
 ! A18   A(14,3,37)            115.3448         D2E/DX2 =    0.1046             !
 ! A19   A(36,3,37)             71.877          D2E/DX2 =    0.0239             !
 ! A20   A(2,4,11)             116.3879         D2E/DX2 =    0.0425             !
 ! A21   A(2,5,6)              137.2209         D2E/DX2 =    0.1134             !
 ! A22   A(5,6,7)              109.1123         D2E/DX2 =    0.1616             !
 ! A23   A(5,6,26)             110.3338         D2E/DX2 =    0.0604             !
 ! A24   A(5,6,27)             110.513          D2E/DX2 =    0.0621             !
 ! A25   A(7,6,26)             110.1526         D2E/DX2 =    0.0722             !
 ! A26   A(7,6,27)             109.1344         D2E/DX2 =    0.0711             !
 ! A27   A(26,6,27)            107.5759         D2E/DX2 =    0.0276             !
 ! A28   A(6,7,28)             109.8109         D2E/DX2 =    0.072              !
 ! A29   A(6,7,29)             109.2055         D2E/DX2 =    0.0712             !
 ! A30   A(6,7,30)             111.6475         D2E/DX2 =    0.1516             !
 ! A31   A(28,7,29)            107.8244         D2E/DX2 =    0.0277             !
 ! A32   A(28,7,30)            111.1959         D2E/DX2 =    0.065              !
 ! A33   A(29,7,30)            107.0266         D2E/DX2 =    0.0596             !
 ! A34   A(1,8,9)              109.1995         D2E/DX2 =    0.1537             !
 ! A35   A(1,8,17)             109.7119         D2E/DX2 =    0.0574             !
 ! A36   A(1,8,18)             109.1334         D2E/DX2 =    0.058              !
 ! A37   A(9,8,17)             110.3614         D2E/DX2 =    0.0544             !
 ! A38   A(9,8,18)             110.1943         D2E/DX2 =    0.0565             !
 ! A39   A(17,8,18)            108.2199         D2E/DX2 =    0.022              !
 ! A40   A(8,9,10)             111.0824         D2E/DX2 =    0.1523             !
 ! A41   A(8,9,19)             109.7331         D2E/DX2 =    0.0718             !
 ! A42   A(8,9,20)             109.2873         D2E/DX2 =    0.0714             !
 ! A43   A(10,9,19)            111.6186         D2E/DX2 =    0.0638             !
 ! A44   A(10,9,20)            107.0136         D2E/DX2 =    0.0592             !
 ! A45   A(19,9,20)            107.9977         D2E/DX2 =    0.0281             !
 ! A46   A(9,10,33)            108.8859         D2E/DX2 =    0.1799             !
 ! A47   A(4,11,12)            107.4017         D2E/DX2 =    0.0633             !
 ! A48   A(4,11,22)            109.9013         D2E/DX2 =    0.0391             !
 ! A49   A(4,11,23)            110.8735         D2E/DX2 =    0.0425             !
 ! A50   A(12,11,22)           109.7616         D2E/DX2 =    0.0557             !
 ! A51   A(12,11,23)           110.2746         D2E/DX2 =    0.0577             !
 ! A52   A(22,11,23)           108.6212         D2E/DX2 =    0.0266             !
 ! A53   A(11,12,13)           106.8454         D2E/DX2 =    0.0705             !
 ! A54   A(11,12,24)           112.699          D2E/DX2 =    0.0408             !
 ! A55   A(11,12,25)           111.2051         D2E/DX2 =    0.0364             !
 ! A56   A(13,12,24)           110.0867         D2E/DX2 =    0.0396             !
 ! A57   A(13,12,25)           106.6391         D2E/DX2 =    0.0404             !
 ! A58   A(24,12,25)           109.1691         D2E/DX2 =    0.0199             !
 ! A59   A(2,13,12)            113.6943         D2E/DX2 =    0.0512             !
 ! A60   A(2,13,34)            105.5839         D2E/DX2 =    0.028              !
 ! A61   A(12,13,34)           113.8822         D2E/DX2 =    0.0262             !
 ! A62   A(3,14,15)            112.1122         D2E/DX2 =    0.326              !
 ! A63   A(3,14,51)            108.8349         D2E/DX2 =    0.0856             !
 ! A64   A(3,14,53)            105.84           D2E/DX2 =    0.0713             !
 ! A65   A(15,14,51)           110.1249         D2E/DX2 =    0.0655             !
 ! A66   A(15,14,53)           110.4398         D2E/DX2 =    0.0822             !
 ! A67   A(51,14,53)           109.3716         D2E/DX2 =    0.0235             !
 ! A68   A(14,15,16)           110.0221         D2E/DX2 =    0.2116             !
 ! A69   A(14,15,21)           110.0047         D2E/DX2 =    0.0749             !
 ! A70   A(14,15,52)           108.1314         D2E/DX2 =    0.0799             !
 ! A71   A(16,15,21)           110.1101         D2E/DX2 =    0.0733             !
 ! A72   A(16,15,52)           110.5555         D2E/DX2 =    0.0644             !
 ! A73   A(21,15,52)           107.9712         D2E/DX2 =    0.0276             !
 ! A74   A(15,16,31)           107.7418         D2E/DX2 =    0.2316             !
 ! A75   A(7,30,32)            108.6813         D2E/DX2 =    0.1791             !
 ! A76   A(3,36,38)            121.3764         D2E/DX2 =    0.0525             !
 ! A77   A(3,37,35)            113.9673         D2E/DX2 =    0.0342             !
 ! A78   A(3,37,38)             87.3986         D2E/DX2 =    0.0476             !
 ! A79   A(3,37,40)            104.8123         D2E/DX2 =    0.0461             !
 ! A80   A(35,37,38)           117.6755         D2E/DX2 =    0.0569             !
 ! A81   A(35,37,40)           117.5018         D2E/DX2 =    0.0546             !
 ! A82   A(38,37,40)           110.8995         D2E/DX2 =    0.0513             !
 ! A83   A(2,38,36)            136.5838         D2E/DX2 =    0.0809             !
 ! A84   A(2,38,37)            133.2072         D2E/DX2 =    0.1705             !
 ! A85   A(36,38,37)            79.3476         D2E/DX2 =    0.0467             !
 ! A86   A(40,39,41)           120.2837         D2E/DX2 =    0.0828             !
 ! A87   A(40,39,65)           119.3529         D2E/DX2 =    0.0817             !
 ! A88   A(41,39,65)           120.3628         D2E/DX2 =    0.0815             !
 ! A89   A(37,40,39)           118.9279         D2E/DX2 =    0.1248             !
 ! A90   A(37,40,42)           120.9956         D2E/DX2 =    0.1396             !
 ! A91   A(39,40,42)           119.9422         D2E/DX2 =    0.0861             !
 ! A92   A(39,41,43)           120.0535         D2E/DX2 =    0.0818             !
 ! A93   A(39,41,64)           120.0315         D2E/DX2 =    0.081              !
 ! A94   A(43,41,64)           119.9148         D2E/DX2 =    0.0811             !
 ! A95   A(40,42,44)           119.7198         D2E/DX2 =    0.0824             !
 ! A96   A(40,42,45)           120.7671         D2E/DX2 =    0.0811             !
 ! A97   A(44,42,45)           119.5111         D2E/DX2 =    0.0815             !
 ! A98   A(41,43,44)           119.5773         D2E/DX2 =    0.083              !
 ! A99   A(41,43,47)           120.4236         D2E/DX2 =    0.0815             !
 ! A100  A(44,43,47)           119.9991         D2E/DX2 =    0.0815             !
 ! A101  A(42,44,43)           120.4192         D2E/DX2 =    0.0883             !
 ! A102  A(42,44,46)           117.8309         D2E/DX2 =    0.1423             !
 ! A103  A(43,44,46)           121.7498         D2E/DX2 =    0.142              !
 ! A104  A(44,46,48)           124.3226         D2E/DX2 =    0.1788             !
 ! A105  A(44,46,49)           113.2378         D2E/DX2 =    0.1972             !
 ! A106  A(48,46,49)           122.4394         D2E/DX2 =    0.2083             !
 ! A107  A(46,49,50)           108.1123         D2E/DX2 =    0.1705             !
 ! A108  A(2,54,55)            134.1031         D2E/DX2 =    0.3083             !
 ! A109  A(54,55,56)           110.8714         D2E/DX2 =    0.3528             !
 ! A110  A(54,55,62)           109.6677         D2E/DX2 =    0.0762             !
 ! A111  A(54,55,63)           109.4633         D2E/DX2 =    0.0927             !
 ! A112  A(56,55,62)           109.5082         D2E/DX2 =    0.0895             !
 ! A113  A(56,55,63)           108.9734         D2E/DX2 =    0.0962             !
 ! A114  A(62,55,63)           108.3108         D2E/DX2 =    0.0287             !
 ! A115  A(55,56,57)           111.6837         D2E/DX2 =    0.2188             !
 ! A116  A(55,56,59)           110.3568         D2E/DX2 =    0.0705             !
 ! A117  A(55,56,60)           109.4183         D2E/DX2 =    0.0747             !
 ! A118  A(57,56,59)           106.3719         D2E/DX2 =    0.0716             !
 ! A119  A(57,56,60)           110.069          D2E/DX2 =    0.0747             !
 ! A120  A(59,56,60)           108.8705         D2E/DX2 =    0.0282             !
 ! A121  A(56,57,61)           108.1615         D2E/DX2 =    0.2006             !
 ! A122  L(1,2,54,4,-1)        182.0521         D2E/DX2 =    0.0167             !
 ! A123  L(4,2,5,1,-1)         170.8118         D2E/DX2 =    0.0156             !
 ! A124  L(1,2,54,4,-2)        176.2084         D2E/DX2 =    0.0373             !
 ! A125  L(4,2,5,1,-2)         192.9937         D2E/DX2 =    0.0134             !
 ! D1    D(8,1,2,4)            -28.9583         D2E/DX2 =    0.0108             !
 ! D2    D(8,1,2,5)            138.048          D2E/DX2 =    0.0087             !
 ! D3    D(8,1,2,13)            48.3419         D2E/DX2 =    0.0115             !
 ! D4    D(8,1,2,38)          -123.3937         D2E/DX2 =    0.0097             !
 ! D5    D(58,1,2,4)           105.2799         D2E/DX2 =    0.0117             !
 ! D6    D(58,1,2,5)           -87.7138         D2E/DX2 =    0.01               !
 ! D7    D(58,1,2,13)         -177.4199         D2E/DX2 =    0.0123             !
 ! D8    D(58,1,2,38)           10.8445         D2E/DX2 =    0.0156             !
 ! D9    D(2,1,8,9)            -99.228          D2E/DX2 =    0.0199             !
 ! D10   D(2,1,8,17)            21.8452         D2E/DX2 =    0.0184             !
 ! D11   D(2,1,8,18)           140.2598         D2E/DX2 =    0.0188             !
 ! D12   D(58,1,8,9)           129.1585         D2E/DX2 =    0.0174             !
 ! D13   D(58,1,8,17)         -109.7683         D2E/DX2 =    0.0179             !
 ! D14   D(58,1,8,18)            8.6463         D2E/DX2 =    0.0159             !
 ! D15   D(8,1,54,55)          128.5287         D2E/DX2 =    0.0147             !
 ! D16   D(58,1,54,55)         -95.3107         D2E/DX2 =    0.0125             !
 ! D17   D(1,2,4,11)           115.9284         D2E/DX2 =    0.0419             !
 ! D18   D(13,2,4,11)           30.7644         D2E/DX2 =    0.0103             !
 ! D19   D(38,2,4,11)         -160.5113         D2E/DX2 =    0.0248             !
 ! D20   D(54,2,4,11)          -60.28           D2E/DX2 =    0.0201             !
 ! D21   D(11,4,5,6)           113.4735         D2E/DX2 =    0.0085             !
 ! D22   D(1,2,5,6)              7.2927         D2E/DX2 =    0.0357             !
 ! D23   D(13,2,5,6)            91.8892         D2E/DX2 =    0.0109             !
 ! D24   D(38,2,5,6)           -75.6329         D2E/DX2 =    0.0281             !
 ! D25   D(54,2,5,6)          -175.9257         D2E/DX2 =    0.0117             !
 ! D26   D(1,2,13,12)          -93.2578         D2E/DX2 =    0.0147             !
 ! D27   D(1,2,13,34)          141.1932         D2E/DX2 =    0.0137             !
 ! D28   D(4,2,13,12)           -5.4649         D2E/DX2 =    0.0057             !
 ! D29   D(4,2,13,34)         -131.0139         D2E/DX2 =    0.0094             !
 ! D30   D(5,2,13,12)         -177.4878         D2E/DX2 =    0.012              !
 ! D31   D(5,2,13,34)           56.9632         D2E/DX2 =    0.013              !
 ! D32   D(38,2,13,12)         -57.8048         D2E/DX2 =    0.0038             !
 ! D33   D(38,2,13,34)         176.6462         D2E/DX2 =    0.0062             !
 ! D34   D(54,2,13,12)          89.5834         D2E/DX2 =    0.0107             !
 ! D35   D(54,2,13,34)         -35.9656         D2E/DX2 =    0.0136             !
 ! D36   D(1,2,38,36)          100.845          D2E/DX2 =    0.0144             !
 ! D37   D(1,2,38,37)          -27.7436         D2E/DX2 =    0.025              !
 ! D38   D(4,2,38,36)           14.676          D2E/DX2 =    0.0073             !
 ! D39   D(4,2,38,37)         -113.9125         D2E/DX2 =    0.013              !
 ! D40   D(5,2,38,36)         -175.9262         D2E/DX2 =    0.015              !
 ! D41   D(5,2,38,37)           55.4852         D2E/DX2 =    0.0157             !
 ! D42   D(13,2,38,36)          65.3402         D2E/DX2 =    0.0027             !
 ! D43   D(13,2,38,37)         -63.2484         D2E/DX2 =    0.0082             !
 ! D44   D(54,2,38,36)         -81.5347         D2E/DX2 =    0.0085             !
 ! D45   D(54,2,38,37)         149.8767         D2E/DX2 =    0.0132             !
 ! D46   D(4,2,54,55)          160.1946         D2E/DX2 =    0.0182             !
 ! D47   D(5,2,54,55)           -6.2747         D2E/DX2 =    0.02               !
 ! D48   D(13,2,54,55)          82.9943         D2E/DX2 =    0.02               !
 ! D49   D(38,2,54,55)        -104.7493         D2E/DX2 =    0.0208             !
 ! D50   D(36,3,14,15)          -6.9894         D2E/DX2 =    0.0325             !
 ! D51   D(36,3,14,51)        -129.0618         D2E/DX2 =    0.0182             !
 ! D52   D(36,3,14,53)         113.4819         D2E/DX2 =    0.0196             !
 ! D53   D(37,3,14,15)          72.8091         D2E/DX2 =    0.0508             !
 ! D54   D(37,3,14,51)         -49.2633         D2E/DX2 =    0.0209             !
 ! D55   D(37,3,14,53)        -166.7196         D2E/DX2 =    0.0306             !
 ! D56   D(14,3,36,38)         110.7909         D2E/DX2 =    0.091              !
 ! D57   D(37,3,36,38)           0.1632         D2E/DX2 =    0.0095             !
 ! D58   D(14,3,37,35)          12.3679         D2E/DX2 =    0.0371             !
 ! D59   D(14,3,37,38)        -106.8817         D2E/DX2 =    0.0425             !
 ! D60   D(14,3,37,40)         142.1802         D2E/DX2 =    0.031              !
 ! D61   D(36,3,37,35)         119.1347         D2E/DX2 =    0.0559             !
 ! D62   D(36,3,37,38)          -0.115          D2E/DX2 =    0.0047             !
 ! D63   D(36,3,37,40)        -111.053          D2E/DX2 =    0.0359             !
 ! D64   D(2,4,11,12)          -49.1456         D2E/DX2 =    0.0161             !
 ! D65   D(2,4,11,22)           70.2141         D2E/DX2 =    0.0322             !
 ! D66   D(2,4,11,23)         -169.6871         D2E/DX2 =    0.0302             !
 ! D67   D(2,5,6,7)            167.4622         D2E/DX2 =    0.0213             !
 ! D68   D(2,5,6,26)           -71.3888         D2E/DX2 =    0.0251             !
 ! D69   D(2,5,6,27)            47.4594         D2E/DX2 =    0.0255             !
 ! D70   D(5,6,7,28)            58.9346         D2E/DX2 =    0.0186             !
 ! D71   D(5,6,7,29)           -59.1009         D2E/DX2 =    0.0181             !
 ! D72   D(5,6,7,30)          -177.2556         D2E/DX2 =    0.0193             !
 ! D73   D(26,6,7,28)          -62.3248         D2E/DX2 =    0.0175             !
 ! D74   D(26,6,7,29)          179.6397         D2E/DX2 =    0.0159             !
 ! D75   D(26,6,7,30)           61.485          D2E/DX2 =    0.0179             !
 ! D76   D(27,6,7,28)          179.7836         D2E/DX2 =    0.0164             !
 ! D77   D(27,6,7,29)           61.7481         D2E/DX2 =    0.0181             !
 ! D78   D(27,6,7,30)          -56.4066         D2E/DX2 =    0.0182             !
 ! D79   D(6,7,30,32)          -67.2346         D2E/DX2 =    0.0167             !
 ! D80   D(28,7,30,32)          55.7902         D2E/DX2 =    0.0225             !
 ! D81   D(29,7,30,32)         173.314          D2E/DX2 =    0.0234             !
 ! D82   D(1,8,9,10)           173.5079         D2E/DX2 =    0.0192             !
 ! D83   D(1,8,9,19)           -62.59           D2E/DX2 =    0.0176             !
 ! D84   D(1,8,9,20)            55.6588         D2E/DX2 =    0.0179             !
 ! D85   D(17,8,9,10)           52.8309         D2E/DX2 =    0.018              !
 ! D86   D(17,8,9,19)          176.733          D2E/DX2 =    0.016              !
 ! D87   D(17,8,9,20)          -65.0182         D2E/DX2 =    0.0181             !
 ! D88   D(18,8,9,10)          -66.6317         D2E/DX2 =    0.0182             !
 ! D89   D(18,8,9,19)           57.2705         D2E/DX2 =    0.018              !
 ! D90   D(18,8,9,20)          175.5192         D2E/DX2 =    0.0163             !
 ! D91   D(8,9,10,33)           69.2479         D2E/DX2 =    0.0168             !
 ! D92   D(19,9,10,33)         -53.5735         D2E/DX2 =    0.0226             !
 ! D93   D(20,9,10,33)        -171.5321         D2E/DX2 =    0.0236             !
 ! D94   D(4,11,12,13)          39.3995         D2E/DX2 =    0.0134             !
 ! D95   D(4,11,12,24)         160.4383         D2E/DX2 =    0.0182             !
 ! D96   D(4,11,12,25)         -76.6011         D2E/DX2 =    0.0209             !
 ! D97   D(22,11,12,13)        -80.0495         D2E/DX2 =    0.0181             !
 ! D98   D(22,11,12,24)         40.9892         D2E/DX2 =    0.0179             !
 ! D99   D(22,11,12,25)        163.9498         D2E/DX2 =    0.0193             !
 ! D100  D(23,11,12,13)        160.3191         D2E/DX2 =    0.0174             !
 ! D101  D(23,11,12,24)        -78.6421         D2E/DX2 =    0.0164             !
 ! D102  D(23,11,12,25)         44.3185         D2E/DX2 =    0.0175             !
 ! D103  D(11,12,13,2)         -17.1523         D2E/DX2 =    0.0111             !
 ! D104  D(11,12,13,34)        103.856          D2E/DX2 =    0.0138             !
 ! D105  D(24,12,13,2)        -139.8378         D2E/DX2 =    0.0179             !
 ! D106  D(24,12,13,34)        -18.8295         D2E/DX2 =    0.0143             !
 ! D107  D(25,12,13,2)         101.8555         D2E/DX2 =    0.0196             !
 ! D108  D(25,12,13,34)       -137.1362         D2E/DX2 =    0.0174             !
 ! D109  D(3,14,15,16)          52.1254         D2E/DX2 =    0.0275             !
 ! D110  D(3,14,15,21)         -69.3483         D2E/DX2 =    0.0192             !
 ! D111  D(3,14,15,52)         172.9595         D2E/DX2 =    0.0183             !
 ! D112  D(51,14,15,16)        173.459          D2E/DX2 =    0.0299             !
 ! D113  D(51,14,15,21)         51.9853         D2E/DX2 =    0.0189             !
 ! D114  D(51,14,15,52)        -65.7069         D2E/DX2 =    0.0181             !
 ! D115  D(53,14,15,16)        -65.6394         D2E/DX2 =    0.0232             !
 ! D116  D(53,14,15,21)        172.8869         D2E/DX2 =    0.0199             !
 ! D117  D(53,14,15,52)         55.1947         D2E/DX2 =    0.0181             !
 ! D118  D(14,15,16,31)       -125.8807         D2E/DX2 =    0.0321             !
 ! D119  D(21,15,16,31)         -4.4699         D2E/DX2 =    0.0231             !
 ! D120  D(52,15,16,31)        114.7534         D2E/DX2 =    0.0322             !
 ! D121  D(3,36,38,2)         -144.7449         D2E/DX2 =    0.0877             !
 ! D122  D(3,36,38,37)          -0.1756         D2E/DX2 =    0.011              !
 ! D123  D(3,37,38,2)          146.9782         D2E/DX2 =    0.043              !
 ! D124  D(3,37,38,36)           0.1149         D2E/DX2 =    0.0047             !
 ! D125  D(35,37,38,2)          31.1714         D2E/DX2 =    0.0279             !
 ! D126  D(35,37,38,36)       -115.6918         D2E/DX2 =    0.0333             !
 ! D127  D(40,37,38,2)        -108.154          D2E/DX2 =    0.0407             !
 ! D128  D(40,37,38,36)        104.9828         D2E/DX2 =    0.0323             !
 ! D129  D(3,37,40,39)         -66.708          D2E/DX2 =    0.0158             !
 ! D130  D(3,37,40,42)         117.5082         D2E/DX2 =    0.0166             !
 ! D131  D(35,37,40,39)         60.9812         D2E/DX2 =    0.0193             !
 ! D132  D(35,37,40,42)       -114.8026         D2E/DX2 =    0.0208             !
 ! D133  D(38,37,40,39)       -159.6155         D2E/DX2 =    0.0143             !
 ! D134  D(38,37,40,42)         24.6007         D2E/DX2 =    0.0151             !
 ! D135  D(41,39,40,37)       -176.3378         D2E/DX2 =    0.0075             !
 ! D136  D(41,39,40,42)         -0.5085         D2E/DX2 =    0.0073             !
 ! D137  D(65,39,40,37)          3.9597         D2E/DX2 =    0.008              !
 ! D138  D(65,39,40,42)        179.7891         D2E/DX2 =    0.007              !
 ! D139  D(40,39,41,43)          0.6455         D2E/DX2 =    0.0091             !
 ! D140  D(40,39,41,64)       -179.4486         D2E/DX2 =    0.0085             !
 ! D141  D(65,39,41,43)       -179.6551         D2E/DX2 =    0.0087             !
 ! D142  D(65,39,41,64)          0.2508         D2E/DX2 =    0.0096             !
 ! D143  D(37,40,42,44)        175.6637         D2E/DX2 =    0.0084             !
 ! D144  D(37,40,42,45)         -3.8177         D2E/DX2 =    0.0078             !
 ! D145  D(39,40,42,44)         -0.0777         D2E/DX2 =    0.0075             !
 ! D146  D(39,40,42,45)       -179.5591         D2E/DX2 =    0.0075             !
 ! D147  D(39,41,43,44)         -0.1944         D2E/DX2 =    0.0092             !
 ! D148  D(39,41,43,47)        179.8118         D2E/DX2 =    0.0087             !
 ! D149  D(64,41,43,44)        179.8996         D2E/DX2 =    0.0085             !
 ! D150  D(64,41,43,47)         -0.0942         D2E/DX2 =    0.0095             !
 ! D151  D(40,42,44,43)          0.5288         D2E/DX2 =    0.0082             !
 ! D152  D(40,42,44,46)       -179.6198         D2E/DX2 =    0.0081             !
 ! D153  D(45,42,44,43)       -179.9832         D2E/DX2 =    0.0073             !
 ! D154  D(45,42,44,46)         -0.1318         D2E/DX2 =    0.0077             !
 ! D155  D(41,43,44,42)         -0.3927         D2E/DX2 =    0.0081             !
 ! D156  D(41,43,44,46)        179.7618         D2E/DX2 =    0.0079             !
 ! D157  D(47,43,44,42)        179.6011         D2E/DX2 =    0.0076             !
 ! D158  D(47,43,44,46)         -0.2444         D2E/DX2 =    0.0079             !
 ! D159  D(42,44,46,48)          1.4628         D2E/DX2 =    0.0151             !
 ! D160  D(42,44,46,49)       -178.6424         D2E/DX2 =    0.0141             !
 ! D161  D(43,44,46,48)       -178.6879         D2E/DX2 =    0.0144             !
 ! D162  D(43,44,46,49)          1.207          D2E/DX2 =    0.0144             !
 ! D163  D(44,46,49,50)       -179.7808         D2E/DX2 =    0.0211             !
 ! D164  D(48,46,49,50)          0.1163         D2E/DX2 =    0.0195             !
 ! D165  D(2,54,55,56)         -83.9203         D2E/DX2 =    0.0725             !
 ! D166  D(2,54,55,62)          37.1317         D2E/DX2 =    0.0451             !
 ! D167  D(2,54,55,63)         155.828          D2E/DX2 =    0.0464             !
 ! D168  D(54,55,56,57)         59.9847         D2E/DX2 =    0.0394             !
 ! D169  D(54,55,56,59)        -58.1194         D2E/DX2 =    0.0219             !
 ! D170  D(54,55,56,60)       -177.8934         D2E/DX2 =    0.0233             !
 ! D171  D(62,55,56,57)        -61.1614         D2E/DX2 =    0.0244             !
 ! D172  D(62,55,56,59)       -179.2654         D2E/DX2 =    0.0222             !
 ! D173  D(62,55,56,60)         60.9605         D2E/DX2 =    0.0189             !
 ! D174  D(63,55,56,57)       -179.4725         D2E/DX2 =    0.031              !
 ! D175  D(63,55,56,59)         62.4234         D2E/DX2 =    0.0189             !
 ! D176  D(63,55,56,60)        -57.3506         D2E/DX2 =    0.0186             !
 ! D177  D(55,56,57,61)         38.5351         D2E/DX2 =    0.0185             !
 ! D178  D(59,56,57,61)        158.9987         D2E/DX2 =    0.0231             !
 ! D179  D(60,56,57,61)        -83.2121         D2E/DX2 =    0.027              !
 --------------------------------------------------------------------------------
 Trust Radius=3.00D-01 FncErr=1.00D-07 GrdErr=1.00D-06 EigMax=2.50D+02 EigMin=1.00D-04
 Number of steps in this run=    381 maximum allowed number of steps=    390.
 Search for a saddle point of order  1.
 GradGradGradGradGradGradGradGradGradGradGradGradGradGradGradGradGradGrad

 Symmetry turned off by external request.
 Stoichiometry    C18H32O14Ti
 Framework group  C1[X(C18H32O14Ti)]
 Deg. of freedom   189
 Full point group                 C1      NOp   1
                          Input orientation:                          
 ---------------------------------------------------------------------
 Center     Atomic      Atomic             Coordinates (Angstroms)
 Number     Number       Type             X           Y           Z
 ---------------------------------------------------------------------
      1          8           0        6.910202   -4.183608   -0.353607
      2         22           0        5.601372   -5.615268    0.587430
      3          8           0        5.541758   -6.733944   -3.252371
      4          8           0        7.113072   -6.783192    0.656113
      5          8           0        4.460039   -4.171791    0.766261
      6          6           0        4.411428   -2.839256    0.334857
      7          6           0        3.019865   -2.283760    0.590693
      8          6           0        8.314323   -4.034332   -0.194263
      9          6           0        8.588772   -2.904550    0.782879
     10          8           0        9.968589   -2.817082    1.085475
     11          6           0        7.573918   -7.135018    1.938468
     12          6           0        7.710300   -5.849532    2.741655
     13          8           0        6.586200   -5.020111    2.395357
     14          6           0        6.891907   -6.818078   -3.704566
     15          6           0        7.870020   -6.995891   -2.555311
     16          8           0        7.469019   -8.080973   -1.741643
     17          1           0        8.744758   -4.968483    0.174094
     18          1           0        8.763614   -3.810547   -1.166031
     19          1           0        8.204673   -1.963934    0.377304
     20          1           0        8.068686   -3.104649    1.720074
     21          1           0        7.920044   -6.080399   -1.962340
     22          1           0        6.851704   -7.801080    2.424804
     23          1           0        8.536887   -7.648316    1.878914
     24          1           0        7.728410   -6.025294    3.815974
     25          1           0        8.605614   -5.297932    2.454013
     26          1           0        5.161411   -2.239170    0.865283
     27          1           0        4.632951   -2.774094   -0.736950
     28          1           0        2.785316   -2.347162    1.659299
     29          1           0        2.287777   -2.887231    0.051665
     30          8           0        2.892282   -0.955821    0.116514
     31          1           0        7.403028   -7.755796   -0.823342
     32          1           0        3.453087   -0.382803    0.649562
     33          1           0       10.440179   -2.510038    0.304108
     34          1           0        5.879524   -4.994376    3.086775
     35          8           0        5.998871   -4.428700   -2.648562
     36          1           0        5.435194   -6.961331   -2.036664
     37          6           0        5.142608   -5.347393   -2.513074
     38          8           0        5.141876   -6.092322   -1.261336
     39          6           0        3.507216   -4.753059   -4.308323
     40          6           0        3.732651   -5.058961   -2.968926
     41          6           0        2.236999   -4.409687   -4.742397
     42          6           0        2.687313   -5.010224   -2.064113
     43          6           0        1.183622   -4.356149   -3.838309
     44          6           0        1.412566   -4.652841   -2.499682
     45          1           0        2.848983   -5.238556   -1.018364
     46          6           0        0.322415   -4.605608   -1.490636
     47          1           0        0.190964   -4.086035   -4.169861
     48          8           0        0.473203   -4.831622   -0.315302
     49          8           0       -0.865610   -4.281206   -2.012143
     50          1           0       -1.516567   -4.268792   -1.294192
     51          1           0        7.132476   -5.913652   -4.265839
     52          1           0        8.862530   -7.178947   -2.978099
     53          1           0        6.928894   -7.678912   -4.372691
     54          8           0        4.488366   -6.724734    1.475845
     55          6           0        3.284431   -6.546809    2.173685
     56          6           0        3.546802   -6.105007    3.598530
     57          8           0        4.260268   -4.868214    3.644766
     58          1           0        6.634378   -4.194380   -1.346371
     59          1           0        4.167969   -6.837610    4.114498
     60          1           0        2.596893   -6.010015    4.130176
     61          1           0        3.922642   -4.297764    2.936661
     62          1           0        2.669744   -5.793995    1.663843
     63          1           0        2.730321   -7.488791    2.190033
     64          1           0        2.064686   -4.181479   -5.785508
     65          1           0        4.333417   -4.790932   -5.008030
 ---------------------------------------------------------------------
 Rotational constants (GHZ):           0.1518844           0.1002062           0.0825997
 Standard basis: def2TZVP (5D, 7F)
  1229 basis functions,  1990 primitive gaussians,  1396 cartesian basis functions
   137 alpha electrons      137 beta electrons
       nuclear repulsion energy      4748.4893850697 Hartrees.
 NAtoms=   65 NActive=   65 NUniq=   65 SFac= 1.00D+00 NAtFMM=   60 NAOKFM=T Big=T
 Integral buffers will be    131072 words long.
 Raffenetti 2 integral format.
 Two-electron integral symmetry is turned off.
 Using the following non-standard input for PCM:
 PDENS=7.0
 --- end of non-standard input.
 ------------------------------------------------------------------------------
 Polarizable Continuum Model (PCM)
 =================================
 Model                : PCM.
 Atomic radii         : UFF (Universal Force Field).
 Polarization charges : Total charges.
 Charge compensation  : None.
 Solution method      : On-the-fly selection.
 Cavity type          : Scaled VdW (van der Waals Surface) (Alpha=1.100).
 Cavity algorithm     : GePol (No added spheres)
                        Default sphere list used, NSphG=   65.
                        Lebedev-Laikov grids with approx.  7.0 points / Ang**2.
                        Smoothing algorithm: York/Karplus (Gamma=1.0000).
                        Polarization charges: spherical gaussians, with
                                              point-specific exponents (IZeta= 3).
                        Self-potential: point-specific (ISelfS= 7).
                        Self-field    : sphere-specific E.n sum rule (ISelfD= 2).
 1st derivatives      : Analytical E(r).r(x)/FMM algorithm (CHGder, D1EAlg=3).
                        Cavity 1st derivative terms included.
 Solvent              : 1,2-EthaneDiol, Eps=  40.245000 Eps(inf)=   2.050051
 ------------------------------------------------------------------------------
 One-electron integrals computed using PRISM.
   1 Symmetry operations used in ECPInt.
 ECPInt:  NShTT=  122760 NPrTT=  378005 LenC2=   99887 LenP2D=  205429.
 LDataN:  DoStor=T MaxTD1= 6 Len=  172
 NBasis=  1229 RedAO= T EigKep=  5.30D-06  NBF=  1229
 NBsUse=  1229 1.00D-06 EigRej= -1.00D+00 NBFU=  1229
 Initial guess from the checkpoint file:  "/dev/shm/tieg5ipatse_ts.chk"
 B after Tr=     0.000000    0.000000    0.000000
         Rot=    1.000000    0.000000    0.000000    0.000000 Ang=   0.00 deg.
 Requested convergence on RMS density matrix=1.00D-08 within 400 cycles.
 Requested convergence on MAX density matrix=1.00D-06.
 Requested convergence on             energy=1.00D-06.
 No special actions if energy rises.
 Inv3:  Mode=1 IEnd=   116326587.
 Iteration    1 A*A^-1 deviation from unit magnitude is 3.33D-15 for   1241.
 Iteration    1 A*A^-1 deviation from orthogonality  is 2.44D-15 for   6113   3955.
 Iteration    1 A^-1*A deviation from unit magnitude is 3.33D-15 for   4861.
 Iteration    1 A^-1*A deviation from orthogonality  is 2.44D-15 for   6174    226.
 Error on total polarization charges =  0.01635
 SCF Done:  E(RM062X) =  -2607.96785180     A.U. after    1 cycles
            NFock=  1  Conv=0.80D-08     -V/T= 2.0034
 QCSCF skips out because SCF is already converged.

 **********************************************************************

            Population analysis using the SCF Density.

 **********************************************************************

 Alpha  occ. eigenvalues -- -180.51017 -20.51052 -19.68162 -19.67137 -19.66249
 Alpha  occ. eigenvalues --  -19.65121 -19.64905 -19.64671 -19.63382 -19.63051
 Alpha  occ. eigenvalues --  -19.62914 -19.62873 -19.61833 -19.61620 -19.61059
 Alpha  occ. eigenvalues --  -19.60104 -17.20462 -17.20391 -17.20332 -10.71093
 Alpha  occ. eigenvalues --  -10.68991 -10.59966 -10.59205 -10.59039 -10.58987
 Alpha  occ. eigenvalues --  -10.58786 -10.58604 -10.58378 -10.58091 -10.58043
 Alpha  occ. eigenvalues --  -10.57945 -10.56850 -10.56423 -10.56087 -10.56042
 Alpha  occ. eigenvalues --  -10.55986 -10.55532  -2.64934  -1.71490  -1.71347
 Alpha  occ. eigenvalues --   -1.71016  -1.25070  -1.23828  -1.19121  -1.16878
 Alpha  occ. eigenvalues --   -1.16825  -1.15328  -1.15310  -1.15187  -1.14425
 Alpha  occ. eigenvalues --   -1.12851  -1.11607  -1.10967  -1.10613  -1.09910
 Alpha  occ. eigenvalues --   -0.98658  -0.88843  -0.86997  -0.84538  -0.84383
 Alpha  occ. eigenvalues --   -0.84060  -0.83651  -0.82175  -0.76624  -0.75321
 Alpha  occ. eigenvalues --   -0.72302  -0.71857  -0.71821  -0.71599  -0.70333
 Alpha  occ. eigenvalues --   -0.68744  -0.66836  -0.63972  -0.63206  -0.62378
 Alpha  occ. eigenvalues --   -0.61145  -0.60790  -0.60303  -0.59876  -0.59579
 Alpha  occ. eigenvalues --   -0.59250  -0.58053  -0.57540  -0.56921  -0.56782
 Alpha  occ. eigenvalues --   -0.56679  -0.56204  -0.55753  -0.55379  -0.55086
 Alpha  occ. eigenvalues --   -0.54842  -0.54376  -0.53613  -0.53337  -0.52159
 Alpha  occ. eigenvalues --   -0.51881  -0.51826  -0.51223  -0.51053  -0.50319
 Alpha  occ. eigenvalues --   -0.50056  -0.49185  -0.49123  -0.48715  -0.48535
 Alpha  occ. eigenvalues --   -0.47895  -0.47475  -0.45963  -0.45786  -0.45028
 Alpha  occ. eigenvalues --   -0.44935  -0.44375  -0.44023  -0.42670  -0.42585
 Alpha  occ. eigenvalues --   -0.42130  -0.41864  -0.41151  -0.41049  -0.40186
 Alpha  occ. eigenvalues --   -0.39976  -0.39396  -0.39240  -0.38515  -0.37726
 Alpha  occ. eigenvalues --   -0.37241  -0.36917  -0.36708  -0.35893  -0.35641
 Alpha  occ. eigenvalues --   -0.35036  -0.34695  -0.34549  -0.34305  -0.33767
 Alpha  occ. eigenvalues --   -0.32744  -0.32070
 Alpha virt. eigenvalues --   -0.03141  -0.02878  -0.02137  -0.01197   0.00475
 Alpha virt. eigenvalues --    0.03376   0.04200   0.06048   0.06120   0.06962
 Alpha virt. eigenvalues --    0.07175   0.07483   0.07878   0.08029   0.08392
 Alpha virt. eigenvalues --    0.08745   0.09198   0.09342   0.10145   0.10478
 Alpha virt. eigenvalues --    0.10824   0.11449   0.11699   0.12045   0.12735
 Alpha virt. eigenvalues --    0.12978   0.13225   0.13766   0.13965   0.14242
 Alpha virt. eigenvalues --    0.14626   0.14825   0.15149   0.15423   0.15972
 Alpha virt. eigenvalues --    0.16433   0.16810   0.17157   0.17306   0.17911
 Alpha virt. eigenvalues --    0.18081   0.18416   0.18910   0.19525   0.19894
 Alpha virt. eigenvalues --    0.20098   0.20499   0.20829   0.21130   0.21466
 Alpha virt. eigenvalues --    0.21908   0.22241   0.22417   0.22718   0.23243
 Alpha virt. eigenvalues --    0.23540   0.23679   0.23924   0.24237   0.24553
 Alpha virt. eigenvalues --    0.24919   0.25096   0.25344   0.25688   0.26120
 Alpha virt. eigenvalues --    0.26567   0.26685   0.26783   0.27418   0.27853
 Alpha virt. eigenvalues --    0.28409   0.28480   0.28844   0.29409   0.29881
 Alpha virt. eigenvalues --    0.30623   0.30829   0.31024   0.31544   0.31808
 Alpha virt. eigenvalues --    0.32329   0.32442   0.33127   0.33479   0.33684
 Alpha virt. eigenvalues --    0.34134   0.34315   0.35026   0.35230   0.36008
 Alpha virt. eigenvalues --    0.36094   0.36389   0.36854   0.36967   0.37140
 Alpha virt. eigenvalues --    0.37484   0.38078   0.38458   0.38966   0.39119
 Alpha virt. eigenvalues --    0.39463   0.39580   0.39800   0.40023   0.40732
 Alpha virt. eigenvalues --    0.41056   0.41435   0.41878   0.41941   0.42268
 Alpha virt. eigenvalues --    0.42604   0.42873   0.43211   0.43269   0.43487
 Alpha virt. eigenvalues --    0.43846   0.44322   0.44839   0.45083   0.45411
 Alpha virt. eigenvalues --    0.45568   0.45671   0.45890   0.46157   0.46507
 Alpha virt. eigenvalues --    0.46698   0.46966   0.47371   0.47476   0.47995
 Alpha virt. eigenvalues --    0.48143   0.48484   0.48578   0.48941   0.49321
 Alpha virt. eigenvalues --    0.49629   0.49729   0.49935   0.50299   0.50481
 Alpha virt. eigenvalues --    0.50908   0.51262   0.51507   0.51810   0.52076
 Alpha virt. eigenvalues --    0.52275   0.52697   0.53077   0.53406   0.53747
 Alpha virt. eigenvalues --    0.54281   0.54556   0.55128   0.55536   0.55714
 Alpha virt. eigenvalues --    0.56065   0.56129   0.56491   0.57137   0.57279
 Alpha virt. eigenvalues --    0.57765   0.58191   0.58522   0.58821   0.59288
 Alpha virt. eigenvalues --    0.59582   0.59952   0.60194   0.60542   0.60973
 Alpha virt. eigenvalues --    0.61781   0.62061   0.62489   0.62952   0.63529
 Alpha virt. eigenvalues --    0.63933   0.64247   0.64697   0.65331   0.65777
 Alpha virt. eigenvalues --    0.66058   0.66269   0.66833   0.67115   0.67737
 Alpha virt. eigenvalues --    0.67958   0.68331   0.68557   0.68957   0.69647
 Alpha virt. eigenvalues --    0.70492   0.70952   0.71632   0.72324   0.72444
 Alpha virt. eigenvalues --    0.72588   0.72829   0.73156   0.73774   0.74162
 Alpha virt. eigenvalues --    0.74552   0.75016   0.75640   0.75689   0.76252
 Alpha virt. eigenvalues --    0.76868   0.77076   0.77484   0.78447   0.78839
 Alpha virt. eigenvalues --    0.78918   0.79078   0.80010   0.80309   0.80938
 Alpha virt. eigenvalues --    0.81313   0.81847   0.82388   0.83126   0.83350
 Alpha virt. eigenvalues --    0.83687   0.83975   0.85081   0.85306   0.85698
 Alpha virt. eigenvalues --    0.85871   0.86009   0.87021   0.87177   0.87635
 Alpha virt. eigenvalues --    0.87898   0.88547   0.89201   0.89838   0.90225
 Alpha virt. eigenvalues --    0.90895   0.91000   0.91418   0.91616   0.91738
 Alpha virt. eigenvalues --    0.92508   0.93089   0.93866   0.94108   0.94783
 Alpha virt. eigenvalues --    0.94983   0.95326   0.95984   0.96127   0.96466
 Alpha virt. eigenvalues --    0.97468   0.97787   0.98084   0.98756   0.99312
 Alpha virt. eigenvalues --    0.99728   0.99974   1.00381   1.00813   1.01511
 Alpha virt. eigenvalues --    1.02154   1.02972   1.03069   1.03727   1.04115
 Alpha virt. eigenvalues --    1.04781   1.05566   1.06027   1.06364   1.06804
 Alpha virt. eigenvalues --    1.07374   1.07917   1.08289   1.08621   1.09832
 Alpha virt. eigenvalues --    1.10466   1.11392   1.11695   1.12039   1.12528
 Alpha virt. eigenvalues --    1.13492   1.14001   1.14581   1.14868   1.15264
 Alpha virt. eigenvalues --    1.15497   1.16214   1.16319   1.17228   1.18445
 Alpha virt. eigenvalues --    1.19236   1.20258   1.20393   1.21355   1.21629
 Alpha virt. eigenvalues --    1.22265   1.22809   1.23082   1.23619   1.24004
 Alpha virt. eigenvalues --    1.24756   1.25443   1.25680   1.26318   1.26443
 Alpha virt. eigenvalues --    1.26741   1.27640   1.28039   1.28365   1.29302
 Alpha virt. eigenvalues --    1.30005   1.30213   1.30502   1.31216   1.31634
 Alpha virt. eigenvalues --    1.32359   1.32971   1.33507   1.33984   1.34665
 Alpha virt. eigenvalues --    1.35758   1.36465   1.36838   1.38473   1.38629
 Alpha virt. eigenvalues --    1.39175   1.39964   1.41387   1.41819   1.42257
 Alpha virt. eigenvalues --    1.43096   1.43399   1.43712   1.44894   1.46104
 Alpha virt. eigenvalues --    1.46198   1.46995   1.47745   1.48442   1.49081
 Alpha virt. eigenvalues --    1.49944   1.50293   1.50469   1.51240   1.51895
 Alpha virt. eigenvalues --    1.52518   1.52607   1.53005   1.53049   1.54047
 Alpha virt. eigenvalues --    1.54703   1.54836   1.55716   1.56007   1.56389
 Alpha virt. eigenvalues --    1.56857   1.57568   1.58157   1.58546   1.58755
 Alpha virt. eigenvalues --    1.59438   1.60271   1.60341   1.60581   1.61228
 Alpha virt. eigenvalues --    1.61591   1.61720   1.62308   1.62430   1.62730
 Alpha virt. eigenvalues --    1.63165   1.63424   1.63811   1.64333   1.64992
 Alpha virt. eigenvalues --    1.65369   1.65874   1.66271   1.66489   1.66832
 Alpha virt. eigenvalues --    1.67192   1.67873   1.68025   1.68859   1.69321
 Alpha virt. eigenvalues --    1.69787   1.69817   1.70550   1.70815   1.71343
 Alpha virt. eigenvalues --    1.71999   1.72833   1.73326   1.73371   1.73904
 Alpha virt. eigenvalues --    1.74187   1.75032   1.76023   1.76237   1.77087
 Alpha virt. eigenvalues --    1.78049   1.78460   1.78718   1.79470   1.79708
 Alpha virt. eigenvalues --    1.80265   1.80912   1.81485   1.81575   1.82222
 Alpha virt. eigenvalues --    1.82997   1.83670   1.84180   1.84497   1.84858
 Alpha virt. eigenvalues --    1.85214   1.85687   1.86332   1.86438   1.87290
 Alpha virt. eigenvalues --    1.87801   1.88264   1.88567   1.89155   1.89454
 Alpha virt. eigenvalues --    1.89794   1.90337   1.90951   1.91220   1.91895
 Alpha virt. eigenvalues --    1.92060   1.93456   1.93890   1.94012   1.94322
 Alpha virt. eigenvalues --    1.94771   1.95419   1.96301   1.96918   1.97246
 Alpha virt. eigenvalues --    1.97619   1.98175   1.98929   1.99887   2.00151
 Alpha virt. eigenvalues --    2.00411   2.00859   2.01108   2.01825   2.02027
 Alpha virt. eigenvalues --    2.02798   2.03177   2.03933   2.04479   2.05046
 Alpha virt. eigenvalues --    2.05335   2.05801   2.06497   2.07086   2.07520
 Alpha virt. eigenvalues --    2.08003   2.08474   2.08740   2.09322   2.09814
 Alpha virt. eigenvalues --    2.10171   2.10418   2.11102   2.11659   2.12396
 Alpha virt. eigenvalues --    2.12632   2.13125   2.13839   2.14168   2.14885
 Alpha virt. eigenvalues --    2.15349   2.16482   2.17316   2.18386   2.18974
 Alpha virt. eigenvalues --    2.19510   2.19800   2.20868   2.21527   2.21883
 Alpha virt. eigenvalues --    2.22042   2.22719   2.23044   2.23692   2.24405
 Alpha virt. eigenvalues --    2.24707   2.25079   2.25504   2.26370   2.26599
 Alpha virt. eigenvalues --    2.27174   2.28015   2.28919   2.29269   2.29372
 Alpha virt. eigenvalues --    2.29824   2.30319   2.30907   2.31475   2.32653
 Alpha virt. eigenvalues --    2.32883   2.33074   2.33742   2.34711   2.34869
 Alpha virt. eigenvalues --    2.35187   2.36759   2.36882   2.37369   2.37893
 Alpha virt. eigenvalues --    2.38694   2.39009   2.39475   2.39599   2.39828
 Alpha virt. eigenvalues --    2.40677   2.41058   2.41816   2.42546   2.42977
 Alpha virt. eigenvalues --    2.43259   2.43607   2.43856   2.44443   2.45030
 Alpha virt. eigenvalues --    2.45745   2.47146   2.47334   2.47734   2.48216
 Alpha virt. eigenvalues --    2.48596   2.48882   2.49358   2.50214   2.50504
 Alpha virt. eigenvalues --    2.50842   2.51134   2.51608   2.51873   2.52431
 Alpha virt. eigenvalues --    2.53016   2.53465   2.54329   2.54830   2.55395
 Alpha virt. eigenvalues --    2.55796   2.56579   2.57211   2.57451   2.57969
 Alpha virt. eigenvalues --    2.58875   2.59231   2.59371   2.60124   2.60355
 Alpha virt. eigenvalues --    2.60548   2.60915   2.61230   2.61813   2.62749
 Alpha virt. eigenvalues --    2.62966   2.63372   2.63974   2.64257   2.64699
 Alpha virt. eigenvalues --    2.65239   2.66126   2.66268   2.66549   2.66836
 Alpha virt. eigenvalues --    2.66886   2.67444   2.68012   2.68253   2.68515
 Alpha virt. eigenvalues --    2.68926   2.69193   2.69851   2.70202   2.70652
 Alpha virt. eigenvalues --    2.71080   2.71905   2.72217   2.72478   2.73196
 Alpha virt. eigenvalues --    2.73499   2.73982   2.74065   2.75392   2.75596
 Alpha virt. eigenvalues --    2.76375   2.76389   2.77442   2.77690   2.77979
 Alpha virt. eigenvalues --    2.78360   2.79087   2.79745   2.80125   2.80997
 Alpha virt. eigenvalues --    2.81955   2.82592   2.82784   2.82959   2.83189
 Alpha virt. eigenvalues --    2.83565   2.84771   2.85183   2.85474   2.85742
 Alpha virt. eigenvalues --    2.86572   2.86879   2.87815   2.88760   2.89365
 Alpha virt. eigenvalues --    2.89444   2.89829   2.91132   2.91265   2.91921
 Alpha virt. eigenvalues --    2.92412   2.92927   2.93386   2.93977   2.94442
 Alpha virt. eigenvalues --    2.95952   2.96243   2.96445   2.96702   2.97379
 Alpha virt. eigenvalues --    2.98117   2.98556   2.98931   2.99836   3.00587
 Alpha virt. eigenvalues --    3.01141   3.01809   3.02616   3.02896   3.03696
 Alpha virt. eigenvalues --    3.03941   3.04556   3.05134   3.06226   3.06610
 Alpha virt. eigenvalues --    3.07399   3.07601   3.07952   3.09563   3.09881
 Alpha virt. eigenvalues --    3.09991   3.10523   3.11271   3.11655   3.12603
 Alpha virt. eigenvalues --    3.12778   3.13472   3.13795   3.14834   3.15079
 Alpha virt. eigenvalues --    3.15794   3.16474   3.16752   3.16915   3.17564
 Alpha virt. eigenvalues --    3.18111   3.18514   3.19186   3.19626   3.20043
 Alpha virt. eigenvalues --    3.20505   3.20715   3.21184   3.21528   3.21949
 Alpha virt. eigenvalues --    3.22474   3.22960   3.23193   3.24087   3.24149
 Alpha virt. eigenvalues --    3.24774   3.25164   3.25505   3.25849   3.26281
 Alpha virt. eigenvalues --    3.26361   3.27176   3.27496   3.28450   3.28923
 Alpha virt. eigenvalues --    3.29175   3.29545   3.30115   3.30417   3.30595
 Alpha virt. eigenvalues --    3.31791   3.31907   3.32517   3.32852   3.33477
 Alpha virt. eigenvalues --    3.33918   3.34204   3.34329   3.34803   3.35056
 Alpha virt. eigenvalues --    3.35402   3.35718   3.35941   3.36542   3.36886
 Alpha virt. eigenvalues --    3.37476   3.37883   3.38188   3.38886   3.39549
 Alpha virt. eigenvalues --    3.40095   3.40228   3.40482   3.41157   3.41461
 Alpha virt. eigenvalues --    3.41851   3.42202   3.42522   3.43401   3.43828
 Alpha virt. eigenvalues --    3.43902   3.44948   3.45054   3.45504   3.45748
 Alpha virt. eigenvalues --    3.46224   3.46987   3.47646   3.47696   3.48592
 Alpha virt. eigenvalues --    3.49079   3.49312   3.50752   3.50926   3.51113
 Alpha virt. eigenvalues --    3.52581   3.52974   3.53660   3.54117   3.54255
 Alpha virt. eigenvalues --    3.55656   3.56230   3.57463   3.58092   3.58323
 Alpha virt. eigenvalues --    3.59128   3.59599   3.59967   3.60483   3.60963
 Alpha virt. eigenvalues --    3.61713   3.62291   3.62737   3.62864   3.65053
 Alpha virt. eigenvalues --    3.65726   3.66105   3.66953   3.67812   3.68958
 Alpha virt. eigenvalues --    3.71160   3.71935   3.73961   3.74361   3.75304
 Alpha virt. eigenvalues --    3.75967   3.76725   3.77622   3.78166   3.78530
 Alpha virt. eigenvalues --    3.79458   3.80051   3.80522   3.81014   3.81828
 Alpha virt. eigenvalues --    3.82564   3.83464   3.83657   3.85098   3.85175
 Alpha virt. eigenvalues --    3.86576   3.87346   3.87452   3.89814   3.90194
 Alpha virt. eigenvalues --    3.90868   3.91770   3.92709   3.93212   3.93691
 Alpha virt. eigenvalues --    3.94205   3.94307   3.95323   3.95903   3.97153
 Alpha virt. eigenvalues --    3.97397   3.98737   3.99790   4.00705   4.01453
 Alpha virt. eigenvalues --    4.02056   4.02735   4.03182   4.03857   4.05348
 Alpha virt. eigenvalues --    4.06085   4.07344   4.07407   4.07929   4.08894
 Alpha virt. eigenvalues --    4.09145   4.10743   4.14552   4.15886   4.18103
 Alpha virt. eigenvalues --    4.19404   4.20232   4.20894   4.21920   4.23839
 Alpha virt. eigenvalues --    4.24647   4.25672   4.25913   4.27162   4.28080
 Alpha virt. eigenvalues --    4.29026   4.29792   4.31502   4.32277   4.32696
 Alpha virt. eigenvalues --    4.35115   4.35511   4.36446   4.38050   4.39023
 Alpha virt. eigenvalues --    4.40234   4.41153   4.41828   4.42754   4.44763
 Alpha virt. eigenvalues --    4.45945   4.46485   4.48821   4.49866   4.50970
 Alpha virt. eigenvalues --    4.51999   4.54515   4.55580   4.56531   4.58190
 Alpha virt. eigenvalues --    4.60285   4.61709   4.62008   4.62262   4.64141
 Alpha virt. eigenvalues --    4.64435   4.66423   4.66656   4.68618   4.70141
 Alpha virt. eigenvalues --    4.70542   4.72579   4.72829   4.74881   4.75600
 Alpha virt. eigenvalues --    4.76316   4.77603   4.81146   4.81723   4.82666
 Alpha virt. eigenvalues --    4.84074   4.86550   4.90535   4.93694   4.97908
 Alpha virt. eigenvalues --    5.12816   5.15445   5.17110   5.18661   5.19481
 Alpha virt. eigenvalues --    5.20860   5.21463   5.21937   5.21982   5.22425
 Alpha virt. eigenvalues --    5.24091   5.24306   5.26045   5.26205   5.26341
 Alpha virt. eigenvalues --    5.26572   5.26776   5.27224   5.28124   5.29219
 Alpha virt. eigenvalues --    5.29780   5.31418   5.31790   5.32734   5.34933
 Alpha virt. eigenvalues --    5.35151   5.35473   5.36229   5.36980   5.38599
 Alpha virt. eigenvalues --    5.38870   5.39333   5.39878   5.40321   5.42231
 Alpha virt. eigenvalues --    5.43156   5.43443   5.45167   5.46168   5.46623
 Alpha virt. eigenvalues --    5.47165   5.47770   5.48518   5.48981   5.49889
 Alpha virt. eigenvalues --    5.50208   5.50637   5.51651   5.51750   5.53147
 Alpha virt. eigenvalues --    5.54407   5.56313   5.58308   5.65567   5.66548
 Alpha virt. eigenvalues --    5.70016   5.70830   5.71340   5.71733   5.72311
 Alpha virt. eigenvalues --    5.73037   5.74673   5.76418   5.76949   5.78560
 Alpha virt. eigenvalues --    5.79383   5.79909   5.80352   5.81641   5.82769
 Alpha virt. eigenvalues --    5.82961   5.83371   5.84295   5.84693   5.85593
 Alpha virt. eigenvalues --    5.87827   5.88011   5.89161   5.89344   5.89502
 Alpha virt. eigenvalues --    5.90190   5.92032   5.93939   5.95030   5.97352
 Alpha virt. eigenvalues --    5.99451   6.02038   6.04529   6.06923   6.11826
 Alpha virt. eigenvalues --    6.12715   6.14491   6.15999   6.17727   6.18426
 Alpha virt. eigenvalues --    6.22845   6.25559   6.26372   6.26617   6.28506
 Alpha virt. eigenvalues --    6.29240   6.31833   6.33209   6.38169   6.41395
 Alpha virt. eigenvalues --    6.44252   6.44726   6.44780   6.45422   6.45899
 Alpha virt. eigenvalues --    6.48171   6.49970   6.50717   6.51611   6.52722
 Alpha virt. eigenvalues --    6.53828   6.55722   6.58226   6.60308   6.63173
 Alpha virt. eigenvalues --    6.65328   6.65744   6.66353   6.67422   6.69510
 Alpha virt. eigenvalues --    6.69595   6.69980   6.71629   6.72172   6.72328
 Alpha virt. eigenvalues --    6.74981   6.76464   6.77165   6.78016   6.78786
 Alpha virt. eigenvalues --    6.79531   6.80760   6.82156   6.82844   6.83071
 Alpha virt. eigenvalues --    6.84366   6.86781   6.87393   6.90408   6.93387
 Alpha virt. eigenvalues --    6.94687   6.95283   6.97043   6.98247   6.98794
 Alpha virt. eigenvalues --    7.00291   7.01289   7.04512   7.07506   7.08846
 Alpha virt. eigenvalues --    7.10006   7.10721   7.11013   7.11939   7.13364
 Alpha virt. eigenvalues --    7.14571   7.14712   7.16483   7.17966   7.18941
 Alpha virt. eigenvalues --    7.20636   7.21274   7.23325   7.25285   7.25911
 Alpha virt. eigenvalues --    7.29553   7.33253   7.37512   7.38390   7.41592
 Alpha virt. eigenvalues --   22.36737  22.53835  22.56985  22.58852  22.59240
 Alpha virt. eigenvalues --   22.59906  22.63916  22.66151  22.66948  22.68932
 Alpha virt. eigenvalues --   22.70351  22.77668  22.82885  22.98064  23.13768
 Alpha virt. eigenvalues --   23.18265  23.37827  23.59025  43.96756  43.98380
 Alpha virt. eigenvalues --   44.01179  44.02120  44.08716  44.11775  44.15170
 Alpha virt. eigenvalues --   44.23832  44.26653  44.31314  44.34577  44.36435
 Alpha virt. eigenvalues --   44.45013  44.53460
          Condensed to atoms (all electrons):
 Mulliken charges:
               1
     1  O   -0.514241
     2  Ti   1.149754
     3  O   -0.334010
     4  O   -0.654797
     5  O   -0.586961
     6  C   -0.166799
     7  C   -0.025451
     8  C   -0.169075
     9  C   -0.104884
    10  O   -0.519985
    11  C   -0.029940
    12  C   -0.163052
    13  O   -0.441735
    14  C   -0.075344
    15  C   -0.137540
    16  O   -0.553986
    17  H    0.189957
    18  H    0.182460
    19  H    0.149186
    20  H    0.170887
    21  H    0.115561
    22  H    0.151000
    23  H    0.154039
    24  H    0.182860
    25  H    0.176319
    26  H    0.160227
    27  H    0.160663
    28  H    0.144368
    29  H    0.105114
    30  O   -0.525049
    31  H    0.388942
    32  H    0.342450
    33  H    0.344515
    34  H    0.442306
    35  O   -0.563413
    36  H    0.402149
    37  C    0.243516
    38  O   -0.580969
    39  C   -0.229577
    40  C    0.192716
    41  C   -0.146391
    42  C   -0.158977
    43  C   -0.189954
    44  C    0.040893
    45  H    0.223750
    46  C    0.355911
    47  H    0.179708
    48  O   -0.380396
    49  O   -0.420271
    50  H    0.366232
    51  H    0.159776
    52  H    0.143731
    53  H    0.157599
    54  O   -0.503216
    55  C   -0.143324
    56  C   -0.082276
    57  O   -0.531377
    58  H    0.415599
    59  H    0.165369
    60  H    0.153741
    61  H    0.351998
    62  H    0.164974
    63  H    0.154695
    64  H    0.171167
    65  H    0.178857
 Sum of Mulliken charges =  -0.00000
 Mulliken charges with hydrogens summed into heavy atoms:
               1
     1  O   -0.098642
     2  Ti   1.149754
     3  O   -0.334010
     4  O   -0.654797
     5  O   -0.586961
     6  C    0.154091
     7  C    0.224031
     8  C    0.203342
     9  C    0.215189
    10  O   -0.175470
    11  C    0.275100
    12  C    0.196128
    13  O    0.000571
    14  C    0.242031
    15  C    0.121751
    16  O   -0.165044
    30  O   -0.182599
    35  O   -0.563413
    37  C    0.243516
    38  O   -0.178820
    39  C   -0.050720
    40  C    0.192716
    41  C    0.024776
    42  C    0.064773
    43  C   -0.010246
    44  C    0.040893
    46  C    0.355911
    48  O   -0.380396
    49  O   -0.054039
    54  O   -0.503216
    55  C    0.176345
    56  C    0.236835
    57  O   -0.179379
 Electronic spatial extent (au):  <R**2>=          63180.6023
 Charge=             -0.0000 electrons
 Dipole moment (field-independent basis, Debye):
    X=              1.2300    Y=              1.9124    Z=              3.5234  Tot=              4.1934
 Quadrupole moment (field-independent basis, Debye-Ang):
   XX=           -170.7766   YY=           -236.7637   ZZ=           -183.6475
   XY=             10.6039   XZ=             14.8993   YZ=            -27.2922
 Traceless Quadrupole moment (field-independent basis, Debye-Ang):
   XX=             26.2860   YY=            -39.7011   ZZ=             13.4151
   XY=             10.6039   XZ=             14.8993   YZ=            -27.2922
 Octapole moment (field-independent basis, Debye-Ang**2):
  XXX=          -2681.5967  YYY=           3491.0831  ZZZ=            245.2612  XYY=          -1185.2950
  XXY=            991.1390  XXZ=             97.2306  XZZ=           -910.7861  YZZ=            893.0310
  YYZ=            349.8691  XYZ=           -148.8067
 Hexadecapole moment (field-independent basis, Debye-Ang**3):
 XXXX=         -34608.6667 YYYY=         -38560.5137 ZZZZ=          -6284.6279 XXXY=          14957.9305
 XXXZ=           -289.9976 YYYX=          18050.8453 YYYZ=          -3684.8594 ZZZX=            395.1391
 ZZZY=          -1445.0863 XXYY=         -12717.7462 XXZZ=          -6912.5918 YYZZ=          -6047.0494
 XXYZ=          -1218.5478 YYXZ=           1543.8867 ZZXY=           4461.2511
 N-N= 4.748489385070D+03 E-N=-1.563359442265D+04  KE= 2.599021875921D+03
   1 Symmetry operations used in ECPInt.
 ECPInt:  NShTT=  122760 NPrTT=  378005 LenC2=   99887 LenP2D=  205429.
 LDataN:  DoStor=T MaxTD1= 7 Len=  274
 D1PCM: PCM CHGder 1st derivatives, ID1Alg=3 FixD1E=F DoIter=F DoCFld=F I1PDM=0.
 Calling FoFJK, ICntrl=      2127 FMM=T ISym2X=0 I1Cent= 0 IOpClX= 0 NMat=1 NMatS=1 NMatT=0.
 -------------------------------------------------------------------
 Center     Atomic                   Forces (Hartrees/Bohr)
 Number     Number              X              Y              Z
 -------------------------------------------------------------------
      1        8          -0.000003968    0.000003243   -0.000014297
      2       22          -0.000016365    0.000015873    0.000018869
      3        8           0.000178311   -0.000655508   -0.000263409
      4        8           0.000003861   -0.000007947   -0.000006707
      5        8           0.000002883   -0.000000029   -0.000020250
      6        6          -0.000005719    0.000000302    0.000011787
      7        6           0.000003513    0.000004486   -0.000000241
      8        6           0.000004557    0.000003770   -0.000004259
      9        6           0.000000416    0.000000359    0.000003199
     10        8          -0.000002241    0.000001150   -0.000000936
     11        6          -0.000000587    0.000004125    0.000001481
     12        6          -0.000001713    0.000005363    0.000002158
     13        8           0.000013631   -0.000006135   -0.000014994
     14        6          -0.000003758   -0.000006855    0.000006430
     15        6           0.000002898   -0.000001839   -0.000005753
     16        8          -0.000000424   -0.000005526   -0.000007471
     17        1          -0.000000564   -0.000001727   -0.000001018
     18        1          -0.000001136    0.000001437    0.000001122
     19        1          -0.000000603    0.000000203   -0.000001680
     20        1           0.000001264    0.000001290   -0.000001940
     21        1          -0.000001351    0.000000329   -0.000000864
     22        1          -0.000000070    0.000000685    0.000002281
     23        1          -0.000000401    0.000000587    0.000000993
     24        1           0.000000114    0.000000140    0.000000312
     25        1           0.000000560    0.000000778    0.000001112
     26        1           0.000002253   -0.000004770   -0.000003343
     27        1          -0.000001494    0.000002523   -0.000003212
     28        1          -0.000003997    0.000003376   -0.000003105
     29        1           0.000005046   -0.000004269   -0.000002680
     30        8          -0.000007015   -0.000001087    0.000001832
     31        1          -0.000000835    0.000001886    0.000001170
     32        1           0.000001841    0.000001286   -0.000002391
     33        1           0.000000418   -0.000000925   -0.000001301
     34        1          -0.000009744    0.000002047    0.000007216
     35        8          -0.000020063   -0.000029897    0.000008214
     36        1           0.000384205   -0.001062139   -0.001043238
     37        6          -0.000155222    0.000683393    0.000303509
     38        8          -0.000369015    0.001057036    0.000996462
     39        6           0.000002950    0.000001475   -0.000002223
     40        6          -0.000019374   -0.000013128    0.000024578
     41        6           0.000003425   -0.000000803   -0.000004017
     42        6           0.000007062    0.000000951   -0.000003942
     43        6           0.000001419   -0.000002382    0.000005318
     44        6          -0.000007538    0.000005085   -0.000005642
     45        1          -0.000001006   -0.000000909   -0.000003318
     46        6          -0.000000069   -0.000006374   -0.000005611
     47        1          -0.000000084   -0.000000395   -0.000000699
     48        8           0.000002659    0.000003139    0.000005782
     49        8           0.000001063   -0.000000032    0.000000760
     50        1          -0.000000022    0.000001459    0.000000192
     51        1           0.000004552   -0.000000555    0.000001077
     52        1           0.000000969   -0.000000398    0.000003622
     53        1          -0.000000535    0.000001087   -0.000001664
     54        8          -0.000012284   -0.000001717   -0.000006997
     55        6           0.000010619    0.000008702    0.000007749
     56        6          -0.000007991   -0.000010604   -0.000002641
     57        8           0.000010466    0.000007280   -0.000002835
     58        1           0.000007898   -0.000000751    0.000022465
     59        1          -0.000000235    0.000003385    0.000000943
     60        1          -0.000000074    0.000002703   -0.000001097
     61        1          -0.000001348    0.000001342    0.000002259
     62        1          -0.000000715   -0.000000989   -0.000002289
     63        1          -0.000001782   -0.000000860    0.000003655
     64        1          -0.000000845   -0.000003445   -0.000000281
     65        1           0.000001331   -0.000000281   -0.000000201
 -------------------------------------------------------------------
 Cartesian Forces:  Max     0.001062139 RMS     0.000171451

 GradGradGradGradGradGradGradGradGradGradGradGradGradGradGradGradGradGrad
 Berny optimization.
 FormGI is forming the generalized inverse of G from B-inverse, IUseBI=4.
 Internal  Forces:  Max     0.001372636 RMS     0.000085982
 Search for a saddle point.
 Step number   1 out of a maximum of  381
 All quantities printed in internal units (Hartrees-Bohrs-Radians)
 Swapping is turned off.
 Second derivative matrix not updated -- first step.
 ITU=  0
     Eigenvalues ---   -0.07493   0.00053   0.00111   0.00176   0.00243
     Eigenvalues ---    0.00250   0.00261   0.00272   0.00283   0.00348
     Eigenvalues ---    0.00349   0.00370   0.00418   0.00440   0.00499
     Eigenvalues ---    0.00543   0.00591   0.00609   0.00740   0.00797
     Eigenvalues ---    0.00959   0.01030   0.01382   0.01459   0.01656
     Eigenvalues ---    0.01737   0.01795   0.01843   0.01931   0.01983
     Eigenvalues ---    0.02166   0.02318   0.02411   0.02494   0.02712
     Eigenvalues ---    0.02882   0.02920   0.03089   0.03378   0.03490
     Eigenvalues ---    0.03714   0.04199   0.04408   0.04462   0.04512
     Eigenvalues ---    0.04552   0.04734   0.04749   0.04806   0.04822
     Eigenvalues ---    0.04848   0.04941   0.05043   0.05136   0.05153
     Eigenvalues ---    0.05314   0.05479   0.05909   0.06013   0.06278
     Eigenvalues ---    0.06387   0.06582   0.06874   0.07061   0.07150
     Eigenvalues ---    0.07282   0.07427   0.07878   0.07937   0.08168
     Eigenvalues ---    0.08343   0.08589   0.08897   0.09102   0.09370
     Eigenvalues ---    0.09724   0.09949   0.10085   0.10087   0.10229
     Eigenvalues ---    0.10357   0.10524   0.10661   0.10887   0.11297
     Eigenvalues ---    0.11464   0.11604   0.11786   0.11864   0.12049
     Eigenvalues ---    0.12181   0.12362   0.12601   0.12660   0.12925
     Eigenvalues ---    0.13422   0.13947   0.14274   0.14575   0.15000
     Eigenvalues ---    0.15101   0.15210   0.16053   0.16596   0.16827
     Eigenvalues ---    0.16983   0.17173   0.17667   0.17835   0.18291
     Eigenvalues ---    0.18868   0.19069   0.19371   0.19513   0.20401
     Eigenvalues ---    0.21015   0.21308   0.21827   0.22289   0.23004
     Eigenvalues ---    0.23401   0.24621   0.24899   0.25713   0.25909
     Eigenvalues ---    0.26112   0.26448   0.26608   0.27053   0.27889
     Eigenvalues ---    0.29258   0.29405   0.29686   0.29852   0.30444
     Eigenvalues ---    0.30979   0.32016   0.32201   0.32437   0.32690
     Eigenvalues ---    0.32885   0.32978   0.33049   0.33109   0.33204
     Eigenvalues ---    0.33272   0.33394   0.33410   0.33879   0.33983
     Eigenvalues ---    0.34170   0.34230   0.34372   0.34445   0.34569
     Eigenvalues ---    0.34786   0.35156   0.35994   0.36098   0.36586
     Eigenvalues ---    0.36708   0.36760   0.37234   0.37391   0.37886
     Eigenvalues ---    0.38221   0.38296   0.38803   0.38876   0.40553
[...]
 0001837,-0.00003068,0.00001214,-0.00000274,-0.00001200,-0.00007756,0.0
 0000063,-0.00000229,-0.00006351,0.00004053,-0.00000310,0.00001792,0.00
 001038,-0.00000352,0.00001029,-0.00000542,0.00002285,-0.00009872,0.000
 02422,0.00001743,-0.00003853,-0.00005431,-0.00000247,0.00001359,0.0000
 0534,0.00000146,0.00000220,-0.00000063,0.00059397,0.00002041,-0.000153
 81,-0.00002311,-0.00003282,0.00005212,0.00001791,-0.00006479,-0.000113
 72,0.00000589,0.00004783,-0.00016165,-0.00003048,0.00003676,0.00030428
 ,-0.00000165,0.00000011,-0.00000400,-0.00000152,-0.00000581,0.00003210
 ,0.00000758,-0.00000211,0.00000599,-0.00000271,0.00001349,-0.00002925,
 0.00000682,-0.00000299,0.00000849,-0.00000274,0.00000058,0.00001546,-0
 .00002575,-0.00000508,-0.00009182,-0.00003753,0.00000668,-0.00003500,0
 .00000094,-0.00000212,0.00000322,0.00008935,-0.00001289,0.00008737,0.0
 0004232,-0.00001206,0.00002036,-0.00000617,-0.00000187,0.00000139,-0.0
 0000244,-0.00000192,0.00000086,-0.00000449,0.00000229,0.00000253,-0.00
 000447,0.00000257,0.00000317,0.00153028,0.01097367,0.00229239,-0.11029
 862,-0.25371541,-0.00129455,-0.00288460,-0.00831970,0.00288465,-0.0011
 4690,-0.00047462,-0.00246574,-0.00000297,-0.00001194,-0.00002235,-0.00
 009681,0.00062688,-0.00022169,0.00010572,0.00000993,-0.00042328,0.0001
 2288,0.00121065,0.00013443,-0.00959249,-0.01757162,-0.00147110,0.12135
 308,0.26684374,0.00060385,0.00057900,-0.00027529,-0.00148010,-0.001817
 25,0.00084507,0.00006483,-0.00004520,-0.00023329,0.00062546,-0.0004870
 9,0.00009050,-0.00008457,0.00079807,0.00015389,0.00002875,-0.00034036,
 0.00007805,0.00007643,-0.00002701,-0.00004097,-0.00021192,0.00004393,-
 0.00008116,-0.00000347,-0.00004129,-0.00004085,0.00005454,0.00003241,0
 .00002843,-0.00010114,0.00003765,-0.00024979,-0.00001729,-0.00007867,0
 .00007262,-0.00026120,0.00026031,0.00064039,-0.00005363,0.00000478,0.0
 0001232,-0.00001055,0.00000195,0.00001661,0.00003273,-0.00004148,-0.00
 007139,0.00000703,-0.00000796,0.00001138,0.00005330,0.00001772,-0.0000
 0103,0.00000001,0.00000733,-0.00000021,-0.00000004,-0.00000435,-0.0000
 0018,-0.00001412,-0.00000307,0.00000878,-0.00001076,-0.00000055,0.0000
 3317,0.00003819,-0.00000755,0.00004696,0.00002028,0.00000786,0.0000111
 2,-0.00001444,0.00001705,-0.00000915,0.00001023,0.00008741,-0.00001452
 ,-0.00000266,0.00005092,-0.00002637,-0.00001376,-0.00000067,0.00001319
 ,0.00000127,-0.00001361,0.00000829,-0.00004738,0.00009842,-0.00000188,
 -0.00002796,0.00008443,0.00010942,0.00000418,-0.00001322,-0.00000889,-
 0.00000829,-0.00000746,0.00000101,0.00103722,-0.00017026,-0.00056760,-
 0.00001324,0.00004348,-0.00014686,-0.00005304,0.00015694,0.00023262,0.
 ,-0.00015399,0.00032047,-0.00008340,-0.00014056,-0.00070556,-0.0000146
 0,0.00000193,0.00001073,0.00002265,0.00001527,-0.00004570,-0.00001106,
 0.00000311,-0.00000874,-0.00001797,-0.00003491,0.00000058,-0.00000918,
 0.00000708,-0.00001241,-0.00000048,0.00000242,-0.00000501,0.00004012,0
 .00002231,0.00008215,0.00004140,-0.00000587,-0.00000337,-0.00000119,0.
 00000104,-0.00000327,-0.00006016,-0.00001956,-0.00002532,-0.00003097,0
 .00001027,-0.00000573,0.00000315,0.00000151,-0.00000038,0.00000617,0.0
 0000389,-0.00000263,0.00000889,-0.00000714,-0.00000716,0.00000985,-0.0
 0000542,-0.00000792,0.02041022,0.01574183,-0.00420388,-0.00501903,-0.0
 0096516,-0.05035999,-0.01358495,-0.02619394,0.00461628,-0.00397934,-0.
 00582796,-0.00673518,0.00005719,-0.00001250,0.00018132,-0.00010893,0.0
 0098051,0.00113229,0.00097750,0.00040118,0.00083292,-0.00032078,0.0009
 9884,-0.00093005,0.00707885,0.01461706,0.00163308,-0.00564195,0.001334
 98,0.05361111,-0.00008105,-0.00003500,-0.00010737,0.00005081,0.0000599
 4,0.00043063,-0.00014256,0.00006909,0.00012258,-0.00006746,0.00005444,
 -0.00005108,0.00003548,-0.00009088,-0.00005097,-0.00000112,0.00004811,
 0.00000232,-0.00001716,0.00000114,-0.00000422,0.00005653,0.00000502,-0
 .00000019,0.00000151,0.00001046,0.00000639,-0.00001306,-0.00000837,-0.
 00000534,0.00000919,-0.00001884,0.00003152,0.00001082,-0.00000268,-0.0
 0000506,-0.00002185,-0.00000830,-0.00003982,0.00010466,0.00001831,-0.0
 0003292,-0.00000230,-0.00001091,0.00001168,-0.00003025,0.00002590,-0.0
 0000560,-0.00000498,0.00000086,-0.00000192,-0.00000395,-0.00000110,0.0
 0000466,-0.00000020,-0.00000207,0.00000001,-0.00000014,0.00000102,0.00
 000041,0.00001159,0.00000312,0.00000269,0.00000030,0.00000238,-0.00000
 617,-0.00000475,0.00000284,-0.00000456,-0.00000130,-0.00000125,-0.0000
 0340,-0.00000152,0.00000024,0.00000106,0.00000077,-0.00000882,-0.00000
 439,0.00000277,0.00000823,0.00000137,0.00000433,0.00000007,-0.00000034
 ,-0.00000705,-0.00000468,-0.00000164,0.00000842,-0.00001071,0.00000230
 ,0.00001647,-0.00001612,0.00000291,-0.00000051,0.00000286,0.00000003,0
 .00000157,0.00000188,-0.00000058,-0.00000778,0.00000472,0.00000946,-0.
 00041910,-0.00020183,-0.00000259,0.00004093,-0.00011029,-0.00007618,0.
 00122994,0.00004284,-0.00080399,-0.00056949,0.00037115,-0.00085517,-0.
 00028263,0.00610756,-0.02884915,-0.00481451,0.00260951,-0.00115789,-0.
 06548350,0.01342727,-0.04371036,-0.00131393,0.00002682,0.00033730,0.00
 780943,-0.00530626,0.02453584,-0.00303641,0.00162049,0.00317126,0.0000
 7482,-0.00020410,-0.00006246,0.00101976,-0.00024994,0.00065655,0.00078
 070,-0.00089522,-0.00091066,-0.00044668,-0.00007746,0.00070326,-0.0001
 5878,0.00004441,-0.00002829,0.00001106,0.00000114,-0.00000134,-0.00000
 970,-0.00000535,-0.00000324,-0.00001249,0.00000875,-0.00000216,-0.0000
 2714,0.00001042,0.00000828,0.00006618,0.00005077,-0.00007274,-0.000036
 76,0.00000592,0.00001515,0.00000722,-0.00000255,0.00000406,0.00000642,
 -0.00000195,-0.00001219,0.00007941,0.00004577,0.00014944,-0.00000060,0
 .00000091,0.00000027,0.00000094,-0.00000124,-0.00000464,-0.00000521,0.
 00000275,0.00001180,0.00000189,-0.00000295,-0.00000189,0.00000625,0.00
 000134,-0.00000354,0.06455077,0.00002040,0.00000135,0.00003121,-0.0000
 1305,-0.00000243,-0.00010423,0.00010695,-0.00007846,-0.00002456,0.0000
 1262,-0.00001207,0.00001043,-0.00002685,-0.00000655,-0.00001656,0.0000
 0594,0.00001387,-0.00001370,0.00000603,0.00000067,-0.00000212,-0.00001
 399,-0.00000094,0.00000084,-0.00000134,-0.00000187,-0.00000209,0.00000
 427,0.00000148,0.00000178,-0.00000181,0.00000479,-0.00000725,-0.000002
 72,0.00000084,0.00000100,0.00000481,0.00000128,0.00000966,-0.00004569,
 -0.00000691,0.00001682,0.00000395,0.00000213,-0.00000904,0.00001241,-0
 .00000913,0.00000514,0.00000164,-0.00000039,0.00000054,0.00000028,0.00
 000035,-0.00000100,0.00000016,-0.00000001,0.00000013,0.00000019,-0.000
 00016,0.00000015,-0.00000385,-0.00000055,-0.00000043,-0.00000035,-0.00
 000074,0.00000148,0.00000113,-0.00000067,0.00000081,0.00000028,0.00000
 024,0.00000082,0.00000022,-0.00000007,-0.00000029,-0.00000175,0.000000
 97,0.00000404,0.00000348,-0.00000265,0.00000513,-0.00000157,-0.0000000
 2,0.00000054,-0.00000299,0.00000052,0.00000040,-0.00000229,-0.00000207
 ,0.00000266,-0.00000355,0.00000303,-0.00000283,0.00000031,-0.00000102,
 -0.00000064,-0.00000075,-0.00000005,-0.00000010,0.00000223,-0.00000115
 ,-0.00000195,0.00009006,0.00001794,-0.00010101,0.00001560,0.00000676,0
 .00001705,-0.00039864,0.00016797,0.00038789,0.00004153,-0.00015368,0.0
 0003114,0.00087665,0.00249351,0.00754172,0.00284370,0.00690686,0.00139
 071,0.01334037,-0.05347425,0.06093851,0.00008372,-0.00088615,-0.000249
 07,0.00007695,0.00404357,-0.00185077,0.00148324,0.00698140,0.00072986,
 -0.00020948,-0.00088465,-0.00013693,0.00010909,0.00042074,-0.00008826,
 -0.00102847,-0.00388202,-0.00070421,-0.00004884,-0.00027852,-0.0000524
 5,-0.00003505,0.00002446,0.00002286,0.00000660,0.00001358,0.00000072,0
 .00000262,0.00000078,0.00000298,0.00000452,-0.00000251,0.00000253,0.00
 001062,-0.00000678,-0.00000208,-0.00001527,-0.00001290,0.00001876,0.00
 000824,0.00000077,-0.00000365,-0.00000142,0.00000019,-0.00000063,-0.00
 000176,-0.00000017,0.00000225,-0.00003115,-0.00000573,-0.00004592,0.00
 000039,-0.00000009,0.00000021,-0.00000026,0.00000038,0.00000100,0.0000
 0074,-0.00000025,-0.00000163,-0.00000032,0.00000002,-0.00000076,-0.000
 00161,-0.00000059,0.00000083,-0.01625274,0.04256728,-0.00006607,-0.000
 02527,-0.00009393,0.00007530,-0.00001257,0.00026509,-0.00019121,0.0001
 0503,0.00007072,-0.00004816,0.00003993,-0.00003306,-0.00001539,-0.0000
 4831,-0.00004884,0.00000713,0.00003422,0.00000088,0.00000757,0.0000309
 2,0.00000735,0.00004694,0.00000437,0.00000059,0.00000164,0.00000862,0.
 00000495,-0.00001092,-0.00000696,-0.00000444,0.00000703,-0.00001178,0.
 00002253,0.00000963,-0.00000296,-0.00000274,-0.00001792,-0.00000486,-0
 .00002919,0.00008624,0.00002154,-0.00003964,-0.00000685,-0.00000937,0.
 00001461,-0.00002102,0.00002245,-0.00000843,-0.00000434,0.00000068,-0.
 00000138,-0.00000316,-0.00000071,0.00000393,-0.00000016,-0.00000163,0.
 00000002,-0.00000016,0.00000076,0.00000036,0.00000985,0.00000142,0.000
 00249,0.00000008,0.00000165,-0.00000454,-0.00000350,0.00000220,-0.0000
 0331,-0.00000114,-0.00000050,-0.00000260,-0.00000125,0.00000019,0.0000
 0083,-0.00000496,-0.00000651,-0.00000474,0.00000437,0.00001044,0.00000
 045,-0.00000252,-0.00000499,-0.00000677,-0.00000042,0.00001375,0.00000
 993,-0.00000075,-0.00003077,0.00000010,0.00001084,-0.00001145,0.000004
 19,-0.00000038,0.00000134,0.00000219,0.00000130,0.00000165,-0.00000033
 ,-0.00000373,0.00000356,0.00000728,-0.00038248,-0.00010677,-0.00009550
 ,0.00001782,-0.00006303,-0.00001209,0.00089147,-0.00012220,-0.00000582
 ,-0.00025568,0.00012201,-0.00037387,0.00074445,0.00137361,-0.00448202,
 -0.00132704,0.00136405,0.00143270,-0.04365250,0.06092809,-0.32742661,0
 .00016284,-0.00030245,0.00052855,-0.00518430,0.00434897,-0.01441770,0.
 00389092,0.00057985,-0.00035316,-0.00006752,-0.00014336,-0.00008183,-0
 .00135383,0.00032194,0.00022656,-0.00020964,-0.00084407,0.00072423,0.0
 0043542,-0.00000519,-0.00083342,0.00043088,-0.00007395,-0.00006860,-0.
 00003640,0.00000794,0.00001191,-0.00000294,-0.00000570,-0.00000225,-0.
 00001064,0.00000697,-0.00000318,-0.00002272,0.00000886,0.00000698,0.00
 003628,0.00003782,-0.00005001,-0.00001875,-0.00000460,0.00001176,0.000
 00298,0.00000180,0.00000415,0.00000332,-0.00000223,-0.00001164,0.00006
 101,0.00003948,0.00013339,-0.00000121,0.00000022,-0.00000146,0.0000009
 6,-0.00000091,-0.00000310,-0.00000289,0.00000207,0.00001223,-0.0000007
 5,0.00000013,0.00000217,0.00000387,0.00000209,-0.00000297,0.04627246,-
 0.06678904,0.34451874,0.00008254,0.00002628,0.00017013,-0.00001548,-0.
 00000478,-0.00027987,0.00006540,-0.00005168,-0.00016455,0.00003899,-0.
 00003257,0.00004289,-0.00002293,0.00005220,0.00003593,-0.00000166,-0.0
 0002687,-0.00000212,0.00000491,-0.00001304,-0.00000028,-0.00006077,-0.
 00000590,0.00000174,-0.00000138,-0.00001071,-0.00000679,0.00001342,0.0
 0000881,0.00000588,-0.00000866,0.00001367,-0.00002430,-0.00000864,0.00
 000295,0.00000351,0.00001529,0.00000424,0.00003220,-0.00005853,0.00014
 274,-0.00002272,-0.00006706,-0.00001217,-0.00005097,0.00003392,-0.0000
 4531,0.00007521,0.00000589,-0.00000078,0.00000132,0.00000319,0.0000001
 9,-0.00000578,0.00000022,0.00000207,0.00000005,0.00000036,-0.00000075,
 -0.00000021,-0.00000436,-0.00000256,0.00000475,-0.00000024,-0.00000201
 ,0.00000524,0.00000363,-0.00000221,0.00000298,0.00000097,0.00000057,0.
 00000275,0.00000088,-0.00000024,-0.00000111,0.00000152,0.00000455,0.00
 000406,-0.00000153,-0.00000623,0.00000085,-0.00000064,0.00000201,0.000
 00332,0.00000267,-0.00000140,-0.00000310,-0.00000304,0.00001544,-0.000
 00084,-0.00000444,-0.00000161,-0.00001734,0.00000016,-0.00000185,-0.00
 000105,-0.00000155,-0.00000193,0.00000029,0.00000652,-0.00000369,-0.00
 000773,0.00027479,0.00042741,0.00034325,-0.00000146,0.00002205,-0.0000
 7761,-0.00057233,-0.00063897,-0.00090791,0.00028693,-0.00017156,0.0005
 5460,-0.22243042,0.01196451,0.14016055,0.00785388,0.00014192,-0.003428
 56,-0.01572786,0.00063170,0.01992043,0.00098510,0.00143966,-0.00153106
 ,-0.00360928,0.00276442,-0.00252994,-0.00011165,0.00006171,-0.00093340
 ,0.00031195,-0.00004082,-0.00032209,-0.00004911,-0.00021868,-0.0001885
 0,-0.00073201,-0.00005288,0.00095920,0.00000107,0.00000936,0.00017406,
 -0.00009077,0.00001559,0.00013729,0.00003267,-0.00001631,0.00001401,-0
 .00010417,-0.00008514,0.00000711,0.00001638,-0.00000858,0.00000243,0.0
 0003384,-0.00001095,0.00001249,-0.00004775,-0.00003844,0.00005467,0.00
 002513,-0.00000344,-0.00001184,-0.00000483,0.00000243,-0.00000374,-0.0
 0000457,0.00000080,0.00001020,-0.00009166,-0.00005708,-0.00022782,0.00
 000055,-0.00000068,0.00000006,-0.00000082,0.00000095,0.00000314,0.0000
 0305,-0.00000152,-0.00000884,-0.00000267,0.00000186,0.00000288,-0.0000
 0455,-0.00000127,0.00000275,0.00102496,-0.00103434,-0.00028929,0.23271
 601,-0.00003843,-0.00000339,-0.00005433,-0.00003665,0.00001835,0.00006
 062,0.00022719,-0.00013813,-0.00085812,0.00000406,-0.00000639,-0.00001
 750,0.00002553,-0.00002367,-0.00000769,-0.00000090,0.00000241,-0.00000
 552,-0.00000470,-0.00000051,-0.00000273,0.00002006,0.00000376,-0.00000
 612,-0.00000047,0.00000626,0.00000149,-0.00000429,-0.00000439,-0.00000
 155,0.00000306,-0.00000222,0.00000525,0.00000105,0.00000015,-0.0000004
 4,0.00000027,-0.00000320,-0.00000791,0.00021849,-0.00026535,-0.0001252
 9,0.00001253,0.00000125,0.00002892,-0.00003322,0.00002190,-0.00004895,
 -0.00000251,0.00000011,-0.00000003,0.00000024,0.00000068,0.00000227,0.
 00000021,-0.00000177,-0.00000004,0.00000010,-0.00000043,-0.00000002,0.
 00000508,-0.00000080,0.00000037,-0.00000037,0.00000042,-0.00000136,-0.
 00000050,0.00000053,0.00000001,0.,-0.00000014,-0.00000068,-0.00000002,
 -0.00000010,0.00000051,0.00000034,-0.00000032,0.00000358,-0.00000587,0
 .00000300,0.00000333,0.00000278,0.00000129,0.00000313,0.00000380,-0.00
 000228,-0.00000273,-0.00000010,0.00000076,0.00000389,-0.00000138,0.000
 00771,0.00002247,0.00000030,0.00000019,-0.00000223,0.00000030,0.000001
 30,-0.00000047,-0.00000276,0.00000158,0.00000094,-0.00073263,-0.000296
 37,0.00024190,-0.00014578,0.00016724,0.00023563,-0.00093976,-0.0025411
 9,0.00000233,0.00015685,-0.00008121,-0.00006465,0.01161484,-0.04320507
 ,-0.00429408,-0.00430991,0.00540549,0.00488989,0.00615214,0.00487894,-
 0.00514051,0.00146882,0.00578146,0.00252356,0.00275274,0.00684361,0.00
 185994,0.00015749,-0.00067301,0.00007002,-0.00034824,-0.00002810,0.000
 12829,-0.00029906,-0.00120890,-0.00011587,0.00018670,-0.00027084,-0.00
 031391,0.00002007,0.00020036,-0.00005664,0.00003515,0.00009550,-0.0000
 1879,-0.00001731,-0.00002537,-0.00001168,0.00007964,-0.00000079,0.0000
 5356,-0.00001515,0.00000824,-0.00000690,0.00003481,-0.00000684,-0.0000
 1189,0.00001196,0.00000055,-0.00001152,-0.00000731,0.00000435,0.000000
 65,0.00000197,-0.00000015,-0.00000035,0.00000129,-0.00000237,-0.000000
 22,0.00006175,0.00000669,0.00011201,0.,0.00000018,0.00000079,0.0000000
 3,-0.00000020,-0.00000022,-0.00000058,0.00000102,0.00000066,0.00000345
 ,0.00000014,-0.00000212,0.00000088,-0.00000077,0.00000035,-0.00116687,
 -0.00396155,-0.00080846,-0.01515118,0.02929043,0.00012713,0.00001242,0
 .00029697,0.00021252,-0.00006826,-0.00023254,-0.00015162,0.00005835,0.
 00093939,-0.00000800,-0.00000111,0.00004156,-0.00014870,0.00002979,-0.
 00002866,0.00001483,0.00002638,-0.00000105,0.00002746,0.00003128,0.000
 01603,-0.00007627,-0.00000761,0.00001443,0.00000031,-0.00001342,-0.000
 00960,0.00001698,0.00001087,0.00000873,-0.00000758,0.00000805,-0.00001
 472,-0.00000018,0.00000166,0.00000110,-0.00000748,0.00000441,0.0000202
 3,-0.00035600,0.00025943,0.00003449,-0.00002091,0.00000859,-0.00006808
 ,0.00004179,-0.00004821,0.00008648,0.00001035,-0.00000028,0.00000199,0
 .00000083,-0.00000043,-0.00000609,0.00000022,0.00000162,-0.00000013,0.
 00000090,-0.00000049,0.00000067,-0.00001580,0.00000071,-0.00000149,-0.
 00000025,-0.00000175,0.00000362,0.00000183,-0.00000100,0.00000096,-0.0
 0000024,0.00000057,0.00000162,-0.00000098,0.00000011,-0.00000139,-0.00
 000523,-0.00000574,-0.00000624,0.00001635,0.00000246,0.00000025,-0.000
 00821,-0.00000555,-0.00000743,-0.00002018,0.00001667,0.00000881,-0.000
 00916,-0.00002602,-0.00000274,-0.00000172,-0.00000713,-0.00003444,0.00
 000077,-0.00000139,0.00000155,-0.00000233,-0.00000202,-0.00000010,0.00
 001026,-0.00000291,-0.00000225,-0.00037486,-0.00031222,0.00125009,0.00
 020383,-0.00016218,-0.00059425,0.00211632,-0.00064819,-0.00099711,-0.0
 0024158,0.00021855,0.00065109,0.14043605,-0.00357040,-0.17891633,0.023
 56598,-0.00142675,-0.01423259,-0.00930359,0.00085341,0.01084385,-0.001
 73432,0.00253215,-0.00483118,-0.00233454,0.00180701,0.00055611,-0.0010
 9321,0.00017385,-0.00038304,0.00117764,-0.00017747,-0.00052773,-0.0001
 7202,-0.00018316,-0.00015155,-0.00049182,0.00000635,0.00036918,0.00022
 139,-0.00001803,0.00005122,0.00012641,-0.00001652,0.00004590,0.0000082
 5,-0.00000863,0.00001094,-0.00017567,0.00006108,-0.00000274,0.00002592
 ,-0.00001362,0.00001021,-0.00000008,-0.00004808,-0.00000593,-0.0000504
 4,-0.00001567,0.00002824,0.00002268,-0.00002039,0.00000287,-0.00000717
 ,0.00000834,0.00000025,-0.00000478,-0.00000071,-0.00000177,-0.00023196
 ,-0.00010144,-0.00040366,-0.00000076,-0.00000132,-0.00000311,0.0000002
 3,0.00000045,0.00000141,0.00000102,0.00000006,0.00000507,-0.00001220,0
 .00000516,0.00001123,-0.00000393,0.00000255,-0.00000004,0.00038838,-0.
 00096942,0.00047731,-0.15170286,0.00174520,0.18567413\\-0.00000003,0.,
 0.00000002,0.00000010,-0.00000042,-0.00000068,-0.00000014,0.00000113,-
 0.00000128,-0.00000002,-0.00000028,-0.00000050,-0.00000001,-0.00000034
 ,0.00000073,0.00000004,-0.00000014,0.00000046,0.00000005,-0.00000024,0
 .00000078,0.00000008,-0.00000006,0.00000020,-0.00000003,-0.00000037,0.
 00000050,0.00000007,-0.00000044,0.00000050,0.00000005,-0.00000072,-0.0
 0000074,0.00000007,-0.00000086,-0.00000035,0.00000004,-0.00000080,0.00
 000009,-0.00000008,0.00000087,-0.00000052,-0.00000011,0.00000062,-0.00
 000069,-0.00000006,0.00000039,-0.00000091,0.,-0.00000015,-0.00000012,-
 0.00000002,0.00000021,0.00000025,0.00000005,-0.00000022,0.00000079,0.0
 0000008,-0.00000060,0.00000044,-0.00000005,0.00000047,-0.00000039,0.00
 000009,-0.00000080,-0.00000087,0.00000005,-0.00000067,-0.00000086,0.00
 000012,-0.00000122,-0.00000038,0.00000006,-0.00000086,-0.00000018,0.00
 000009,-0.00000035,0.00000084,0.00000003,0.00000006,0.00000064,0.00000
 006,-0.00000060,0.00000083,-0.00000013,-0.00000018,0.00000063,0.000000
 04,-0.00000014,0.00000124,0.,0.00000012,-0.00000088,0.00000004,-0.0000
 0028,0.00000135,0.00000004,-0.00000021,0.00000056,0.00000015,-0.000000
 89,-0.00000013,0.00000005,0.00000075,0.00000014,0.00000019,-0.00000027
 ,-0.00000028,-0.00000027,0.00000047,0.00000003,-0.00000025,0.00000101,
 0.,-0.00000007,0.00000116,0.00000014,-0.00000015,0.00000085,0.,-0.0000
 0003,0.00000124,0.00000026,0.00000002,0.00000051,0.00000001,-0.0000001
 2,0.00000104,0.00000038,-0.00000012,0.00000077,0.00000029,0.,0.0000001
 4,0.00000019,-0.00000007,0.00000040,0.00000004,-0.00000013,0.00000116,
 0.00000038,0.00000032,-0.00000015,0.00000053,0.00000003,0.00000045,0.0
 0000041,0.,0.00000031,0.00000040,-0.00000007,0.00000112,-0.00000031,-0
 .00000007,0.00000074,-0.00000075,-0.00000013,0.00000118,-0.00000081,0.
 00000001,-0.00000056,-0.00000045,0.00000002,-0.00000055,-0.00000045,0.
 00000011,-0.00000130,-0.00000033,-0.00000004,-0.00000110,0.00000015,0.
 00000002,0.00000027,0.00000030,0.00000015,-0.00000131,-0.00000049,0.00
 000014,-0.00000127,-0.00000022,0.00000017,-0.00000094,0.00000002,-0.00
 000013,-0.00000034,-0.00000060,0.00000006,-0.00000073,-0.00000065,-0.0
 0000017,0.00000158,0.00000026,-0.00000019,0.00000137,0.00000001\\\@


 KNOWLEDGE IS OF TWO KINDS:  WE KNOW A SUBJECT OURSELVES OR WE KNOW 
 WHERE WE CAN FIND INFORMATION UPON IT.

                                    -- SAMUEL JOHNSON
 Job cpu time:       7 days  9 hours 28 minutes 56.4 seconds.
 Elapsed time:       0 days  4 hours 55 minutes 59.2 seconds.
 File lengths (MBytes):  RWF=   7749 Int=      0 D2E=      0 Chk=    150 Scr=      1
 Normal termination of Gaussian 16 at Wed Aug 28 03:39:35 2019.
