 Entering Gaussian System, Link 0=g16
 Initial command:
 /nopt/nrel/apps/gaussian/g16B/g16/l1.exe "/dev/shm/Gau-53262.inp" -scrdir="/dev/shm/"
 Default is to use a total of  36 processors:
                               36 via shared-memory
                                1 via Linda
 Entering Link 1 = /nopt/nrel/apps/gaussian/g16B/g16/l1.exe PID=     53263.
  
 Copyright (c) 1988-2017, Gaussian, Inc.  All Rights Reserved.
  
 This is part of the Gaussian(R) 16 program.  It is based on
 the Gaussian(R) 09 system (copyright 2009, Gaussian, Inc.),
 the Gaussian(R) 03 system (copyright 2003, Gaussian, Inc.),
 the Gaussian(R) 98 system (copyright 1998, Gaussian, Inc.),
 the Gaussian(R) 94 system (copyright 1995, Gaussian, Inc.),
 the Gaussian 92(TM) system (copyright 1992, Gaussian, Inc.),
 the Gaussian 90(TM) system (copyright 1990, Gaussian, Inc.),
 the Gaussian 88(TM) system (copyright 1988, Gaussian, Inc.),
 the Gaussian 86(TM) system (copyright 1986, Carnegie Mellon
 University), and the Gaussian 82(TM) system (copyright 1983,
 Carnegie Mellon University). Gaussian is a federally registered
 trademark of Gaussian, Inc.
  
 This software contains proprietary and confidential information,
 including trade secrets, belonging to Gaussian, Inc.
  
 This software is provided under written license and may be
 used, copied, transmitted, or stored only in accord with that
 written license.
  
 The following legend is applicable only to US Government
 contracts under FAR:
  
                    RESTRICTED RIGHTS LEGEND
  
 Use, reproduction and disclosure by the US Government is
 subject to restrictions as set forth in subparagraphs (a)
 and (c) of the Commercial Computer Software - Restricted
 Rights clause in FAR 52.227-19.
  
 Gaussian, Inc.
 340 Quinnipiac St., Bldg. 40, Wallingford CT 06492
  
  
 ---------------------------------------------------------------
 Warning -- This program may not be used in any manner that
 competes with the business of Gaussian, Inc. or will provide
 assistance to any competitor of Gaussian, Inc.  The licensee
 of this program is prohibited from giving any competitor of
 Gaussian, Inc. access to this program.  By using this program,
 the user acknowledges that Gaussian, Inc. is engaged in the
 business of creating and licensing software in the field of
 computational chemistry and represents and warrants to the
 licensee that it is not a competitor of Gaussian, Inc. and that
 it will not use this program in any manner prohibited above.
 ---------------------------------------------------------------
  

 Cite this work as:
 Gaussian 16, Revision B.01,
 M. J. Frisch, G. W. Trucks, H. B. Schlegel, G. E. Scuseria, 
 M. A. Robb, J. R. Cheeseman, G. Scalmani, V. Barone, 
 G. A. Petersson, H. Nakatsuji, X. Li, M. Caricato, A. V. Marenich, 
 J. Bloino, B. G. Janesko, R. Gomperts, B. Mennucci, H. P. Hratchian, 
 J. V. Ortiz, A. F. Izmaylov, J. L. Sonnenberg, D. Williams-Young, 
 F. Ding, F. Lipparini, F. Egidi, J. Goings, B. Peng, A. Petrone, 
 T. Henderson, D. Ranasinghe, V. G. Zakrzewski, J. Gao, N. Rega, 
 G. Zheng, W. Liang, M. Hada, M. Ehara, K. Toyota, R. Fukuda, 
 J. Hasegawa, M. Ishida, T. Nakajima, Y. Honda, O. Kitao, H. Nakai, 
 T. Vreven, K. Throssell, J. A. Montgomery, Jr., J. E. Peralta, 
 F. Ogliaro, M. J. Bearpark, J. J. Heyd, E. N. Brothers, K. N. Kudin, 
 V. N. Staroverov, T. A. Keith, R. Kobayashi, J. Normand, 
 K. Raghavachari, A. P. Rendell, J. C. Burant, S. S. Iyengar, 
 J. Tomasi, M. Cossi, J. M. Millam, M. Klene, C. Adamo, R. Cammi, 
 J. W. Ochterski, R. L. Martin, K. Morokuma, O. Farkas, 
 J. B. Foresman, and D. J. Fox, Gaussian, Inc., Wallingford CT, 2016.
 
 ******************************************
 Gaussian 16:  ES64L-G16RevB.01 20-Dec-2017
                15-Aug-2019 
 ******************************************
 %RWF=/dev/shm/,5GB,/tmp/scratch/1151265/,-1
 %NoSave
 %OldChk=tpaegh1ats_ts_ircr.chk
 %Chk=/dev/shm/tpaegh1ats_ts_ircr_opt.chk
 Copying data from "tpaegh1ats_ts_ircr.chk" to current chk file "/dev/shm/tpaegh1ats_ts_ircr_opt.chk"
 IOpt=  2 FromEx=T IUOpen= 4 IOptOp= 5 NList=   0 IFRang= 0 IUIn= 4 IUOut= 2.
 Default route: CacheSize=180224 MaxDisk=256GB
 ----------------------------------------------------------------------
 # m062x/Def2TZVP nosymm scf=xqc opt freq=NoRaman CPHF=Grid=Fine SCRF=(
 Solvent=1,2-EthaneDiol,Read) guess=read geom=allcheck
 ----------------------------------------------------------------------
 1/4=180224,18=20,19=15,26=3,29=7,38=1,40=2/1,3;
 2/4=180224,9=110,12=2,15=1,40=1/2;
 3/4=180224,5=44,7=101,11=2,14=-4,25=1,30=1,70=2203,71=1,72=30,74=-55,116=-2/1,2,3;
 4/4=180224,5=1/1;
 5/4=180224,5=2,8=3,13=1,38=6,53=30/2,8;
 6/4=180224,7=2,8=2,9=2,10=2,28=1/1;
 7/4=180224,30=1/1,2,3,16;
 1/4=180224,18=20,19=15,26=3/3(2);
 2/4=180224,9=110,15=1/2;
 99/4=180224/99;
 2/4=180224,9=110,15=1/2;
 3/4=180224,5=44,7=101,11=2,14=-2,25=1,30=1,70=2205,71=1,72=30,74=-55/1,2,3;
 4/4=180224,5=5,16=3,69=1/1;
 5/4=180224,5=2,8=3,13=1,38=5,53=30/2,8;
 7/4=180224,30=1/1,2,3,16;
 1/4=180224,18=20,19=15,26=3/3(-5);
 2/4=180224,9=110,15=1/2;
 6/4=180224,7=2,8=2,9=2,10=2,19=2,28=1/1;
 99/4=180224,9=1/99;
 Structure from the checkpoint file:  "/dev/shm/tpaegh1ats_ts_ircr_opt.chk"
 -----------------------
 based on ipaegh1dts.log
 -----------------------
 Charge =  1 Multiplicity = 1
 No Z-Matrix found in chk file; cartesian coordinates used.
  H                                                -1.825519893553      0.537082053192     -2.382453988249
  H                                                -1.304531214069     -3.297772125734      1.540042438973
  C                                                -1.433306283469      0.608848271587     -1.378420087075
  H                                                -1.180765202806     -1.506817964002     -1.156627974081
  C                                                -0.430601942994      0.809892093457      1.214493390087
  C                                                -0.567263942279     -0.431335441843      0.600956562704
  C                                                -1.068387249585     -0.536956452607     -0.691970145814
  C                                                -1.297743104454      1.851895019183     -0.768744491693
  C                                                -0.798750889155      1.952468223716      0.524525220444
  C                                                -0.162466875725     -1.680755659213      1.338246385140
  H                                                -0.043960281626      0.878867396166      2.221404221931
  O                                                -0.796090530159     -2.852471930956      0.848523691940
  O                                                -0.189075878230     -1.505969006807      2.664660153305
  H                                                 1.736361401993     -1.237266400331     -0.832372032355
  C                                                 2.136973224486     -1.407755203393      0.164446213994
  O                                                 4.312466696463     -1.418354528120     -0.618458099142
  H                                                 2.244816859527     -0.470176317660      0.703031003350
  H                                                 0.868260542932     -3.031648413826      0.508558363135
  O                                                 1.184326759568     -2.193804244981      0.927705208120
  C                                                 3.422354149792     -2.199253079937      0.142657933094
  H                                                 5.156442724191     -1.876908663192     -0.678597337563
  H                                                 3.247750483578     -3.176977970153     -0.317013809184
  H                                                 3.777446061990     -2.349071106020      1.165075584356
  H                                                 0.318005170275     -2.189008101133      3.130578694400
  C                                                -1.680280463150      3.111619974889     -1.471772725972
  O                                                -2.141425781264      2.898709366646     -2.705782221104
  H                                                -2.368597751100      3.754960213067     -3.099797848193
  O                                                -1.585250891693      4.207860527997     -0.984750531362
  H                                                -0.703638272339      2.927658269050      0.981438419639
 Recover connectivity data from disk.

 GradGradGradGradGradGradGradGradGradGradGradGradGradGradGradGradGradGrad
 Berny optimization.
 Initialization pass.
                           ----------------------------
                           !    Initial Parameters    !
                           ! (Angstroms and Degrees)  !
 --------------------------                            --------------------------
 ! Name  Definition              Value          Derivative Info.                !
 --------------------------------------------------------------------------------
 ! R1    R(1,3)                  1.0803         estimate D2E/DX2                !
 ! R2    R(2,12)                 0.967          estimate D2E/DX2                !
 ! R3    R(3,7)                  1.3846         estimate D2E/DX2                !
 ! R4    R(3,8)                  1.3911         estimate D2E/DX2                !
 ! R5    R(4,7)                  1.0813         estimate D2E/DX2                !
 ! R6    R(5,6)                  1.3913         estimate D2E/DX2                !
 ! R7    R(5,9)                  1.3846         estimate D2E/DX2                !
 ! R8    R(5,11)                 1.0808         estimate D2E/DX2                !
 ! R9    R(6,7)                  1.3907         estimate D2E/DX2                !
 ! R10   R(6,10)                 1.5062         estimate D2E/DX2                !
 ! R11   R(8,9)                  1.3898         estimate D2E/DX2                !
 ! R12   R(8,25)                 1.4925         estimate D2E/DX2                !
 ! R13   R(9,29)                 1.0811         estimate D2E/DX2                !
 ! R14   R(10,12)                1.4192         estimate D2E/DX2                !
 ! R15   R(10,13)                1.3381         estimate D2E/DX2                !
 ! R16   R(10,19)                1.4985         estimate D2E/DX2                !
 ! R17   R(12,18)                1.7081         estimate D2E/DX2                !
 ! R18   R(13,24)                0.9699         estimate D2E/DX2                !
 ! R19   R(14,15)                1.0878         estimate D2E/DX2                !
 ! R20   R(15,17)                1.0866         estimate D2E/DX2                !
 ! R21   R(15,19)                1.4519         estimate D2E/DX2                !
 ! R22   R(15,20)                1.5097         estimate D2E/DX2                !
 ! R23   R(16,20)                1.4076         estimate D2E/DX2                !
 ! R24   R(16,21)                0.9624         estimate D2E/DX2                !
 ! R25   R(18,19)                0.9887         estimate D2E/DX2                !
 ! R26   R(20,22)                1.0944         estimate D2E/DX2                !
 ! R27   R(20,23)                1.0926         estimate D2E/DX2                !
 ! R28   R(25,26)                1.3345         estimate D2E/DX2                !
 ! R29   R(25,28)                1.2033         estimate D2E/DX2                !
 ! R30   R(26,27)                0.9695         estimate D2E/DX2                !
 ! A1    A(1,3,7)              120.097          estimate D2E/DX2                !
 ! A2    A(1,3,8)              120.136          estimate D2E/DX2                !
 ! A3    A(7,3,8)              119.7665         estimate D2E/DX2                !
 ! A4    A(6,5,9)              119.3622         estimate D2E/DX2                !
 ! A5    A(6,5,11)             120.1924         estimate D2E/DX2                !
 ! A6    A(9,5,11)             120.445          estimate D2E/DX2                !
 ! A7    A(5,6,7)              120.8731         estimate D2E/DX2                !
 ! A8    A(5,6,10)             119.854          estimate D2E/DX2                !
 ! A9    A(7,6,10)             119.2721         estimate D2E/DX2                !
 ! A10   A(3,7,4)              120.1195         estimate D2E/DX2                !
 ! A11   A(3,7,6)              119.5403         estimate D2E/DX2                !
 ! A12   A(4,7,6)              120.3382         estimate D2E/DX2                !
 ! A13   A(3,8,9)              120.4944         estimate D2E/DX2                !
 ! A14   A(3,8,25)             121.5191         estimate D2E/DX2                !
 ! A15   A(9,8,25)             117.9864         estimate D2E/DX2                !
 ! A16   A(5,9,8)              119.9633         estimate D2E/DX2                !
 ! A17   A(5,9,29)             120.6879         estimate D2E/DX2                !
 ! A18   A(8,9,29)             119.3488         estimate D2E/DX2                !
 ! A19   A(6,10,12)            113.3261         estimate D2E/DX2                !
 ! A20   A(6,10,13)            111.8099         estimate D2E/DX2                !
 ! A21   A(6,10,19)            113.0444         estimate D2E/DX2                !
 ! A22   A(12,10,13)           116.1675         estimate D2E/DX2                !
 ! A23   A(12,10,19)            91.3784         estimate D2E/DX2                !
 ! A24   A(13,10,19)           109.5209         estimate D2E/DX2                !
 ! A25   A(2,12,10)            111.6037         estimate D2E/DX2                !
 ! A26   A(2,12,18)            127.3271         estimate D2E/DX2                !
 ! A27   A(10,12,18)            73.7558         estimate D2E/DX2                !
 ! A28   A(10,13,24)           111.9486         estimate D2E/DX2                !
 ! A29   A(14,15,17)           110.8259         estimate D2E/DX2                !
 ! A30   A(14,15,19)           108.963          estimate D2E/DX2                !
 ! A31   A(14,15,20)           112.4899         estimate D2E/DX2                !
 ! A32   A(17,15,19)           105.7651         estimate D2E/DX2                !
 ! A33   A(17,15,20)           112.0255         estimate D2E/DX2                !
 ! A34   A(19,15,20)           106.4034         estimate D2E/DX2                !
 ! A35   A(20,16,21)           108.9054         estimate D2E/DX2                !
 ! A36   A(12,18,19)            97.9446         estimate D2E/DX2                !
 ! A37   A(10,19,15)           123.2551         estimate D2E/DX2                !
 ! A38   A(10,19,18)            96.8321         estimate D2E/DX2                !
 ! A39   A(15,19,18)           116.4665         estimate D2E/DX2                !
 ! A40   A(15,20,16)           104.7944         estimate D2E/DX2                !
 ! A41   A(15,20,22)           109.792          estimate D2E/DX2                !
 ! A42   A(15,20,23)           109.5774         estimate D2E/DX2                !
 ! A43   A(16,20,22)           111.6783         estimate D2E/DX2                !
 ! A44   A(16,20,23)           112.1183         estimate D2E/DX2                !
 ! A45   A(22,20,23)           108.8066         estimate D2E/DX2                !
 ! A46   A(8,25,26)            112.9232         estimate D2E/DX2                !
 ! A47   A(8,25,28)            123.9213         estimate D2E/DX2                !
 ! A48   A(26,25,28)           123.1555         estimate D2E/DX2                !
 ! A49   A(25,26,27)           108.4132         estimate D2E/DX2                !
 ! D1    D(1,3,7,4)             -0.3816         estimate D2E/DX2                !
 ! D2    D(1,3,7,6)           -179.8739         estimate D2E/DX2                !
 ! D3    D(8,3,7,4)            179.3783         estimate D2E/DX2                !
 ! D4    D(8,3,7,6)             -0.1141         estimate D2E/DX2                !
 ! D5    D(1,3,8,9)            179.7556         estimate D2E/DX2                !
 ! D6    D(1,3,8,25)            -0.1729         estimate D2E/DX2                !
 ! D7    D(7,3,8,9)             -0.0041         estimate D2E/DX2                !
 ! D8    D(7,3,8,25)          -179.9326         estimate D2E/DX2                !
 ! D9    D(9,5,6,7)             -0.0474         estimate D2E/DX2                !
 ! D10   D(9,5,6,10)           179.6341         estimate D2E/DX2                !
 ! D11   D(11,5,6,7)           179.7297         estimate D2E/DX2                !
 ! D12   D(11,5,6,10)           -0.5888         estimate D2E/DX2                !
 ! D13   D(6,5,9,8)             -0.0718         estimate D2E/DX2                !
 ! D14   D(6,5,9,29)           179.8646         estimate D2E/DX2                !
 ! D15   D(11,5,9,8)          -179.8484         estimate D2E/DX2                !
 ! D16   D(11,5,9,29)            0.0881         estimate D2E/DX2                !
 ! D17   D(5,6,7,3)              0.1409         estimate D2E/DX2                !
 ! D18   D(5,6,7,4)           -179.3503         estimate D2E/DX2                !
 ! D19   D(10,6,7,3)          -179.5425         estimate D2E/DX2                !
 ! D20   D(10,6,7,4)             0.9663         estimate D2E/DX2                !
 ! D21   D(5,6,10,12)          157.4364         estimate D2E/DX2                !
 ! D22   D(5,6,10,13)           23.8196         estimate D2E/DX2                !
 ! D23   D(5,6,10,19)         -100.3298         estimate D2E/DX2                !
 ! D24   D(7,6,10,12)          -22.8769         estimate D2E/DX2                !
 ! D25   D(7,6,10,13)         -156.4937         estimate D2E/DX2                !
 ! D26   D(7,6,10,19)           79.3569         estimate D2E/DX2                !
 ! D27   D(3,8,9,5)              0.098          estimate D2E/DX2                !
 ! D28   D(3,8,9,29)          -179.8393         estimate D2E/DX2                !
 ! D29   D(25,8,9,5)          -179.971          estimate D2E/DX2                !
 ! D30   D(25,8,9,29)            0.0918         estimate D2E/DX2                !
 ! D31   D(3,8,25,26)           -0.2895         estimate D2E/DX2                !
 ! D32   D(3,8,25,28)          179.7558         estimate D2E/DX2                !
 ! D33   D(9,8,25,26)          179.7802         estimate D2E/DX2                !
 ! D34   D(9,8,25,28)           -0.1745         estimate D2E/DX2                !
 ! D35   D(6,10,12,2)         -121.4136         estimate D2E/DX2                !
 ! D36   D(6,10,12,18)         114.2593         estimate D2E/DX2                !
 ! D37   D(13,10,12,2)          10.0908         estimate D2E/DX2                !
 ! D38   D(13,10,12,18)       -114.2362         estimate D2E/DX2                !
 ! D39   D(19,10,12,2)         122.6874         estimate D2E/DX2                !
 ! D40   D(19,10,12,18)         -1.6397         estimate D2E/DX2                !
 ! D41   D(6,10,13,24)        -162.4326         estimate D2E/DX2                !
 ! D42   D(12,10,13,24)         65.3595         estimate D2E/DX2                !
 ! D43   D(19,10,13,24)        -36.3317         estimate D2E/DX2                !
 ! D44   D(6,10,19,15)          14.5695         estimate D2E/DX2                !
 ! D45   D(6,10,19,18)        -113.4064         estimate D2E/DX2                !
 ! D46   D(12,10,19,15)        130.7157         estimate D2E/DX2                !
 ! D47   D(12,10,19,18)          2.7398         estimate D2E/DX2                !
 ! D48   D(13,10,19,15)       -110.8235         estimate D2E/DX2                !
 ! D49   D(13,10,19,18)        121.2006         estimate D2E/DX2                !
 ! D50   D(2,12,18,19)        -102.5666         estimate D2E/DX2                !
 ! D51   D(10,12,18,19)          2.509          estimate D2E/DX2                !
 ! D52   D(14,15,19,10)        -66.7805         estimate D2E/DX2                !
 ! D53   D(14,15,19,18)         52.2569         estimate D2E/DX2                !
 ! D54   D(17,15,19,10)         52.4043         estimate D2E/DX2                !
 ! D55   D(17,15,19,18)        171.4417         estimate D2E/DX2                !
 ! D56   D(20,15,19,10)        171.7002         estimate D2E/DX2                !
 ! D57   D(20,15,19,18)        -69.2624         estimate D2E/DX2                !
 ! D58   D(14,15,20,16)         59.9565         estimate D2E/DX2                !
 ! D59   D(14,15,20,22)        -60.1156         estimate D2E/DX2                !
 ! D60   D(14,15,20,23)       -179.5626         estimate D2E/DX2                !
 ! D61   D(17,15,20,16)        -65.6752         estimate D2E/DX2                !
 ! D62   D(17,15,20,22)        174.2527         estimate D2E/DX2                !
 ! D63   D(17,15,20,23)         54.8057         estimate D2E/DX2                !
 ! D64   D(19,15,20,16)        179.1988         estimate D2E/DX2                !
 ! D65   D(19,15,20,22)         59.1267         estimate D2E/DX2                !
 ! D66   D(19,15,20,23)        -60.3203         estimate D2E/DX2                !
 ! D67   D(21,16,20,15)       -179.3976         estimate D2E/DX2                !
 ! D68   D(21,16,20,22)        -60.5909         estimate D2E/DX2                !
 ! D69   D(21,16,20,23)         61.8228         estimate D2E/DX2                !
 ! D70   D(12,18,19,10)         -2.2975         estimate D2E/DX2                !
 ! D71   D(12,18,19,15)       -134.8758         estimate D2E/DX2                !
 ! D72   D(8,25,26,27)        -179.9851         estimate D2E/DX2                !
 ! D73   D(28,25,26,27)         -0.0301         estimate D2E/DX2                !
 --------------------------------------------------------------------------------
 Trust Radius=3.00D-01 FncErr=1.00D-07 GrdErr=1.00D-06 EigMax=2.50D+02 EigMin=1.00D-04
 Number of steps in this run=    162 maximum allowed number of steps=    174.
 GradGradGradGradGradGradGradGradGradGradGradGradGradGradGradGradGradGrad

                          Input orientation:                          
 ---------------------------------------------------------------------
 Center     Atomic      Atomic             Coordinates (Angstroms)
 Number     Number       Type             X           Y           Z
 ---------------------------------------------------------------------
      1          1           0       -1.825520    0.537082   -2.382454
      2          1           0       -1.304531   -3.297772    1.540042
      3          6           0       -1.433306    0.608848   -1.378420
      4          1           0       -1.180765   -1.506818   -1.156628
      5          6           0       -0.430602    0.809892    1.214493
      6          6           0       -0.567264   -0.431335    0.600957
      7          6           0       -1.068387   -0.536956   -0.691970
      8          6           0       -1.297743    1.851895   -0.768744
      9          6           0       -0.798751    1.952468    0.524525
     10          6           0       -0.162467   -1.680756    1.338246
     11          1           0       -0.043960    0.878867    2.221404
     12          8           0       -0.796091   -2.852472    0.848524
     13          8           0       -0.189076   -1.505969    2.664660
     14          1           0        1.736361   -1.237266   -0.832372
     15          6           0        2.136973   -1.407755    0.164446
     16          8           0        4.312467   -1.418355   -0.618458
     17          1           0        2.244817   -0.470176    0.703031
     18          1           0        0.868261   -3.031648    0.508558
     19          8           0        1.184327   -2.193804    0.927705
     20          6           0        3.422354   -2.199253    0.142658
     21          1           0        5.156443   -1.876909   -0.678597
     22          1           0        3.247750   -3.176978   -0.317014
     23          1           0        3.777446   -2.349071    1.165076
     24          1           0        0.318005   -2.189008    3.130579
     25          6           0       -1.680280    3.111620   -1.471773
     26          8           0       -2.141426    2.898709   -2.705782
     27          1           0       -2.368598    3.754960   -3.099798
     28          8           0       -1.585251    4.207861   -0.984751
     29          1           0       -0.703638    2.927658    0.981438
 ---------------------------------------------------------------------
                    Distance matrix (angstroms):
                    1          2          3          4          5
     1  H    0.000000
     2  H    5.510310   0.000000
     3  C    1.080308   4.878083   0.000000
     4  H    2.468985   3.239578   2.142198   0.000000
     5  C    3.867590   4.212201   2.787299   3.398839   0.000000
     6  C    3.379612   3.105142   2.397904   2.149919   1.391312
     7  C    2.141155   3.558054   1.384647   1.081280   2.419788
     8  C    2.147403   5.643546   1.391132   3.383059   2.402277
     9  C    3.392359   5.371416   2.414369   3.865084   1.384583
    10  C    4.639845   1.989918   3.773274   2.700293   2.508094
    11  H    4.948362   4.415610   3.868065   4.288930   1.080795
    12  O    4.794582   0.966955   4.164860   2.445280   3.698706
    13  O    5.685540   2.391561   4.729383   3.947872   2.743088
    14  H    4.270605   4.372764   3.708517   2.947444   3.616109
    15  C    5.096121   4.160334   4.381098   3.572456   3.551479
    16  O    6.679094   6.304126   6.140114   5.520240   5.551711
    17  H    5.205999   4.614516   4.361803   4.033308   3.009657
    18  H    5.324495   2.419877   4.702246   3.049010   4.116166
    19  O    5.241571   2.790720   4.474939   3.226462   3.422343
    20  C    6.434586   5.050037   5.811760   4.832837   5.004903
    21  H    7.581443   6.977492   7.077678   6.365979   6.482111
    22  H    6.618033   4.917979   6.113212   4.806884   5.636570
    23  H    7.232432   5.183351   6.509270   5.539274   5.262049
    24  H    6.513048   2.528198   5.588037   4.592585   3.636647
    25  C    2.734718   7.091722   2.516660   4.656050   3.751756
    26  O    2.404500   7.558029   2.739852   4.767748   4.760109
    27  H    3.341296   8.508901   3.706202   5.733512   5.571567
    28  O    3.935215   7.923882   3.623666   5.731553   4.209047
    29  H    4.276593   6.279259   3.387953   4.946065   2.147975
                    6          7          8          9         10
     6  C    0.000000
     7  C    1.390662   0.000000
     8  C    2.760946   2.401064   0.000000
     9  C    2.396236   2.783846   1.389840   0.000000
    10  C    1.506157   2.500149   4.267070   3.777210   0.000000
    11  H    2.148564   3.397316   3.385224   2.145163   2.710292
    12  O    2.444494   2.794437   4.999828   4.815852   1.419234
    13  O    2.357273   3.602657   4.928759   4.112502   1.338145
    14  H    2.830308   2.894264   4.330445   4.294458   2.917844
    15  C    2.908064   3.430171   4.826328   4.476520   2.596105
    16  O    5.125715   5.453059   6.495504   6.228435   4.891071
    17  H    2.814201   3.595526   4.484180   3.894146   2.768396
    18  H    2.971682   3.378663   5.492911   5.255530   1.890950
    19  O    2.506218   3.231596   5.040466   4.613754   1.498538
    20  C    4.387781   4.860719   6.286635   5.932987   3.814343
    21  H    6.040510   6.367430   7.454436   7.181641   5.691830
    22  H    4.789108   5.073396   6.793757   6.587380   4.075310
    23  H    4.782515   5.496770   6.866245   6.313091   3.999943
    24  H    3.205012   4.388991   5.843309   5.019012   1.923962
    25  C    4.252946   3.780822   1.492478   2.471019   5.759065
    26  O    4.949920   4.124397   2.357909   3.623953   6.421989
    27  H    5.870729   5.090062   3.194088   4.341557   7.355967
    28  O    5.007285   4.781857   2.383253   2.825472   6.488176
    29  H    3.383224   3.864828   2.138543   1.081116   4.653779
                   11         12         13         14         15
    11  H    0.000000
    12  O    4.046405   0.000000
    13  O    2.430016   2.340916   0.000000
    14  H    4.119844   3.442036   4.001093   0.000000
    15  C    3.770436   3.340364   3.416317   1.087751   0.000000
    16  O    5.685112   5.505096   5.572291   2.591307   2.312104
    17  H    3.060045   3.865698   3.293128   1.790088   1.086627
    18  H    4.365561   1.708141   2.845072   2.402395   2.089276
    19  O    3.552979   2.088580   2.318699   2.077878   1.451886
    20  C    5.080487   4.326687   4.459099   2.172251   1.509685
    21  H    6.561136   6.222256   6.315816   3.482778   3.169862
    22  H    5.807651   4.220952   4.847105   2.512443   2.143777
    23  H    5.112589   4.612034   4.323525   3.064626   2.139740
    24  H    3.220167   2.624723   0.969925   4.315382   3.566082
    25  C    4.615440   6.460337   6.376198   5.567323   6.137865
    26  O    5.723311   6.893410   7.214881   5.971030   6.714801
    27  H    6.480049   7.856219   8.102880   6.849397   7.590065
    28  O    4.872084   7.337027   6.922092   6.380105   6.834526
    29  H    2.483996   5.782397   4.770226   5.156559   5.247129
                   16         17         18         19         20
    16  O    0.000000
    17  H    2.630694   0.000000
    18  H    3.966792   2.914424   0.000000
    19  O    3.574521   2.036176   0.988719   0.000000
    20  C    1.407622   2.165714   2.711118   2.371728   0.000000
    21  H    0.962385   3.516441   4.596876   4.296317   1.945618
    22  H    2.077798   3.061559   2.522828   2.602628   1.094409
    23  H    2.081700   2.468336   3.059459   2.608586   1.092645
    24  H    5.532170   3.544005   2.808525   2.367105   4.308684
    25  C    7.560545   5.741552   6.939490   6.489299   7.539804
    26  O    8.040317   6.496809   7.386429   7.084953   8.065884
    27  H    8.806637   7.320989   8.339997   8.014478   8.916350
    28  O    8.159138   6.277106   7.788465   7.232521   8.209645
    29  H    6.827064   4.507347   6.181247   5.458633   6.634198
                   21         22         23         24         25
    21  H    0.000000
    22  H    2.337526   0.000000
    23  H    2.350255   1.778369   0.000000
    24  H    6.165850   4.630916   3.982029   0.000000
    25  C    8.500313   8.072510   8.158363   7.298729   0.000000
    26  O    8.954043   8.465424   8.806576   8.123840   1.334453
    27  H    9.705998   9.345535   9.655164   9.020321   1.880993
    28  O    9.086725   8.850967   8.739200   7.840806   1.203314
    29  H    7.757585   7.386883   6.925151   5.642946   2.646869
                   26         27         28         29
    26  O    0.000000
    27  H    0.969547   0.000000
    28  O    2.232747   2.300473   0.000000
    29  H    3.957735   4.484753   2.506403   0.000000
 Symmetry turned off by external request.
 Stoichiometry    C10H13O6(1+)
 Framework group  C1[X(C10H13O6)]
 Deg. of freedom    81
 Full point group                 C1      NOp   1
 Rotational constants (GHZ):           0.7884892           0.2679464           0.2332890
 Standard basis: def2TZVP (5D, 7F)
   574 basis functions,   920 primitive gaussians,   654 cartesian basis functions
    60 alpha electrons       60 beta electrons
       nuclear repulsion energy      1135.5898879017 Hartrees.
 NAtoms=   29 NActive=   29 NUniq=   29 SFac= 1.00D+00 NAtFMM=   60 NAOKFM=F Big=F
 Integral buffers will be    131072 words long.
 Raffenetti 2 integral format.
 Two-electron integral symmetry is turned off.
 Using the following non-standard input for PCM:
 PDENS=7.0
 --- end of non-standard input.
 ------------------------------------------------------------------------------
 Polarizable Continuum Model (PCM)
 =================================
 Model                : PCM.
 Atomic radii         : UFF (Universal Force Field).
 Polarization charges : Total charges.
 Charge compensation  : None.
 Solution method      : On-the-fly selection.
 Cavity type          : Scaled VdW (van der Waals Surface) (Alpha=1.100).
 Cavity algorithm     : GePol (No added spheres)
                        Default sphere list used, NSphG=   29.
                        Lebedev-Laikov grids with approx.  7.0 points / Ang**2.
                        Smoothing algorithm: York/Karplus (Gamma=1.0000).
                        Polarization charges: spherical gaussians, with
                                              point-specific exponents (IZeta= 3).
                        Self-potential: point-specific (ISelfS= 7).
                        Self-field    : sphere-specific E.n sum rule (ISelfD= 2).
 1st derivatives      : Analytical E(r).r(x)/FMM algorithm (CHGder, D1EAlg=3).
                        Cavity 1st derivative terms included.
 Solvent              : 1,2-EthaneDiol, Eps=  40.245000 Eps(inf)=   2.050051
 ------------------------------------------------------------------------------
 One-electron integrals computed using PRISM.
   1 Symmetry operations used in ECPInt.
 ECPInt:  NShTT=   26106 NPrTT=   79792 LenC2=   23002 LenP2D=   51285.
 LDataN:  DoStor=T MaxTD1= 6 Len=  172
 NBasis=   574 RedAO= T EigKep=  6.49D-06  NBF=   574
 NBsUse=   574 1.00D-06 EigRej= -1.00D+00 NBFU=   574
 Initial guess from the checkpoint file:  "/dev/shm/tpaegh1ats_ts_ircr_opt.chk"
 B after Tr=     0.000000   -0.000000    0.000000
         Rot=    1.000000    0.000000    0.000000    0.000000 Ang=   0.00 deg.
 Requested convergence on RMS density matrix=1.00D-08 within  32 cycles.
 Requested convergence on MAX density matrix=1.00D-06.
 Requested convergence on             energy=1.00D-06.
 No special actions if energy rises.
 Inv3:  Mode=1 IEnd=    33607227.
 Iteration    1 A*A^-1 deviation from unit magnitude is 3.55D-15 for   1383.
 Iteration    1 A*A^-1 deviation from orthogonality  is 2.00D-15 for   2141     65.
 Iteration    1 A^-1*A deviation from unit magnitude is 3.11D-15 for    369.
 Iteration    1 A^-1*A deviation from orthogonality  is 2.25D-15 for   1672   1579.
 Error on total polarization charges =  0.01067
 SCF Done:  E(RM062X) =  -840.052474895     A.U. after    1 cycles
            NFock=  1  Conv=0.42D-08     -V/T= 2.0044
 QCSCF skips out because SCF is already converged.

 **********************************************************************

            Population analysis using the SCF Density.

 **********************************************************************

 Alpha  occ. eigenvalues --  -19.78718 -19.70668 -19.69684 -19.68816 -19.64938
 Alpha  occ. eigenvalues --  -19.63615 -10.78293 -10.69757 -10.64444 -10.61413
 Alpha  occ. eigenvalues --  -10.59613 -10.58487 -10.57755 -10.57752 -10.57479
 Alpha  occ. eigenvalues --  -10.57365  -1.34795  -1.25804  -1.24983  -1.19748
 Alpha  occ. eigenvalues --   -1.17434  -1.16155  -1.00796  -0.92772  -0.91524
 Alpha  occ. eigenvalues --   -0.88078  -0.83594  -0.78609  -0.76369  -0.74286
 Alpha  occ. eigenvalues --   -0.72187  -0.70747  -0.69089  -0.66344  -0.64735
 Alpha  occ. eigenvalues --   -0.62253  -0.60824  -0.60079  -0.59232  -0.56921
 Alpha  occ. eigenvalues --   -0.56085  -0.56026  -0.55129  -0.53721  -0.52757
 Alpha  occ. eigenvalues --   -0.52034  -0.51118  -0.49880  -0.48188  -0.47355
 Alpha  occ. eigenvalues --   -0.46982  -0.45791  -0.44550  -0.43526  -0.43377
 Alpha  occ. eigenvalues --   -0.41942  -0.38149  -0.38006  -0.35038  -0.34198
 Alpha virt. eigenvalues --   -0.05370  -0.00947   0.02999   0.04741   0.05986
 Alpha virt. eigenvalues --    0.07118   0.07192   0.08016   0.08839   0.09998
 Alpha virt. eigenvalues --    0.10662   0.11555   0.12639   0.12953   0.13508
 Alpha virt. eigenvalues --    0.14310   0.15079   0.15139   0.16243   0.16977
 Alpha virt. eigenvalues --    0.17455   0.18813   0.20250   0.21269   0.21477
 Alpha virt. eigenvalues --    0.21998   0.22735   0.23795   0.24077   0.24554
 Alpha virt. eigenvalues --    0.24979   0.25267   0.26601   0.27245   0.27685
 Alpha virt. eigenvalues --    0.28402   0.28781   0.29540   0.29789   0.31068
 Alpha virt. eigenvalues --    0.32354   0.33277   0.33751   0.35034   0.35721
 Alpha virt. eigenvalues --    0.36022   0.37582   0.37914   0.38721   0.39073
 Alpha virt. eigenvalues --    0.39428   0.39932   0.40524   0.41807   0.41931
 Alpha virt. eigenvalues --    0.42062   0.42836   0.43044   0.43868   0.44768
 Alpha virt. eigenvalues --    0.44994   0.45992   0.46135   0.47149   0.47786
 Alpha virt. eigenvalues --    0.48458   0.49443   0.49963   0.50424   0.50707
 Alpha virt. eigenvalues --    0.51238   0.51982   0.52491   0.52774   0.53176
 Alpha virt. eigenvalues --    0.53805   0.54644   0.55056   0.56109   0.56652
 Alpha virt. eigenvalues --    0.57733   0.58731   0.59834   0.61092   0.61442
 Alpha virt. eigenvalues --    0.62550   0.63384   0.64419   0.65184   0.66883
 Alpha virt. eigenvalues --    0.67266   0.68065   0.68712   0.69495   0.69821
 Alpha virt. eigenvalues --    0.70907   0.72303   0.72815   0.73793   0.74746
 Alpha virt. eigenvalues --    0.76017   0.76755   0.77367   0.78419   0.79167
 Alpha virt. eigenvalues --    0.79268   0.80334   0.82172   0.82895   0.83434
 Alpha virt. eigenvalues --    0.85888   0.86275   0.86749   0.87773   0.88360
 Alpha virt. eigenvalues --    0.89657   0.90135   0.91919   0.92572   0.94920
 Alpha virt. eigenvalues --    0.95237   0.96728   0.97430   0.97592   0.98697
 Alpha virt. eigenvalues --    1.00294   1.01382   1.02602   1.03377   1.04318
 Alpha virt. eigenvalues --    1.06300   1.08352   1.08714   1.10213   1.11713
 Alpha virt. eigenvalues --    1.12838   1.16088   1.17051   1.18745   1.19782
 Alpha virt. eigenvalues --    1.20529   1.21525   1.23437   1.25096   1.25978
 Alpha virt. eigenvalues --    1.27559   1.28388   1.30512   1.30791   1.33035
 Alpha virt. eigenvalues --    1.33905   1.35390   1.35960   1.37876   1.38679
 Alpha virt. eigenvalues --    1.39661   1.40732   1.41548   1.43707   1.45808
 Alpha virt. eigenvalues --    1.47264   1.48060   1.49273   1.50338   1.51877
 Alpha virt. eigenvalues --    1.53013   1.53544   1.53699   1.54352   1.55876
 Alpha virt. eigenvalues --    1.56541   1.58011   1.59005   1.59797   1.60064
 Alpha virt. eigenvalues --    1.60974   1.62363   1.62904   1.64279   1.65304
 Alpha virt. eigenvalues --    1.65933   1.66919   1.67388   1.67832   1.69003
 Alpha virt. eigenvalues --    1.69883   1.72485   1.73539   1.75462   1.76520
 Alpha virt. eigenvalues --    1.78792   1.79199   1.80058   1.80514   1.82118
 Alpha virt. eigenvalues --    1.83164   1.83805   1.85333   1.86334   1.86519
 Alpha virt. eigenvalues --    1.87305   1.88744   1.89120   1.89739   1.91043
 Alpha virt. eigenvalues --    1.91720   1.93571   1.95757   1.97010   1.97124
 Alpha virt. eigenvalues --    1.98607   1.99826   2.01367   2.01507   2.02871
 Alpha virt. eigenvalues --    2.04959   2.05180   2.07665   2.08533   2.09232
 Alpha virt. eigenvalues --    2.09761   2.11597   2.13747   2.14669   2.15736
 Alpha virt. eigenvalues --    2.17711   2.18984   2.20095   2.20447   2.22161
 Alpha virt. eigenvalues --    2.22724   2.24701   2.24772   2.24979   2.26289
 Alpha virt. eigenvalues --    2.27565   2.29051   2.30317   2.30670   2.31330
 Alpha virt. eigenvalues --    2.31729   2.33051   2.33995   2.35186   2.36086
 Alpha virt. eigenvalues --    2.38418   2.39515   2.41540   2.42337   2.44186
 Alpha virt. eigenvalues --    2.45078   2.46394   2.48827   2.49292   2.51306
 Alpha virt. eigenvalues --    2.52477   2.54801   2.55015   2.56325   2.58693
 Alpha virt. eigenvalues --    2.60359   2.60914   2.61601   2.62204   2.62569
 Alpha virt. eigenvalues --    2.63095   2.64296   2.67045   2.67880   2.67941
 Alpha virt. eigenvalues --    2.69109   2.70503   2.70924   2.71548   2.72453
 Alpha virt. eigenvalues --    2.72938   2.74326   2.75191   2.76669   2.78824
 Alpha virt. eigenvalues --    2.80965   2.81429   2.82112   2.82852   2.83816
 Alpha virt. eigenvalues --    2.85079   2.85259   2.86167   2.87270   2.87443
 Alpha virt. eigenvalues --    2.88422   2.90038   2.90871   2.91345   2.92773
 Alpha virt. eigenvalues --    2.94194   2.94346   2.96637   2.97666   3.00068
 Alpha virt. eigenvalues --    3.00530   3.01351   3.02965   3.03893   3.05655
 Alpha virt. eigenvalues --    3.06062   3.06567   3.07355   3.08345   3.09584
 Alpha virt. eigenvalues --    3.11935   3.12277   3.12995   3.13705   3.14204
 Alpha virt. eigenvalues --    3.15420   3.16593   3.18270   3.19338   3.19934
 Alpha virt. eigenvalues --    3.21439   3.21685   3.23306   3.23949   3.25562
 Alpha virt. eigenvalues --    3.26383   3.27166   3.27412   3.28878   3.30262
 Alpha virt. eigenvalues --    3.30625   3.32257   3.33640   3.34364   3.35613
 Alpha virt. eigenvalues --    3.35744   3.36343   3.37470   3.38152   3.38838
 Alpha virt. eigenvalues --    3.39397   3.40353   3.41417   3.41654   3.43839
 Alpha virt. eigenvalues --    3.45516   3.45869   3.48213   3.48472   3.49253
 Alpha virt. eigenvalues --    3.50541   3.51904   3.52312   3.54523   3.56306
 Alpha virt. eigenvalues --    3.57068   3.59654   3.61012   3.62502   3.63299
 Alpha virt. eigenvalues --    3.65906   3.67490   3.67942   3.71747   3.72315
 Alpha virt. eigenvalues --    3.73568   3.76344   3.79505   3.80950   3.82159
 Alpha virt. eigenvalues --    3.83838   3.84974   3.86108   3.86609   3.91093
 Alpha virt. eigenvalues --    3.91899   3.94669   3.97555   3.98569   3.99126
 Alpha virt. eigenvalues --    4.02078   4.04200   4.05309   4.06894   4.10610
 Alpha virt. eigenvalues --    4.13883   4.14884   4.17387   4.17823   4.18773
 Alpha virt. eigenvalues --    4.19762   4.21340   4.22395   4.23281   4.24220
 Alpha virt. eigenvalues --    4.30163   4.32128   4.34419   4.36098   4.40533
 Alpha virt. eigenvalues --    4.42012   4.45572   4.50014   4.52331   4.55873
 Alpha virt. eigenvalues --    4.57263   4.58028   4.59562   4.60782   4.63751
 Alpha virt. eigenvalues --    4.66027   4.73023   4.73980   4.80947   4.84993
 Alpha virt. eigenvalues --    4.86894   4.89053   4.89962   4.94244   5.00315
 Alpha virt. eigenvalues --    5.09579   5.13220   5.14732   5.17476   5.20769
 Alpha virt. eigenvalues --    5.21323   5.22822   5.25695   5.27130   5.31131
 Alpha virt. eigenvalues --    5.31424   5.34352   5.35657   5.36634   5.38084
 Alpha virt. eigenvalues --    5.38323   5.42582   5.44342   5.46060   5.46718
 Alpha virt. eigenvalues --    5.50274   5.50400   5.51578   5.56029   5.56588
 Alpha virt. eigenvalues --    5.66002   5.71685   5.73094   5.74084   5.79632
 Alpha virt. eigenvalues --    5.82140   5.84076   5.85320   5.87026   5.89493
 Alpha virt. eigenvalues --    5.93421   5.95145   5.97343   6.10643   6.14331
 Alpha virt. eigenvalues --    6.18409   6.21888   6.23618   6.27484   6.29700
 Alpha virt. eigenvalues --    6.30127   6.32362   6.38137   6.42169   6.42949
 Alpha virt. eigenvalues --    6.43093   6.49224   6.51519   6.61988   6.63164
 Alpha virt. eigenvalues --    6.66063   6.68596   6.69708   6.70206   6.70782
 Alpha virt. eigenvalues --    6.75296   6.79879   6.81217   6.84463   6.91347
 Alpha virt. eigenvalues --    6.92878   6.93035   6.95423   6.95811   6.98809
 Alpha virt. eigenvalues --    7.08523   7.11403   7.13607   7.14859   7.16375
 Alpha virt. eigenvalues --    7.30005   7.36850   7.38127  22.34143  22.46777
 Alpha virt. eigenvalues --   22.56101  22.79558  22.81249  22.86003  22.90756
 Alpha virt. eigenvalues --   23.03648  23.39332  23.56808  43.91424  43.96929
 Alpha virt. eigenvalues --   44.01257  44.07942  44.11790  44.49802
          Condensed to atoms (all electrons):
               1          2          3          4          5          6
     1  H    0.447495  -0.000000   0.412381  -0.003001  -0.000886   0.005608
     2  H   -0.000000   0.307127   0.000150  -0.000223  -0.000927   0.007560
     3  C    0.412381   0.000150   5.034919  -0.026756  -0.052393   0.007593
     4  H   -0.003001  -0.000223  -0.026756   0.433717   0.005975  -0.040568
     5  C   -0.000886  -0.000927  -0.052393   0.005975   5.188452   0.220293
     6  C    0.005608   0.007560   0.007593  -0.040568   0.220293   5.966872
     7  C   -0.031026   0.000595   0.420917   0.420564  -0.057373   0.348639
     8  C   -0.023957  -0.000010   0.433834   0.005407  -0.011995  -0.066761
     9  C    0.004866   0.000109  -0.027999  -0.001788   0.393509   0.020612
    10  C   -0.000388  -0.017938  -0.034337  -0.002038   0.024782  -0.087448
    11  H    0.000035  -0.000029  -0.001532  -0.000075   0.410835  -0.031476
    12  O   -0.000098   0.308002  -0.008723   0.006853   0.004454  -0.084621
    13  O    0.000000   0.001537  -0.000466   0.000353   0.025854  -0.164849
    14  H    0.000036  -0.000078   0.001836  -0.000769   0.006228   0.016801
    15  C   -0.000025  -0.000358  -0.000890  -0.000211  -0.004565  -0.001816
    16  O    0.000000  -0.000001   0.000025  -0.000009  -0.000125   0.000229
    17  H   -0.000003   0.000020  -0.000362   0.000054  -0.020153   0.014461
    18  H   -0.000004   0.000046   0.000252   0.000022  -0.002392   0.010620
    19  O    0.000003   0.004060  -0.001156  -0.000378   0.008809  -0.125817
    20  C   -0.000002   0.000029   0.000046  -0.000042  -0.000340   0.000317
    21  H   -0.000000   0.000000  -0.000001   0.000000   0.000004  -0.000010
    22  H   -0.000000   0.000014   0.000004   0.000026  -0.000238   0.000270
    23  H    0.000000  -0.000014   0.000004  -0.000007   0.000392  -0.000823
    24  H   -0.000000   0.000295   0.000029  -0.000005  -0.000968   0.018065
    25  C   -0.010095   0.000001  -0.026161   0.000012   0.010083  -0.006331
    26  O    0.008557   0.000000   0.020448  -0.000071   0.000045  -0.000011
    27  H   -0.000205  -0.000000  -0.002593  -0.000001  -0.000008   0.000023
    28  O    0.000141   0.000000   0.002552   0.000005   0.004514  -0.000553
    29  H   -0.000142   0.000000   0.004942   0.000043  -0.027705   0.006928
               7          8          9         10         11         12
     1  H   -0.031026  -0.023957   0.004866  -0.000388   0.000035  -0.000098
     2  H    0.000595  -0.000010   0.000109  -0.017938  -0.000029   0.308002
     3  C    0.420917   0.433834  -0.027999  -0.034337  -0.001532  -0.008723
     4  H    0.420564   0.005407  -0.001788  -0.002038  -0.000075   0.006853
     5  C   -0.057373  -0.011995   0.393509   0.024782   0.410835   0.004454
     6  C    0.348639  -0.066761   0.020612  -0.087448  -0.031476  -0.084621
     7  C    5.173525  -0.029866  -0.039538  -0.042132   0.007431   0.001640
     8  C   -0.029866   5.355881   0.394650   0.006146   0.005038   0.000515
     9  C   -0.039538   0.394650   5.085417  -0.019579  -0.025203  -0.001273
    10  C   -0.042132   0.006146  -0.019579   4.926798  -0.006494   0.293219
    11  H    0.007431   0.005038  -0.025203  -0.006494   0.438979   0.000317
    12  O    0.001640   0.000515  -0.001273   0.293219   0.000317   8.125359
    13  O    0.003176   0.000400  -0.004010   0.448365   0.007968  -0.059946
    14  H   -0.024617  -0.000080  -0.000420  -0.005335  -0.000047   0.000012
    15  C   -0.012260   0.000043  -0.000992  -0.028206   0.000011   0.003299
    16  O   -0.000240  -0.000009   0.000009   0.000272  -0.000002   0.000004
    17  H    0.007721  -0.000337   0.000119  -0.002122   0.000252   0.000499
    18  H    0.000829   0.000005  -0.000013  -0.024160  -0.000009   0.033017
    19  O    0.000979   0.000040   0.001017   0.275527   0.000009  -0.134203
    20  C    0.000945  -0.000082   0.000047   0.007416  -0.000062   0.000096
    21  H    0.000009   0.000000  -0.000000  -0.000027   0.000000  -0.000001
    22  H    0.000481   0.000001   0.000000  -0.001158   0.000001   0.000005
    23  H   -0.000368   0.000002   0.000004   0.001517  -0.000007  -0.000077
    24  H   -0.001041   0.000005  -0.000019  -0.020412  -0.000265  -0.002640
    25  C    0.000485   0.230251  -0.067796  -0.001170  -0.000225  -0.000014
    26  O   -0.000471  -0.174607   0.007308  -0.000012   0.000001  -0.000000
    27  H   -0.000102   0.026009  -0.000785   0.000000  -0.000000  -0.000000
    28  O    0.000413  -0.159891   0.027197  -0.000013  -0.000057   0.000000
    29  H   -0.000242  -0.035184   0.413890  -0.000616  -0.002746  -0.000003
              13         14         15         16         17         18
     1  H    0.000000   0.000036  -0.000025   0.000000  -0.000003  -0.000004
     2  H    0.001537  -0.000078  -0.000358  -0.000001   0.000020   0.000046
     3  C   -0.000466   0.001836  -0.000890   0.000025  -0.000362   0.000252
     4  H    0.000353  -0.000769  -0.000211  -0.000009   0.000054   0.000022
     5  C    0.025854   0.006228  -0.004565  -0.000125  -0.020153  -0.002392
     6  C   -0.164849   0.016801  -0.001816   0.000229   0.014461   0.010620
     7  C    0.003176  -0.024617  -0.012260  -0.000240   0.007721   0.000829
     8  C    0.000400  -0.000080   0.000043  -0.000009  -0.000337   0.000005
     9  C   -0.004010  -0.000420  -0.000992   0.000009   0.000119  -0.000013
    10  C    0.448365  -0.005335  -0.028206   0.000272  -0.002122  -0.024160
    11  H    0.007968  -0.000047   0.000011  -0.000002   0.000252  -0.000009
    12  O   -0.059946   0.000012   0.003299   0.000004   0.000499   0.033017
    13  O    7.890192   0.000206   0.005640   0.000003  -0.000312   0.001394
    14  H    0.000206   0.496725   0.403623   0.012273  -0.034954  -0.003907
    15  C    0.005640   0.403623   5.140842  -0.085685   0.384766  -0.020197
    16  O    0.000003   0.012273  -0.085685   8.063577   0.009490   0.000012
    17  H   -0.000312  -0.034954   0.384766   0.009490   0.484177   0.004376
    18  H    0.001394  -0.003907  -0.020197   0.000012   0.004376   0.277642
    19  O   -0.050784  -0.031684   0.159814   0.002622  -0.020931   0.288280
    20  C   -0.000749  -0.025944   0.237112   0.271256  -0.014446  -0.000187
    21  H   -0.000000  -0.000512   0.014003   0.307749  -0.000467  -0.000043
    22  H   -0.000021  -0.013603  -0.046668  -0.041221   0.008397   0.004587
    23  H    0.000136   0.009393  -0.047711  -0.040224  -0.014208  -0.001295
    24  H    0.300185   0.000151  -0.000714  -0.000000  -0.000179   0.000055
    25  C   -0.000011   0.000020   0.000022  -0.000000   0.000007   0.000002
    26  O    0.000000  -0.000000   0.000000   0.000000  -0.000000  -0.000000
    27  H   -0.000000   0.000000  -0.000000  -0.000000   0.000000   0.000000
    28  O    0.000000  -0.000000   0.000000   0.000000  -0.000000  -0.000000
    29  H   -0.000101  -0.000013  -0.000038   0.000000   0.000044   0.000000
              19         20         21         22         23         24
     1  H    0.000003  -0.000002  -0.000000  -0.000000   0.000000  -0.000000
     2  H    0.004060   0.000029   0.000000   0.000014  -0.000014   0.000295
     3  C   -0.001156   0.000046  -0.000001   0.000004   0.000004   0.000029
     4  H   -0.000378  -0.000042   0.000000   0.000026  -0.000007  -0.000005
     5  C    0.008809  -0.000340   0.000004  -0.000238   0.000392  -0.000968
     6  C   -0.125817   0.000317  -0.000010   0.000270  -0.000823   0.018065
     7  C    0.000979   0.000945   0.000009   0.000481  -0.000368  -0.001041
     8  C    0.000040  -0.000082   0.000000   0.000001   0.000002   0.000005
     9  C    0.001017   0.000047  -0.000000   0.000000   0.000004  -0.000019
    10  C    0.275527   0.007416  -0.000027  -0.001158   0.001517  -0.020412
    11  H    0.000009  -0.000062   0.000000   0.000001  -0.000007  -0.000265
    12  O   -0.134203   0.000096  -0.000001   0.000005  -0.000077  -0.002640
    13  O   -0.050784  -0.000749  -0.000000  -0.000021   0.000136   0.300185
    14  H   -0.031684  -0.025944  -0.000512  -0.013603   0.009393   0.000151
    15  C    0.159814   0.237112   0.014003  -0.046668  -0.047711  -0.000714
    16  O    0.002622   0.271256   0.307749  -0.041221  -0.040224  -0.000000
    17  H   -0.020931  -0.014446  -0.000467   0.008397  -0.014208  -0.000179
    18  H    0.288280  -0.000187  -0.000043   0.004587  -0.001295   0.000055
    19  O    7.781784  -0.016789  -0.000300   0.002303   0.002206  -0.001355
    20  C   -0.016789   4.795178  -0.033485   0.437447   0.438457  -0.000045
    21  H   -0.000300  -0.033485   0.362401  -0.004160  -0.003876  -0.000000
    22  H    0.002303   0.437447  -0.004160   0.549440  -0.049675  -0.000050
    23  H    0.002206   0.438457  -0.003876  -0.049675   0.548901   0.000212
    24  H   -0.001355  -0.000045  -0.000000  -0.000050   0.000212   0.317367
    25  C   -0.000004   0.000000  -0.000000  -0.000000   0.000000   0.000001
    26  O   -0.000000   0.000000  -0.000000   0.000000  -0.000000  -0.000000
    27  H   -0.000000   0.000000   0.000000  -0.000000  -0.000000   0.000000
    28  O   -0.000000   0.000000   0.000000  -0.000000  -0.000000  -0.000000
    29  H    0.000001  -0.000000  -0.000000   0.000000  -0.000000  -0.000000
              25         26         27         28         29
     1  H   -0.010095   0.008557  -0.000205   0.000141  -0.000142
     2  H    0.000001   0.000000  -0.000000   0.000000   0.000000
     3  C   -0.026161   0.020448  -0.002593   0.002552   0.004942
     4  H    0.000012  -0.000071  -0.000001   0.000005   0.000043
     5  C    0.010083   0.000045  -0.000008   0.004514  -0.027705
     6  C   -0.006331  -0.000011   0.000023  -0.000553   0.006928
     7  C    0.000485  -0.000471  -0.000102   0.000413  -0.000242
     8  C    0.230251  -0.174607   0.026009  -0.159891  -0.035184
     9  C   -0.067796   0.007308  -0.000785   0.027197   0.413890
    10  C   -0.001170  -0.000012   0.000000  -0.000013  -0.000616
    11  H   -0.000225   0.000001  -0.000000  -0.000057  -0.002746
    12  O   -0.000014  -0.000000  -0.000000   0.000000  -0.000003
    13  O   -0.000011   0.000000  -0.000000   0.000000  -0.000101
    14  H    0.000020  -0.000000   0.000000  -0.000000  -0.000013
    15  C    0.000022   0.000000  -0.000000   0.000000  -0.000038
    16  O   -0.000000   0.000000  -0.000000   0.000000   0.000000
    17  H    0.000007  -0.000000   0.000000  -0.000000   0.000044
    18  H    0.000002  -0.000000   0.000000  -0.000000   0.000000
    19  O   -0.000004  -0.000000  -0.000000  -0.000000   0.000001
    20  C    0.000000   0.000000   0.000000   0.000000  -0.000000
    21  H   -0.000000  -0.000000   0.000000   0.000000  -0.000000
    22  H   -0.000000   0.000000  -0.000000  -0.000000   0.000000
    23  H    0.000000  -0.000000  -0.000000  -0.000000  -0.000000
    24  H    0.000001  -0.000000   0.000000  -0.000000  -0.000000
    25  C    4.418942   0.431660  -0.028668   0.699038  -0.012760
    26  O    0.431660   7.910551   0.298456  -0.087522   0.000729
    27  H   -0.028668   0.298456   0.334166   0.004031  -0.000067
    28  O    0.699038  -0.087522   0.004031   7.863157   0.015128
    29  H   -0.012760   0.000729  -0.000067   0.015128   0.451140
 Mulliken charges:
               1
     1  H    0.190710
     2  H    0.390032
     3  C   -0.156563
     4  H    0.202911
     5  C   -0.124160
     6  C   -0.033808
     7  C   -0.149072
     8  C    0.044550
     9  C   -0.159339
    10  C    0.309542
    11  H    0.197352
    12  O   -0.485692
    13  O   -0.404159
    14  H    0.194657
    15  C   -0.098842
    16  O   -0.500002
    17  H    0.194091
    18  H    0.431068
    19  O   -0.144053
    20  C   -0.096174
    21  H    0.358715
    22  H    0.153817
    23  H    0.157064
    24  H    0.391328
    25  C    0.362712
    26  O   -0.415060
    27  H    0.369744
    28  O   -0.368140
    29  H    0.186772
 Sum of Mulliken charges =   1.00000
 Mulliken charges with hydrogens summed into heavy atoms:
               1
     3  C    0.034147
     5  C    0.073192
     6  C   -0.033808
     7  C    0.053839
     8  C    0.044550
     9  C    0.027433
    10  C    0.309542
    12  O   -0.095660
    13  O   -0.012831
    15  C    0.289906
    16  O   -0.141287
    19  O    0.287015
    20  C    0.214707
    25  C    0.362712
    26  O   -0.045317
    28  O   -0.368140
 Electronic spatial extent (au):  <R**2>=           4660.7279
 Charge=              1.0000 electrons
 Dipole moment (field-independent basis, Debye):
    X=              4.7122    Y=            -13.2315    Z=              3.9115  Tot=             14.5800
 Quadrupole moment (field-independent basis, Debye-Ang):
   XX=            -67.0351   YY=            -60.6016   ZZ=            -69.0667
   XY=            -16.9332   XZ=              8.9604   YZ=            -19.7039
 Traceless Quadrupole moment (field-independent basis, Debye-Ang):
   XX=             -1.4673   YY=              4.9662   ZZ=             -3.4990
   XY=            -16.9332   XZ=              8.9604   YZ=            -19.7039
 Octapole moment (field-independent basis, Debye-Ang**2):
  XXX=            103.3409  YYY=           -163.1233  ZZZ=             14.8572  XYY=             37.8386
  XXY=            -73.0375  XXZ=             -7.7240  XZZ=            -15.9996  YZZ=             -5.9019
  YYZ=             20.2488  XYZ=             25.0038
 Hexadecapole moment (field-independent basis, Debye-Ang**3):
 XXXX=          -1364.4221 YYYY=          -2522.7122 ZZZZ=           -838.4756 XXXY=            317.9393
 XXXZ=           -170.4118 YYYX=            622.9138 YYYZ=            212.8695 ZZZX=            -77.7401
 ZZZY=            232.8336 XXYY=           -519.5786 XXZZ=           -447.9166 YYZZ=           -328.7733
 XXYZ=             88.9675 YYXZ=              5.0159 ZZXY=            139.0568
 N-N= 1.135589887902D+03 E-N=-4.220275405482D+03  KE= 8.363541427675D+02
   1 Symmetry operations used in ECPInt.
 ECPInt:  NShTT=   26106 NPrTT=   79792 LenC2=   23002 LenP2D=   51285.
 LDataN:  DoStor=T MaxTD1= 7 Len=  274
 D1PCM: PCM CHGder 1st derivatives, ID1Alg=3 FixD1E=F DoIter=F DoCFld=F I1PDM=0.
 Calling FoFJK, ICntrl=      2127 FMM=F ISym2X=0 I1Cent= 0 IOpClX= 0 NMat=1 NMatS=1 NMatT=0.
 -------------------------------------------------------------------
 Center     Atomic                   Forces (Hartrees/Bohr)
 Number     Number              X              Y              Z
 -------------------------------------------------------------------
      1        1          -0.000012471    0.000018650   -0.000007318
      2        1          -0.002326250    0.002596338    0.000919101
      3        6           0.000137701    0.000035262   -0.000177839
      4        1          -0.000124107   -0.000038236    0.000140227
      5        6           0.000776525   -0.001049572    0.000040457
      6        6           0.001182211   -0.002353839   -0.000345299
      7        6           0.000072812    0.000194555    0.000096703
      8        6           0.000015916   -0.000039568   -0.000019216
      9        6           0.000116656   -0.000428639    0.000142949
     10        6          -0.022006944   -0.018827098   -0.004449997
     11        1          -0.000025702   -0.000032781    0.000033030
     12        8          -0.018674760    0.012584458    0.011237653
     13        8           0.004127141    0.000774630   -0.002199740
     14        1           0.000009256    0.000147237   -0.000019825
     15        6           0.005252317    0.003760786   -0.001724489
     16        8           0.000598687   -0.000072190   -0.000288391
     17        1           0.000339602    0.000240148   -0.000101954
     18        1           0.012224448   -0.001047714   -0.002385514
     19        8           0.016951372    0.004465673   -0.000099858
     20        6           0.002709780    0.000330363   -0.000680725
     21        1           0.000096930    0.000120305   -0.000119281
     22        1           0.000408876   -0.000020406   -0.000107500
     23        1           0.000071189    0.000010317    0.000000739
     24        1          -0.001868820   -0.001339388    0.000044298
     25        6          -0.000007633   -0.000063937    0.000076242
     26        8          -0.000008544    0.000020645   -0.000020333
     27        1          -0.000002979    0.000003389    0.000006899
     28        8          -0.000003277    0.000050747   -0.000030850
     29        1          -0.000029934   -0.000040137    0.000039829
 -------------------------------------------------------------------
 Cartesian Forces:  Max     0.022006944 RMS     0.004864714

 GradGradGradGradGradGradGradGradGradGradGradGradGradGradGradGradGradGrad
 Berny optimization.
 FormGI is forming the generalized inverse of G from B-inverse, IUseBI=4.
 Internal  Forces:  Max     0.020681456 RMS     0.003084876
 Search for a local minimum.
 Step number   1 out of a maximum of  162
 All quantities printed in internal units (Hartrees-Bohrs-Radians)
 Mixed Optimization -- RFO/linear search
 Second derivative matrix not updated -- first step.
 ITU=  0
     Eigenvalues ---    0.00638   0.00643   0.00685   0.00865   0.01005
     Eigenvalues ---    0.01423   0.01591   0.01604   0.01818   0.02191
     Eigenvalues ---    0.02211   0.02229   0.02238   0.02249   0.02255
     Eigenvalues ---    0.02263   0.02266   0.02510   0.02559   0.04394
     Eigenvalues ---    0.05062   0.05488   0.05792   0.05865   0.06185
     Eigenvalues ---    0.06473   0.08251   0.08892   0.09029   0.10742
     Eigenvalues ---    0.11008   0.12167   0.12224   0.13396   0.14352
     Eigenvalues ---    0.15999   0.16000   0.16000   0.16000   0.16000
     Eigenvalues ---    0.16000   0.16000   0.18711   0.21954   0.21955
     Eigenvalues ---    0.22000   0.22986   0.24000   0.25000   0.25000
     Eigenvalues ---    0.25000   0.25000   0.29054   0.31382   0.31740
     Eigenvalues ---    0.33179   0.34308   0.34509   0.35074   0.35205
     Eigenvalues ---    0.35840   0.35860   0.35898   0.35957   0.37999
     Eigenvalues ---    0.38187   0.42997   0.43298   0.44380   0.47107
     Eigenvalues ---    0.47271   0.47329   0.47601   0.48268   0.53392
     Eigenvalues ---    0.53470   0.54004   0.54964   0.57623   0.58466
     Eigenvalues ---    1.03175
 RFO step:  Lambda=-9.52246808D-03 EMin= 6.37838180D-03
 Linear search not attempted -- first point.
 Iteration  1 RMS(Cart)=  0.06308538 RMS(Int)=  0.00104488
 Iteration  2 RMS(Cart)=  0.00273447 RMS(Int)=  0.00027128
 Iteration  3 RMS(Cart)=  0.00000173 RMS(Int)=  0.00027128
 Iteration  4 RMS(Cart)=  0.00000000 RMS(Int)=  0.00027128
 Variable       Old X    -DE/DX   Delta X   Delta X   Delta X     New X
                                 (Linear)    (Quad)   (Total)
    R1        2.04149   0.00001   0.00000   0.00004   0.00004   2.04152
    R2        1.82728   0.00068   0.00000   0.00123   0.00123   1.82851
    R3        2.61660   0.00000   0.00000   0.00007   0.00007   2.61667
    R4        2.62886   0.00002   0.00000   0.00015   0.00015   2.62900
    R5        2.04332  -0.00001   0.00000  -0.00003  -0.00003   2.04330
    R6        2.62920  -0.00125   0.00000  -0.00270  -0.00270   2.62650
    R7        2.61648  -0.00043   0.00000  -0.00093  -0.00093   2.61555
    R8        2.04241   0.00002   0.00000   0.00005   0.00005   2.04245
    R9        2.62797  -0.00020   0.00000  -0.00046  -0.00045   2.62752
   R10        2.84622  -0.00364   0.00000  -0.01113  -0.01113   2.83509
   R11        2.62642   0.00012   0.00000   0.00028   0.00028   2.62670
   R12        2.82037   0.00000   0.00000   0.00000   0.00000   2.82038
   R13        2.04301  -0.00003   0.00000  -0.00007  -0.00007   2.04294
   R14        2.68196  -0.01440   0.00000  -0.03414  -0.03393   2.64803
   R15        2.52873  -0.00227   0.00000  -0.00387  -0.00387   2.52486
   R16        2.83183   0.01393   0.00000   0.05301   0.05373   2.88556
   R17        3.22792   0.02068   0.00000   0.20800   0.20725   3.43517
   R18        1.83289  -0.00001   0.00000  -0.00003  -0.00003   1.83287
   R19        2.05555   0.00003   0.00000   0.00009   0.00009   2.05564
   R20        2.05343   0.00020   0.00000   0.00054   0.00054   2.05397
   R21        2.74367   0.01028   0.00000   0.02639   0.02639   2.77006
   R22        2.85289   0.00313   0.00000   0.00968   0.00968   2.86257
   R23        2.66002   0.00069   0.00000   0.00152   0.00152   2.66154
   R24        1.81864   0.00003   0.00000   0.00006   0.00006   1.81870
   R25        1.86841   0.00213   0.00000   0.00614   0.00610   1.87450
   R26        2.06813  -0.00001   0.00000  -0.00003  -0.00003   2.06810
   R27        2.06480   0.00003   0.00000   0.00008   0.00008   2.06488
   R28        2.52175   0.00001   0.00000   0.00002   0.00002   2.52177
   R29        2.27393   0.00003   0.00000   0.00003   0.00003   2.27397
   R30        1.83218   0.00000   0.00000   0.00000   0.00000   1.83218
    A1        2.09609   0.00016   0.00000   0.00053   0.00053   2.09662
    A2        2.09677   0.00012   0.00000   0.00028   0.00028   2.09705
    A3        2.09032  -0.00028   0.00000  -0.00082  -0.00082   2.08950
    A4        2.08326  -0.00020   0.00000  -0.00118  -0.00118   2.08209
    A5        2.09775   0.00006   0.00000   0.00037   0.00037   2.09812
    A6        2.10216   0.00014   0.00000   0.00081   0.00080   2.10297
    A7        2.10963   0.00065   0.00000   0.00228   0.00227   2.11191
    A8        2.09185  -0.00196   0.00000  -0.00746  -0.00747   2.08438
    A9        2.08169   0.00131   0.00000   0.00514   0.00512   2.08681
   A10        2.09648   0.00020   0.00000   0.00095   0.00095   2.09743
   A11        2.08637  -0.00024   0.00000  -0.00091  -0.00090   2.08547
   A12        2.10030   0.00003   0.00000  -0.00005  -0.00005   2.10025
   A13        2.10302  -0.00001   0.00000   0.00027   0.00027   2.10330
   A14        2.12091   0.00004   0.00000  -0.00001  -0.00001   2.12090
   A15        2.05925  -0.00003   0.00000  -0.00027  -0.00027   2.05898
   A16        2.09375   0.00008   0.00000   0.00035   0.00034   2.09410
   A17        2.10640  -0.00008   0.00000  -0.00042  -0.00042   2.10598
   A18        2.08303   0.00000   0.00000   0.00007   0.00007   2.08310
   A19        1.97791  -0.00252   0.00000  -0.00585  -0.00553   1.97239
   A20        1.95145   0.00386   0.00000  -0.00252  -0.00329   1.94816
   A21        1.97300  -0.00558   0.00000  -0.03243  -0.03350   1.93950
   A22        2.02751  -0.00271   0.00000  -0.01085  -0.01089   2.01661
   A23        1.59485   0.01006   0.00000   0.08555   0.08633   1.68119
   A24        1.91150  -0.00299   0.00000  -0.02421  -0.02479   1.88671
   A25        1.94785  -0.00085   0.00000  -0.01611  -0.01483   1.93302
   A26        2.22228   0.00194   0.00000   0.02691   0.02546   2.24774
   A27        1.28728  -0.00228   0.00000  -0.05174  -0.05212   1.23516
   A28        1.95387  -0.00019   0.00000  -0.00110  -0.00110   1.95277
   A29        1.93428   0.00063   0.00000  -0.00380  -0.00386   1.93042
   A30        1.90176  -0.00163   0.00000  -0.00365  -0.00370   1.89806
   A31        1.96332  -0.00095   0.00000  -0.00245  -0.00252   1.96080
   A32        1.84595  -0.00130   0.00000  -0.00335  -0.00330   1.84265
   A33        1.95521  -0.00155   0.00000  -0.00933  -0.00936   1.94586
   A34        1.85709   0.00493   0.00000   0.02382   0.02381   1.88090
   A35        1.90076   0.00035   0.00000   0.00208   0.00208   1.90284
   A36        1.70946   0.00002   0.00000  -0.00505  -0.00565   1.70381
   A37        2.15121   0.00395   0.00000   0.01190   0.01181   2.16301
   A38        1.69004  -0.00772   0.00000  -0.02871  -0.02852   1.66152
   A39        2.03272   0.00511   0.00000   0.03440   0.03417   2.06689
   A40        1.82901   0.00034   0.00000   0.00153   0.00153   1.83054
   A41        1.91623   0.00035   0.00000   0.00313   0.00313   1.91936
   A42        1.91249  -0.00012   0.00000  -0.00033  -0.00033   1.91216
   A43        1.94915  -0.00038   0.00000  -0.00259  -0.00260   1.94656
   A44        1.95683  -0.00013   0.00000  -0.00113  -0.00113   1.95570
   A45        1.89903  -0.00004   0.00000  -0.00041  -0.00041   1.89862
   A46        1.97088   0.00003   0.00000   0.00010   0.00010   1.97098
   A47        2.16283   0.00004   0.00000   0.00015   0.00015   2.16299
   A48        2.14947  -0.00006   0.00000  -0.00025  -0.00025   2.14922
   A49        1.89217  -0.00002   0.00000  -0.00009  -0.00009   1.89208
    D1       -0.00666  -0.00001   0.00000  -0.00012  -0.00011  -0.00677
    D2       -3.13939   0.00000   0.00000   0.00034   0.00034  -3.13906
    D3        3.13074  -0.00006   0.00000  -0.00165  -0.00164   3.12910
    D4       -0.00199  -0.00005   0.00000  -0.00120  -0.00119  -0.00318
    D5        3.13733  -0.00000   0.00000   0.00011   0.00011   3.13744
    D6       -0.00302   0.00000   0.00000   0.00024   0.00024  -0.00278
    D7       -0.00007   0.00005   0.00000   0.00164   0.00164   0.00157
    D8       -3.14042   0.00006   0.00000   0.00177   0.00177  -3.13865
    D9       -0.00083   0.00008   0.00000   0.00319   0.00319   0.00236
   D10        3.13521  -0.00014   0.00000  -0.00545  -0.00542   3.12979
   D11        3.13687   0.00003   0.00000   0.00177   0.00177   3.13864
   D12       -0.01028  -0.00018   0.00000  -0.00687  -0.00685  -0.01713
   D13       -0.00125  -0.00008   0.00000  -0.00273  -0.00273  -0.00398
   D14        3.13923  -0.00007   0.00000  -0.00235  -0.00235   3.13688
   D15       -3.13895  -0.00003   0.00000  -0.00131  -0.00130  -3.14024
   D16        0.00154  -0.00003   0.00000  -0.00092  -0.00092   0.00062
   D17        0.00246  -0.00001   0.00000  -0.00122  -0.00123   0.00123
   D18       -3.13025  -0.00000   0.00000  -0.00077  -0.00078  -3.13103
   D19       -3.13361   0.00021   0.00000   0.00741   0.00744  -3.12617
   D20        0.01686   0.00022   0.00000   0.00786   0.00789   0.02475
   D21        2.74778  -0.00321   0.00000  -0.02080  -0.02086   2.72692
   D22        0.41573  -0.00060   0.00000   0.00308   0.00316   0.41889
   D23       -1.75108   0.00466   0.00000   0.06237   0.06234  -1.68874
   D24       -0.39928  -0.00342   0.00000  -0.02930  -0.02936  -0.42864
   D25       -2.73133  -0.00082   0.00000  -0.00543  -0.00534  -2.73667
   D26        1.38504   0.00444   0.00000   0.05387   0.05385   1.43889
   D27        0.00171   0.00001   0.00000   0.00035   0.00034   0.00205
   D28       -3.13879   0.00001   0.00000  -0.00003  -0.00003  -3.13882
   D29       -3.14109   0.00001   0.00000   0.00022   0.00022  -3.14087
   D30        0.00160  -0.00000   0.00000  -0.00016  -0.00015   0.00145
   D31       -0.00505  -0.00001   0.00000  -0.00022  -0.00022  -0.00528
   D32        3.13733  -0.00000   0.00000   0.00008   0.00008   3.13741
   D33        3.13776   0.00000   0.00000  -0.00010  -0.00010   3.13766
   D34       -0.00304   0.00001   0.00000   0.00020   0.00020  -0.00284
   D35       -2.11907   0.00029   0.00000   0.02077   0.02138  -2.09769
   D36        1.99420  -0.00123   0.00000   0.00493   0.00510   1.99930
   D37        0.17612   0.00074   0.00000  -0.00005   0.00016   0.17628
   D38       -1.99380  -0.00078   0.00000  -0.01589  -0.01612  -2.00992
   D39        2.14130   0.00217   0.00000   0.01629   0.01666   2.15796
   D40       -0.02862   0.00064   0.00000   0.00045   0.00038  -0.02823
   D41       -2.83498   0.00010   0.00000  -0.02435  -0.02419  -2.85917
   D42        1.14074   0.00257   0.00000  -0.00236  -0.00228   1.13846
   D43       -0.63411  -0.00660   0.00000  -0.08665  -0.08689  -0.72100
   D44        0.25429   0.00079   0.00000   0.00226   0.00273   0.25701
   D45       -1.97931  -0.00167   0.00000  -0.02612  -0.02541  -2.00473
   D46        2.28142   0.00156   0.00000   0.02966   0.02939   2.31081
   D47        0.04782  -0.00090   0.00000   0.00129   0.00125   0.04907
   D48       -1.93423   0.00215   0.00000   0.04821   0.04779  -1.88645
   D49        2.11535  -0.00031   0.00000   0.01983   0.01965   2.13500
   D50       -1.79012   0.00205   0.00000   0.05957   0.06041  -1.72972
   D51        0.04379  -0.00083   0.00000  -0.00013  -0.00020   0.04359
   D52       -1.16554   0.00176   0.00000  -0.00505  -0.00528  -1.17083
   D53        0.91205  -0.00103   0.00000  -0.00220  -0.00195   0.91010
   D54        0.91463   0.00094   0.00000  -0.01324  -0.01349   0.90114
   D55        2.99222  -0.00184   0.00000  -0.01039  -0.01016   2.98207
   D56        2.99673   0.00093   0.00000  -0.01400  -0.01424   2.98250
   D57       -1.20886  -0.00186   0.00000  -0.01115  -0.01090  -1.21976
   D58        1.04644  -0.00059   0.00000  -0.00739  -0.00739   1.03905
   D59       -1.04921  -0.00052   0.00000  -0.00681  -0.00681  -1.05602
   D60       -3.13396  -0.00061   0.00000  -0.00802  -0.00802   3.14121
   D61       -1.14625   0.00055   0.00000   0.00711   0.00708  -1.13917
   D62        3.04128   0.00062   0.00000   0.00769   0.00766   3.04895
   D63        0.95654   0.00053   0.00000   0.00648   0.00645   0.96299
   D64        3.12761   0.00002   0.00000   0.00199   0.00202   3.12963
   D65        1.03196   0.00009   0.00000   0.00257   0.00260   1.03455
   D66       -1.05279  -0.00000   0.00000   0.00136   0.00138  -1.05140
   D67       -3.13108  -0.00015   0.00000  -0.00126  -0.00126  -3.13234
   D68       -1.05751   0.00028   0.00000   0.00205   0.00204  -1.05547
   D69        1.07901  -0.00014   0.00000  -0.00121  -0.00121   1.07780
   D70       -0.04010   0.00124   0.00000   0.00213   0.00218  -0.03792
   D71       -2.35403  -0.00091   0.00000  -0.01183  -0.01146  -2.36549
   D72       -3.14133   0.00000   0.00000   0.00013   0.00013  -3.14120
   D73       -0.00052  -0.00000   0.00000  -0.00017  -0.00017  -0.00069
         Item               Value     Threshold  Converged?
 Maximum Force            0.020681     0.000450     NO 
 RMS     Force            0.003085     0.000300     NO 
 Maximum Displacement     0.266133     0.001800     NO 
 RMS     Displacement     0.064834     0.001200     NO 
 Predicted change in Energy=-5.168707D-03
 GradGradGradGradGradGradGradGradGradGradGradGradGradGradGradGradGradGrad

                          Input orientation:                          
 ---------------------------------------------------------------------
 Center     Atomic      Atomic             Coordinates (Angstroms)
 Number     Number       Type             X           Y           Z
 ---------------------------------------------------------------------
      1          1           0       -1.884451    0.521999   -2.365754
      2          1           0       -1.419468   -3.245085    1.621476
      3          6           0       -1.466478    0.584783   -1.371540
      4          1           0       -1.289920   -1.537980   -1.138586
      5          6           0       -0.395815    0.763590    1.196444
      6          6           0       -0.595701   -0.473460    0.595165
      7          6           0       -1.129911   -0.569615   -0.684930
      8          6           0       -1.270449    1.825242   -0.772962
      9          6           0       -0.737794    1.914477    0.507812
     10          6           0       -0.211895   -1.722180    1.332855
     11          1           0        0.017803    0.823363    2.193197
     12          8           0       -0.912957   -2.853987    0.895697
     13          8           0       -0.197564   -1.528348    2.654740
     14          1           0        1.736845   -1.216043   -0.838251
     15          6           0        2.132071   -1.391952    0.159828
     16          8           0        4.317441   -1.311649   -0.609540
     17          1           0        2.212854   -0.457697    0.709394
     18          1           0        0.850381   -3.052570    0.501177
     19          8           0        1.172489   -2.207928    0.909563
     20          6           0        3.451072   -2.136402    0.134005
     21          1           0        5.179052   -1.736077   -0.670644
     22          1           0        3.319732   -3.113186   -0.341743
     23          1           0        3.805718   -2.287851    1.156385
     24          1           0        0.281920   -2.232615    3.118239
     25          6           0       -1.622387    3.094551   -1.474736
     26          8           0       -2.119877    2.892481   -2.696400
     27          1           0       -2.324151    3.754562   -3.090243
     28          8           0       -1.475211    4.189188   -0.997122
     29          1           0       -0.595802    2.887949    0.956057
 ---------------------------------------------------------------------
                    Distance matrix (angstroms):
                    1          2          3          4          5
     1  H    0.000000
     2  H    5.505010   0.000000
     3  C    1.080327   4.860889   0.000000
     4  H    2.470410   3.247912   2.142793   0.000000
     5  C    3.868289   4.159085   2.787980   3.398383   0.000000
     6  C    3.379181   3.068193   2.397094   2.149659   1.389886
     7  C    2.141523   3.544219   1.384682   1.081266   2.419897
     8  C    2.147656   5.609256   1.391208   3.383093   2.402218
     9  C    3.392816   5.322218   2.414752   3.864573   1.384090
    10  C    4.638264   1.964885   3.769590   2.702607   2.496295
    11  H    4.949084   4.352572   3.868767   4.287990   1.080819
    12  O    4.793553   0.967608   4.155946   2.451996   3.666708
    13  O    5.679338   2.346885   4.720847   3.947487   2.723768
    14  H    4.297423   4.486600   3.713307   3.058619   3.550657
    15  C    5.116076   4.264264   4.382023   3.662953   3.480106
    16  O    6.701494   6.451955   6.134396   5.636808   5.457378
    17  H    5.215769   4.668532   4.353680   4.105054   2.921286
    18  H    5.336305   2.538572   4.701621   3.092522   4.074246
    19  O    5.246436   2.881103   4.468423   3.272186   3.372209
    20  C    6.464032   5.211901   5.818403   4.945160   4.933282
    21  H    7.606930   7.146424   7.073946   6.488898   6.388544
    22  H    6.662936   5.131437   6.135411   4.936104   5.585759
    23  H    7.258013   5.332463   6.514482   5.638680   5.192858
    24  H    6.508091   2.481958   5.581464   4.590616   3.623515
    25  C    2.735071   7.058235   2.516723   4.656595   3.751408
    26  O    2.404981   7.536865   2.740010   4.769129   4.760126
    27  H    3.341808   8.486095   3.706352   5.734945   5.571362
    28  O    3.935594   7.882168   3.623810   5.731910   4.208509
    29  H    4.277004   6.223770   3.388267   4.945521   2.147250
                    6          7          8          9         10
     6  C    0.000000
     7  C    1.390421   0.000000
     8  C    2.758820   2.400592   0.000000
     9  C    2.393755   2.783362   1.389988   0.000000
    10  C    1.500265   2.498523   4.259015   3.765971   0.000000
    11  H    2.147521   3.397242   3.385477   2.145222   2.696802
    12  O    2.420305   2.786361   4.980704   4.787419   1.401279
    13  O    2.348010   3.597477   4.913938   4.093188   1.336098
    14  H    2.836703   2.942732   4.277557   4.211399   2.960991
    15  C    2.910994   3.468485   4.774681   4.392003   2.641822
    16  O    5.127654   5.498176   6.410250   6.100145   4.945333
    17  H    2.810921   3.623637   4.420700   3.791328   2.804823
    18  H    2.958343   3.390202   5.469406   5.214777   1.894744
    19  O    2.496741   3.244614   5.006525   4.561228   1.526972
    20  C    4.399365   4.910284   6.229765   5.839174   3.876358
    21  H    6.045183   6.415906   7.368142   7.051551   5.751218
    22  H    4.814205   5.136814   6.756019   6.516338   4.148683
    23  H    4.793690   5.541048   6.812296   6.222837   4.061076
    24  H    3.198553   4.384397   5.832452   5.005249   1.921456
    25  C    4.250798   3.780534   1.492478   2.470946   5.750909
    26  O    4.948441   4.124578   2.357995   3.624033   6.416415
    27  H    5.869067   5.090211   3.194113   4.341479   7.349839
    28  O    5.004918   4.781517   2.383362   2.825406   6.478351
    29  H    3.380727   3.864306   2.138691   1.081080   4.641407
                   11         12         13         14         15
    11  H    0.000000
    12  O    4.009081   0.000000
    13  O    2.406232   2.315888   0.000000
    14  H    4.037816   3.565234   4.005054   0.000000
    15  C    3.675913   3.457058   3.416195   1.087800   0.000000
    16  O    5.558821   5.656997   5.575639   2.592474   2.318235
    17  H    2.942963   3.943046   3.277313   1.787982   1.086914
    18  H    4.310334   1.817813   2.838886   2.439820   2.125301
    19  O    3.488515   2.183271   2.320455   2.087388   1.465851
    20  C    4.978737   4.487746   4.476202   2.175067   1.514806
[...]
 0000363,0.00001068,0.00002596,0.00000051,0.00002027,-0.00002221,-0.000
 02727,0.00000217,-0.00001058,0.00000041,-0.00000677,-0.00000417,0.0000
 1360,0.00000319,-0.00000490,-0.00006437,-0.00004577,0.00009360,-0.0000
 0318,0.00000288,0.00000528,0.00004513,0.00005010,-0.00001327,-0.000010
 11,0.00000730,-0.00006336,0.00136502,-0.00033143,-0.00040254,0.0059065
 6,-0.00699999,0.00848839,-0.00081176,-0.02907444,0.02247677,-0.0004394
 3,0.00031232,0.00023455,0.00008558,-0.00001847,-0.00012200,-0.00030010
 ,0.00149456,-0.00086971,0.05691485,-0.12771197,0.09905053,0.00122947,0
 .00042360,-0.00102428,-0.00540809,0.01071628,-0.01122703,-0.05849107,0
 .15115673,0.00000139,-0.00000053,0.00000017,0.00000531,0.00001002,-0.0
 0000382,-0.00000638,0.00000116,-0.00000100,0.00000095,-0.00000014,0.00
 000079,0.00001557,0.00000628,0.00000965,0.00003465,-0.00000375,-0.0000
 1433,-0.00000648,0.00000321,-0.00001798,-0.00000289,0.00000513,0.00000
 457,-0.00000377,0.00000823,-0.00001069,0.00009748,-0.00006860,-0.00000
 495,-0.00000071,-0.00000466,-0.00000248,-0.00004316,-0.00000102,0.0000
 1146,-0.00003590,0.00001535,0.00000828,0.00231365,-0.00052864,0.000829
 02,0.00558661,-0.00588866,0.00689451,0.00485833,0.00618755,0.00260977,
 -0.00067232,0.00001628,0.00113384,0.00019278,0.00010356,-0.00016577,-0
 .00150391,-0.00081430,0.00038899,-0.07574895,0.10243315,-0.19031756,0.
 00006361,0.00054230,0.00018283,-0.01279057,0.01460908,-0.01954095,0.07
 764356,-0.11663381,0.19801623,-0.00006311,0.00006406,0.00001992,-0.002
 98939,-0.00169991,-0.00209511,-0.00062155,-0.00013834,0.00007022,0.000
 11456,-0.00005037,-0.00009247,-0.00028906,-0.00022323,0.00035465,0.003
 00562,-0.00329222,-0.00348945,0.00082675,0.00045693,-0.00074915,0.0000
 8011,-0.00014020,0.00014898,0.00017732,0.00007117,0.00007384,-0.004302
 07,0.02202404,-0.01924393,-0.00004059,0.00029939,0.00021950,-0.0017541
 9,0.00145743,0.00410318,-0.02101677,-0.00873702,-0.00833854,0.00000940
 ,0.00004149,-0.00002881,-0.00010480,-0.00018187,0.00001054,0.00002397,
 0.00001191,-0.00001605,0.00007554,-0.00003148,0.00000235,0.00008526,0.
 00007547,-0.00008840,-0.00016625,0.00009486,-0.00012646,0.00000298,0.0
 0002567,0.00002034,0.00000047,0.00000167,0.00000529,-0.00001214,0.0000
 0378,0.00000066,-0.00001784,0.00000769,0.00000069,0.02696035,0.0000016
 3,0.00001961,-0.00004494,-0.00102464,-0.00291977,-0.00266830,0.0003011
 3,0.00055069,-0.00013852,-0.00002879,0.00001332,0.00009730,-0.00026655
 ,-0.00047902,-0.00048043,-0.00238610,0.00295623,-0.00262268,0.00012390
 ,0.00017550,0.00067063,-0.00014909,0.00011074,-0.00036069,-0.00000252,
 -0.00000857,0.00001147,0.00247556,0.00800634,0.00132284,0.00014314,0.0
 0016520,0.00013269,-0.00189801,-0.00267286,-0.00441098,0.01266610,-0.3
 6117302,0.22507627,-0.00001015,-0.00001067,0.00001377,-0.00005925,-0.0
 0006743,0.00004580,0.00004485,0.00000733,-0.00000973,-0.00006153,-0.00
 001739,0.00001980,0.00008705,0.00002117,0.00001268,0.00024134,-0.00042
 139,-0.00045414,-0.00004984,0.00000809,0.00001483,-0.00000183,0.000005
 97,0.00000030,0.00001022,-0.00000234,-0.00000731,0.00001492,-0.0000058
 5,0.00000325,-0.01018964,0.35585990,0.00005990,0.00002062,-0.00000944,
 -0.00267335,-0.00425353,-0.00120061,0.00004202,-0.00062585,-0.00028421
 ,-0.00012308,0.00002156,-0.00007073,0.00051346,-0.00020217,0.00030713,
 -0.00392020,-0.00381736,0.00134711,-0.00066793,0.00090700,-0.00053993,
 0.00003268,-0.00037887,0.00038236,0.00015891,0.00007604,0.00039418,-0.
 00813459,0.03598100,-0.03902828,0.00026380,0.00043320,0.00017248,0.006
 25253,0.00143942,0.00537938,-0.02049096,0.18649430,-0.15822599,-0.0000
 3768,-0.00010061,0.00002626,0.00033386,0.00068462,0.00001387,-0.000236
 89,-0.00005584,0.00004620,0.00012119,0.00002616,-0.00005217,-0.0001947
 4,-0.00021465,0.00005600,-0.00067978,-0.00011002,0.00081155,0.00017980
 ,-0.00011084,0.00000184,0.00000124,-0.00002654,-0.00000020,-0.00002441
 ,0.00000830,0.00001950,-0.00002399,0.00001251,-0.00001020,0.02925800,-
 0.21634981,0.19054302,-0.00368873,0.00018524,0.00098275,0.00001625,0.0
 0007804,-0.00004404,0.00526595,-0.00786412,0.00890940,-0.00017438,-0.0
 0039895,0.00059915,0.00515568,-0.00039573,-0.00659720,-0.00143577,-0.0
 0177141,-0.00052522,0.00568983,-0.00506402,-0.00345342,-0.09061174,0.0
 0654417,-0.00930421,0.00460956,0.01191705,-0.00614221,-0.00151095,0.00
 117138,-0.00033907,-0.00026031,0.00065340,-0.00017545,-0.00000322,-0.0
 0064329,0.00006487,0.00030081,-0.00007360,0.00026769,0.00000636,-0.000
 00427,0.00002364,-0.00002215,-0.00000979,-0.00001455,0.00001578,-0.000
 01342,-0.00000239,-0.00000942,0.00000933,-0.00001170,-0.00001374,0.000
 02609,0.00001332,0.00011265,-0.00009316,0.00000970,-0.00000986,0.00001
 873,0.00000589,-0.00000259,0.00000305,0.00000315,0.00000197,-0.0000040
 7,-0.00000570,0.00000476,-0.00000641,0.00000210,-0.00000591,0.00003379
 ,-0.00004725,0.36001301,0.00101261,0.00033433,-0.00050744,-0.00020046,
 -0.00083326,0.00037172,-0.00193257,-0.02071857,0.01026065,0.00021490,0
 .00016961,0.00016199,-0.00324033,0.00140517,-0.00275316,-0.00117426,0.
 00728274,-0.00856064,-0.00266117,-0.00306719,0.00136377,0.00208189,-0.
 15900544,0.04656199,0.00707149,0.00687240,0.01350875,0.00157476,-0.013
 30290,0.00829866,-0.00005139,0.00111885,-0.00086173,0.00151699,0.00577
 753,-0.00043071,-0.00232258,0.00235499,-0.00525726,0.00024147,-0.00008
 823,-0.00022220,0.00054528,0.00040210,0.00003041,-0.00028756,-0.000116
 50,0.00006555,0.00016486,-0.00004156,0.00008232,0.00004624,-0.00027988
 ,-0.00014138,-0.00150856,0.00093110,0.00034953,0.00030758,0.00008333,-
 0.00008123,0.00001357,-0.00002053,-0.00000624,-0.00005946,0.00001349,0
 .00004076,-0.00008366,0.00002338,0.00000205,0.00023396,-0.00055361,0.0
 0074749,0.21230470,0.89497746,0.00050548,-0.00226551,-0.00180144,0.000
 17093,0.00064679,-0.00026673,0.00533908,-0.00245874,0.01595452,0.00023
 867,-0.00118248,0.00079222,-0.00481808,0.00320110,-0.00393687,-0.00108
 294,-0.00859515,0.00323433,-0.00480030,-0.00365814,0.00075142,-0.00668
 015,0.05575213,-0.13517497,-0.00331501,0.02362608,-0.01674206,-0.00073
 421,0.00945864,-0.00721273,0.00022996,0.00055597,-0.00022298,-0.001244
 05,-0.00448055,0.00045768,0.00167989,-0.00152010,0.00393036,-0.0001810
 3,0.00007768,0.00017578,-0.00040320,-0.00030241,-0.00001842,0.00020150
 ,0.00006020,-0.00006708,-0.00011187,0.00003449,-0.00007797,-0.00002554
 ,0.00020783,0.00012528,0.00116865,-0.00076246,-0.00026997,-0.00021393,
 -0.00002417,0.00007522,-0.00000690,0.00001864,0.00001319,0.00003964,-0
 .00002255,-0.00003429,0.00005769,-0.00001870,-0.00000278,-0.00015820,0
 .00042258,-0.00052621,0.18392083,0.05076974,0.57477398,0.00072687,-0.0
 0004562,0.00028474,-0.00001967,-0.00011295,0.00004430,-0.00064014,-0.0
 0078883,-0.00103969,0.00004664,0.00008411,-0.00008871,-0.00045777,-0.0
 0005451,0.00011498,0.00001830,0.00106977,-0.00085163,-0.00038741,0.000
 30094,0.00062563,0.00635718,0.00097845,-0.01226327,0.00130597,0.000980
 32,-0.00001008,0.00027633,-0.00167678,0.00111148,-0.00005094,0.0001485
 1,-0.00004491,0.00020575,0.00080979,-0.00007134,-0.00029725,0.00029152
 ,-0.00065513,0.00002711,-0.00001165,-0.00003497,0.00005928,0.00003766,
 0.00000582,-0.00003492,-0.00000230,0.00000509,0.00002287,-0.00000683,0
 .00001636,0.00000343,-0.00003901,-0.00001978,-0.00018670,0.00013653,0.
 00004093,0.00003601,0.00000081,-0.00000862,0.00000322,-0.00000423,-0.0
 0000041,-0.00000787,0.00000381,0.00000737,-0.00001168,0.00000534,-0.00
 000152,0.00002841,-0.00006909,0.00010082,-0.11075384,-0.02016878,-0.08
 512629,0.12935937,0.00066119,-0.00174235,0.00281929,0.00004539,0.00019
 205,-0.00007365,-0.00029689,-0.00522564,0.00239070,-0.00002714,-0.0000
 7071,0.00002118,0.00111504,0.00013678,0.00200473,0.00050601,-0.0013103
 1,0.00211888,0.00029744,0.00147093,-0.00069861,0.01390195,0.00473936,0
 .03364720,-0.00154204,-0.00598399,0.00084943,-0.00022369,0.00284815,-0
 .00167700,0.00002323,-0.00052728,0.00029137,-0.00035111,-0.00129641,0.
 00010815,0.00051776,-0.00059437,0.00122678,-0.00006317,0.00002251,0.00
 005547,-0.00010300,-0.00007762,-0.00000308,0.00006722,0.00002694,-0.00
 001359,-0.00004456,0.00000957,-0.00002583,-0.00001712,0.00006703,0.000
 02804,0.00031800,-0.00018907,-0.00007589,-0.00007484,-0.00002699,0.000
 01568,-0.00000420,0.00000452,0.00000105,0.00001622,-0.00000369,-0.0000
 1083,0.00002160,-0.00000617,-0.00000013,-0.00005359,0.00011742,-0.0001
 7437,-0.01243906,-0.12411120,0.00818712,0.06039859,0.53197331,-0.00013
 043,0.00134839,-0.00049378,-0.00008668,-0.00034532,0.00014230,-0.00134
 141,0.00140817,-0.00348818,-0.00002604,0.00025762,-0.00013176,-0.00058
 831,-0.00046628,-0.00142501,-0.00033923,0.00306000,-0.00299382,0.00061
 240,-0.00068655,0.00096117,-0.01986321,0.00627598,-0.03394987,0.001467
 72,0.00620054,0.00052022,0.00050142,-0.00515136,0.00342279,0.00001600,
 0.00058222,-0.00033207,0.00065852,0.00244992,-0.00022077,-0.00090245,0
 .00096044,-0.00211929,0.00010505,-0.00004338,-0.00010789,0.00019217,0.
 00014366,0.00000157,-0.00011006,-0.00003150,0.00003854,0.00007690,-0.0
 0002259,0.00005458,0.00001689,-0.00011636,-0.00006603,-0.00059638,0.00
 038740,0.00015279,0.00012214,0.00002554,-0.00003995,0.00000450,-0.0000
 1034,-0.00000900,-0.00002680,0.00001480,0.00002188,-0.00003540,0.00001
 170,0.00000173,0.00009999,-0.00021868,0.00031000,-0.08967317,-0.008222
 03,-0.25007912,0.15982657,-0.16222652,0.47089107,-0.00004271,0.0002707
 9,0.00024272,0.00000106,0.00001015,-0.00000160,-0.00023439,-0.00044152
 ,0.00010095,0.00002848,-0.00001250,-0.00001073,-0.00043721,0.00003951,
 -0.00001993,-0.00002730,-0.00013900,0.00009973,0.00013062,0.00005261,0
 .00010405,0.00248521,-0.00214421,-0.00408198,0.00040386,0.00050674,-0.
 00030381,-0.00000846,0.00013473,-0.00007678,-0.00002044,0.00005162,-0.
 00001144,-0.00001489,-0.00006054,0.00000456,0.00002481,-0.00002724,0.0
 0006290,-0.00000200,0.00000001,0.00000498,-0.00000502,0.00000499,-0.00
 000639,0.00000290,-0.00000409,0.00000454,-0.00000046,-0.00000052,-0.00
 000076,-0.00000018,0.00000506,0.00000009,0.00001006,-0.00001661,0.0000
 0147,-0.00000147,0.00000328,-0.00000061,-0.00000136,0.00000099,-0.0000
 0184,0.,0.00000035,-0.00000083,0.00000178,-0.00000154,0.00000123,0.000
 00874,0.00000418,-0.00001084,0.00086351,0.02174568,-0.01730263,-0.0207
 6168,-0.02148521,-0.00152981,0.02029380,0.00016353,0.00018468,0.000100
 84,-0.00000366,-0.00002260,0.00000994,-0.00008193,0.00027156,-0.000420
 50,-0.00000652,0.00001696,-0.00000189,0.00009676,0.00010379,-0.0001103
 6,-0.00005506,0.00015893,-0.00025782,0.00008982,-0.00002917,0.00024900
 ,-0.00179373,0.00120696,-0.00158283,-0.00007096,0.00035478,-0.00011920
 ,0.00004118,-0.00035802,0.00024395,-0.00000238,0.00002634,-0.00003463,
 0.00004244,0.00016107,-0.00001102,-0.00006234,0.00005829,-0.00014295,0
 .00000580,-0.00000208,-0.00000710,0.00001492,0.00000694,0.00000338,-0.
 00000903,-0.00000189,-0.00000050,0.00000451,-0.00000097,0.00000203,0.0
 0000141,-0.00000842,-0.00000275,-0.00003883,0.00002774,0.00000821,0.00
 000855,0.00000162,-0.00000129,0.00000119,-0.00000049,0.00000066,-0.000
 00144,-0.00000009,0.00000125,-0.00000286,0.00000107,-0.00000055,0.0000
 0434,-0.00001504,0.00002291,0.00381947,0.00992629,0.00422873,-0.002204
 92,-0.38911740,0.21545290,0.00185176,0.38180593,0.00030826,0.00033701,
 0.00022527,0.00000961,0.00003425,-0.00001248,-0.00012117,-0.00119746,0
 .00028746,-0.00001403,-0.00001224,0.00001566,-0.00005045,-0.00022905,-
 0.00042247,0.00003153,-0.00040396,0.00033223,0.00008918,0.00016341,0.0
 0014204,-0.00427954,-0.00229179,-0.00274222,0.00003793,0.00109727,-0.0
 0015759,-0.00003997,0.00048459,-0.00029618,0.00001870,0.00007509,-0.00
 003390,-0.00005871,-0.00021717,0.00001983,0.00009190,-0.00009117,0.000
 20783,-0.00000807,0.00000294,0.00000861,-0.00001852,-0.00001333,0.0000
 0064,0.00001045,0.00000258,-0.00000423,-0.00000588,0.00000110,-0.00000
 487,-0.00000282,0.00001145,0.00000581,0.00005529,-0.00003452,-0.000014
 09,-0.00001094,-0.00000140,0.00000382,-0.00000051,0.00000083,0.0000014
 7,0.00000218,-0.00000138,-0.00000214,0.00000302,-0.00000109,-0.0000001
 1,-0.00001081,0.00002372,-0.00002189,-0.00678441,0.04217434,-0.0362398
 3,-0.01285671,0.17460570,-0.14352083,0.01790634,-0.21373947,0.17437893
 ,0.00065988,0.00029217,-0.00011023,0.00002926,0.00006052,-0.00002526,0
 .00161699,-0.00032346,0.00036540,-0.00005037,-0.00008545,0.00010138,-0
 .00035501,0.00017154,0.00105788,0.00011339,-0.00028582,0.00053536,-0.0
 0137856,0.00036642,0.00060248,0.01673286,-0.01423187,-0.00296645,-0.00
 148693,0.00040973,-0.00289298,0.00010554,0.00095715,-0.00063712,0.0001
 3330,-0.00013543,0.00000643,-0.00011128,-0.00034419,0.00003494,0.00016
 379,-0.00019287,0.00041286,-0.00002862,0.00000732,0.00001060,-0.000054
 54,-0.00004795,-0.00000083,0.00002505,0.00002326,-0.00000894,-0.000011
 07,0.00000142,-0.00000009,-0.00000399,0.00002003,0.00001043,0.00012718
 ,-0.00005995,-0.00003254,-0.00002973,-0.00001822,0.00000879,0.00000067
 ,0.00000053,0.00000049,0.00000477,0.00000121,-0.00000104,0.00000606,0.
 00000122,-0.00000198,-0.00002036,0.00004403,-0.00004928,-0.16981819,-0
 .21488905,-0.06859749,-0.00514533,-0.04133868,-0.04874325,-0.00279690,
 -0.00181867,0.00581190,0.16092086,0.00002654,0.00069711,0.00001855,0.0
 0012207,0.00049320,-0.00019028,0.00322315,-0.00238907,0.00908427,0.000
 12302,-0.00078514,0.00065327,0.00052628,0.00185918,-0.00053363,-0.0003
 8601,-0.00502260,0.00292485,-0.00068660,-0.00241448,-0.00110518,-0.022
 65222,-0.05411593,-0.00341010,-0.00229774,-0.00276288,-0.00346757,-0.0
 0086961,0.00711918,-0.00481938,0.00001863,-0.00030823,0.00026357,-0.00
 083689,-0.00330811,0.00036180,0.00130483,-0.00129854,0.00299399,-0.000
 14991,0.00005314,0.00013098,-0.00030386,-0.00023381,-0.00002395,0.0001
 7074,0.00006999,-0.00003644,-0.00009495,0.00002452,-0.00005083,-0.0000
 4155,0.00016906,0.00007922,0.00087971,-0.00052724,-0.00017901,-0.00018
 371,-0.00005070,0.00004714,-0.00000844,0.00001176,0.00000196,0.0000343
 6,-0.00000796,-0.00002379,0.00005048,-0.00001341,-0.00000103,-0.000124
 91,0.00030568,-0.00041801,-0.20873829,-0.60782599,-0.13209969,-0.03983
 905,-0.01148625,-0.06053515,-0.00030947,-0.00477568,-0.00077352,0.2707
 3098,0.68696650,0.00004262,0.00057801,0.00038244,-0.00003953,-0.000148
 77,0.00006257,-0.00169265,0.00162556,-0.00300226,-0.00001358,0.0002448
 4,-0.00023724,0.00082452,-0.00126543,0.00164559,0.00048726,0.00236389,
 -0.00057248,0.00120104,0.00111395,0.00011967,0.00199714,0.01456781,0.0
 1776212,-0.00126433,0.00238404,-0.00428456,0.00029043,-0.00203152,0.00
 167520,-0.00007423,-0.00001399,0.00002329,0.00030651,0.00115691,-0.000
 14144,-0.00039536,0.00035309,-0.00090502,0.00004820,-0.00001920,-0.000
 04870,0.00007399,0.00006201,0.00000125,-0.00004944,-0.00001706,0.00001
 995,0.00003524,-0.00001179,0.00002627,0.00000979,-0.00005016,-0.000028
 44,-0.00026275,0.00016698,0.00005981,0.00005665,0.00001395,-0.00001830
 ,0.00000158,-0.00000407,-0.00000509,-0.00001202,0.00000680,0.00000981,
 -0.00001550,0.00000463,0.00000124,0.00004393,-0.00009304,0.00013244,-0
 .07215200,-0.14511010,-0.14599966,-0.04964370,-0.06374066,-0.03855981,
 0.00491256,-0.00398247,0.00793156,0.11438247,0.19002575,0.16298222,0.0
 0001604,-0.00060541,-0.00013258,-0.00005324,0.00004934,0.00002411,0.00
 413427,-0.00067025,-0.00446679,-0.00071170,0.00016128,0.00037460,0.005
 52147,0.00298125,0.00023464,0.00631032,-0.00073867,-0.00284220,-0.0008
 1672,0.00057795,0.00012904,-0.00062612,-0.01233131,-0.00391737,-0.0886
 0150,-0.10199068,-0.04029646,0.00032246,0.00019806,-0.00009097,-0.0033
 8624,0.00094338,0.00193706,-0.00013067,0.00010466,0.00000478,0.0000604
 4,-0.00002666,0.00000190,0.00001540,-0.00001737,0.00000171,0.00000120,
 0.00000682,-0.00001574,0.00000149,-0.00000512,-0.00000120,0.00000196,0
 .00000258,-0.00000064,0.00000241,-0.00000027,0.00000127,0.00001008,-0.
 00001013,0.00000324,0.00000202,0.00000494,0.00000292,-0.00000040,-0.00
 000023,0.00000034,-0.00000101,-0.00000066,-0.00000102,0.00000070,-0.00
 000193,0.00000063,0.00000454,0.00000518,-0.00000325,-0.00373535,-0.000
 49613,0.00124949,0.00027844,0.00017467,0.00029235,0.00009963,0.0000066
 5,-0.00011373,0.00065128,0.00031245,0.00090114,0.08062879,0.00006108,0
 .00021106,0.00015155,-0.00001271,0.00000521,-0.00004667,-0.00083880,0.
 00135947,0.00119243,0.00016693,-0.00010281,-0.00013790,-0.00922364,-0.
 01528513,-0.00788663,-0.00067694,-0.00125225,0.00382240,0.00050748,0.0
 0023001,0.00034194,-0.00089174,0.00289826,-0.00090597,-0.10228381,-0.2
 8066166,-0.07589152,-0.00055252,-0.00005587,-0.00080634,0.00112183,0.0
 0071366,-0.00070727,-0.00000931,-0.00057761,0.00021581,0.00007688,-0.0
 0007871,0.00022363,-0.00000620,0.00000345,0.00000233,-0.00003374,-0.00
 003587,-0.00000016,0.00000867,0.00000600,-0.00000184,-0.00000518,-0.00
 000253,0.00000517,0.00000046,0.00000824,0.00000623,0.00006389,-0.00001
 368,-0.00002483,-0.00000837,-0.00000202,0.00000385,0.00000052,0.000001
 75,-0.00000019,0.00000117,0.00000051,0.00000004,0.00000189,0.00000053,
 -0.00000077,-0.00001104,0.00002378,-0.00003665,0.00075516,-0.00170793,
 0.00014291,-0.00022161,0.00016089,-0.00050322,-0.00004002,0.00001889,-
 0.00000674,0.00068407,-0.00044328,0.00182005,0.11136560,0.29457764,-0.
 00052342,-0.00125011,-0.00012707,0.00006691,0.00001302,0.00000515,-0.0
 0434105,0.00149498,-0.00366378,0.00037584,-0.00014089,-0.00005347,0.00
 740815,0.01805251,0.00973250,-0.00298597,0.00379789,-0.00057278,0.0001
 7651,0.00049616,-0.00092789,-0.01059761,-0.02496655,-0.00316127,-0.040
 17133,-0.07536155,-0.08213676,0.00039485,0.00058620,0.00075731,0.00183
 859,-0.00115060,-0.00006411,0.00008963,0.00050744,-0.00028860,-0.00005
 437,-0.00000385,-0.00006510,-0.00000951,0.00000280,-0.00001177,0.00000
 390,0.00001261,0.00001535,-0.00000936,0.00000038,-0.00000028,0.0000081
 4,-0.00000398,0.00000635,0.00000121,-0.00000899,-0.00000491,-0.0000449
 8,0.00001424,0.00000297,0.00000820,-0.00000147,-0.00000386,0.00000083,
 -0.00000118,0.00000066,-0.00000143,0.00000117,0.00000172,-0.00000379,0
 .00000253,-0.00000045,0.00000531,-0.00000869,0.00002653,0.00046949,-0.
 00263559,-0.00161086,0.00053265,0.00034938,0.00101854,-0.00008615,0.00
 009153,-0.00008835,0.00072608,0.00108220,0.00096758,0.04672272,0.07902
 839,0.08024665\\-0.00000484,0.00000439,0.00000761,0.00000806,-0.000002
 68,-0.00000462,-0.00000452,0.00000987,0.00000105,-0.00000608,0.0000036
 5,0.00000429,0.00000733,0.00002032,-0.00000157,-0.00001106,-0.00000179
 ,0.00001214,0.00000588,0.00000590,0.00000487,-0.00000696,-0.00000462,0
 .00000468,0.00000774,-0.00000816,0.00001355,-0.00001320,0.00000901,-0.
 00001574,0.00000265,-0.00000054,0.00000048,0.00001301,-0.00000586,0.00
 000357,0.00001654,-0.00000560,0.00001136,-0.00000551,-0.00000554,0.000
 00040,0.00000224,0.00002281,-0.00001533,0.00000433,0.00000012,-0.00001
 370,0.00000099,-0.00000908,-0.00000363,-0.00001667,0.00000332,0.000004
 12,0.00001553,-0.00003527,-0.00000575,-0.00001272,-0.00000777,-0.00000
 455,-0.00000074,-0.00000625,-0.00001246,-0.00000635,-0.00000174,-0.000
 00938,-0.00000217,-0.00000485,-0.00001059,0.00000648,0.00000132,-0.000
 00187,0.00001139,0.00000684,-0.00000263,-0.00000693,0.00000440,0.00001
 196,-0.00000463,0.00000507,0.00000968,-0.00000446,0.00000095,0.0000102
 6,0.00000468,0.00000181,0.00000180\\\@


      HUMANKIND PERIODICALLY GOES THROUGH A SPEEDUP OF ITS AFFAIRS, 
      THEREBY EXPERIENCING THE RACE BETWEEN THE RENEWABLE VITALITY
      OF THE LIVING, AND THE BECKONING VITIATION OF DECADENCE.
      IN THIS PERIODIC RACE, ANY PAUSE BECOMES A LUXURY.
      ONLY THEN CAN ONE REFLECT THAT ALL IS PERMITTED;
      ALL IS POSSIBLE.

                              -- THE APOCRYPHA OF MUAD'DIB
                                 CHILDREN OF DUNE, BY FRANK HERBERT
 Job cpu time:       0 days 10 hours 24 minutes  7.8 seconds.
 Elapsed time:       0 days  0 hours 17 minutes 22.3 seconds.
 File lengths (MBytes):  RWF=    964 Int=      0 D2E=      0 Chk=     41 Scr=      1
 Normal termination of Gaussian 16 at Thu Aug 15 16:42:21 2019.
