 Entering Gaussian System, Link 0=g16
 Initial command:
 /nopt/nrel/apps/gaussian/g16B/g16/l1.exe "/dev/shm/Gau-319139.inp" -scrdir="/dev/shm/"
 Default is to use a total of  36 processors:
                               36 via shared-memory
                                1 via Linda
 Entering Link 1 = /nopt/nrel/apps/gaussian/g16B/g16/l1.exe PID=    319141.
  
 Copyright (c) 1988-2017, Gaussian, Inc.  All Rights Reserved.
 
 ******************************************
 Gaussian 16:  ES64L-G16RevB.01 20-Dec-2017
                 4-Sep-2019 
 ******************************************
 %RWF=/dev/shm/,5GB,/tmp/scratch/1313749/,-1
 %NoSave
 %Chk=/dev/shm/ts3b.chk
 Default route: CacheSize=180224 MaxDisk=256GB
 ----------------------------------------------------------------------
 # m062x/Def2TZVP nosymm scf=(xqc,maxconventionalcycles=400) opt=(TS,Ca
 lcFC,noeigentest,maxcycles=200,NoFreeze) freq=NoRaman CPHF=Grid=Fine S
 CRF=(Solvent=1,2-EthaneDiol,Read)
 ----------------------------------------------------------------------
 1/4=180224,5=1,6=200,10=4,11=1,18=20,26=3,29=2000,38=1,40=2/1,3;
 2/4=180224,9=110,12=2,15=1,17=6,18=5,40=1/2;
 3/4=180224,5=44,7=101,11=2,25=1,30=1,70=2203,71=2,72=30,74=-55,140=1/1,2,3;
 4/4=180224/1;
 5/4=180224,5=2,8=3,13=1,38=5,53=30,85=400/2,8;
 8/4=180224,6=4,10=90,11=11/1;
 11/4=180224,6=1,8=1,9=11,15=111,16=1,31=1/1,2,10;
 10/4=180224,6=1,13=1,31=1,60=4/2;
 6/4=180224,7=2,8=2,9=2,10=2,28=1/1;
 7/4=180224,10=1,18=20,25=1,30=1/1,2,3,16;
 1/4=180224,5=1,6=200,10=4,11=1,18=20,26=3/3(2);
 2/4=180224,9=110,15=1/2;
 99/4=180224/99;
 2/4=180224,9=110,15=1/2;
 3/4=180224,5=44,7=101,11=2,25=1,30=1,70=2205,71=1,72=30,74=-55/1,2,3;
 4/4=180224,5=5,16=3,69=1/1;
 5/4=180224,5=2,8=3,13=1,38=5,53=30,85=400/2,8;
 7/4=180224,30=1/1,2,3,16;
 1/4=180224,5=1,6=200,11=1,18=20,26=3/3(-5);
 2/4=180224,9=110,15=1/2;
 6/4=180224,7=2,8=2,9=2,10=2,19=2,28=1/1;
 99/4=180224,9=1/99;
 ------------------------------
 from 10.1007/s00214-014-1591-5
 ------------------------------
 Symbolic Z-matrix:
 Charge =  1 Multiplicity = 1
 C                    -1.59802  -0.56649  -2.27825 
 C                    -0.56239  -0.0228   -1.31114 
 O                     0.75145  -0.32399  -1.6746 
 C                    -1.89575   2.01022  -0.93428 
 O                    -0.60124   1.39397  -1.15736 
 O                    -0.72155  -0.53387   0.00547 
 H                    -1.4422   -1.64163  -2.39869 
 H                    -1.48814  -0.08769  -3.25535 
 H                    -2.61156  -0.39915  -1.90968 
 H                     0.91053  -0.0578   -2.59722 
 H                    -2.47175   2.0076   -1.86115 
 H                    -1.68225   3.03607  -0.63707 
 H                    -2.43454   1.49409  -0.13652 
 H                    -0.73623  -1.50776  -0.00268 
 C                     2.38407   1.24992   0.96323 
 O                     0.89992   1.28886   0.9494 
 H                     2.6996    2.287     0.89175 
 H                     2.72742   0.65268   0.12055 
 H                     2.6606    0.81354   1.91892 
 H                     0.50645   1.63523   0.07667 
 H                     0.47445   0.38037   0.97732 
 
 Add virtual bond connecting atoms H20        and O5         Dist= 3.17D+00.
 Add virtual bond connecting atoms H21        and O6         Dist= 3.39D+00.

 GradGradGradGradGradGradGradGradGradGradGradGradGradGradGradGradGradGrad
 Berny optimization.
 Initialization pass.
                           ----------------------------
                           !    Initial Parameters    !
                           ! (Angstroms and Degrees)  !
 --------------------------                            --------------------------
 ! Name  Definition              Value          Derivative Info.                !
 --------------------------------------------------------------------------------
 ! R1    R(1,2)                  1.5177         calculate D2E/DX2 analytically  !
 ! R2    R(1,7)                  1.093          calculate D2E/DX2 analytically  !
 ! R3    R(1,8)                  1.0936         calculate D2E/DX2 analytically  !
 ! R4    R(1,9)                  1.0914         calculate D2E/DX2 analytically  !
 ! R5    R(2,3)                  1.3961         calculate D2E/DX2 analytically  !
 ! R6    R(2,5)                  1.4256         calculate D2E/DX2 analytically  !
 ! R7    R(2,6)                  1.4213         calculate D2E/DX2 analytically  !
 ! R8    R(3,10)                 0.9733         calculate D2E/DX2 analytically  !
 ! R9    R(4,5)                  1.451          calculate D2E/DX2 analytically  !
 ! R10   R(4,11)                 1.0913         calculate D2E/DX2 analytically  !
 ! R11   R(4,12)                 1.0892         calculate D2E/DX2 analytically  !
 ! R12   R(4,13)                 1.0923         calculate D2E/DX2 analytically  !
 ! R13   R(5,20)                 1.6757         calculate D2E/DX2 analytically  !
 ! R14   R(6,14)                 0.974          calculate D2E/DX2 analytically  !
 ! R15   R(6,21)                 1.7919         calculate D2E/DX2 analytically  !
 ! R16   R(15,16)                1.4847         calculate D2E/DX2 analytically  !
 ! R17   R(15,17)                1.0864         calculate D2E/DX2 analytically  !
 ! R18   R(15,18)                1.0884         calculate D2E/DX2 analytically  !
 ! R19   R(15,19)                1.0864         calculate D2E/DX2 analytically  !
 ! R20   R(16,20)                1.0181         calculate D2E/DX2 analytically  !
 ! R21   R(16,21)                1.0036         calculate D2E/DX2 analytically  !
 ! A1    A(2,1,7)              108.9843         calculate D2E/DX2 analytically  !
 ! A2    A(2,1,8)              110.116          calculate D2E/DX2 analytically  !
 ! A3    A(2,1,9)              111.3201         calculate D2E/DX2 analytically  !
 ! A4    A(7,1,8)              108.5343         calculate D2E/DX2 analytically  !
 ! A5    A(7,1,9)              108.6884         calculate D2E/DX2 analytically  !
 ! A6    A(8,1,9)              109.141          calculate D2E/DX2 analytically  !
 ! A7    A(1,2,3)              113.5152         calculate D2E/DX2 analytically  !
 ! A8    A(1,2,5)              113.9634         calculate D2E/DX2 analytically  !
 ! A9    A(1,2,6)              112.648          calculate D2E/DX2 analytically  !
 ! A10   A(3,2,5)              105.5531         calculate D2E/DX2 analytically  !
 ! A11   A(3,2,6)              105.6037         calculate D2E/DX2 analytically  !
 ! A12   A(5,2,6)              104.7368         calculate D2E/DX2 analytically  !
 ! A13   A(2,3,10)             109.9738         calculate D2E/DX2 analytically  !
 ! A14   A(5,4,11)             109.8349         calculate D2E/DX2 analytically  !
 ! A15   A(5,4,12)             105.4922         calculate D2E/DX2 analytically  !
 ! A16   A(5,4,13)             110.5898         calculate D2E/DX2 analytically  !
 ! A17   A(11,4,12)            109.7243         calculate D2E/DX2 analytically  !
 ! A18   A(11,4,13)            111.0284         calculate D2E/DX2 analytically  !
 ! A19   A(12,4,13)            110.0255         calculate D2E/DX2 analytically  !
 ! A20   A(2,5,4)              117.5795         calculate D2E/DX2 analytically  !
 ! A21   A(2,5,20)             101.8007         calculate D2E/DX2 analytically  !
 ! A22   A(4,5,20)             114.5431         calculate D2E/DX2 analytically  !
 ! A23   A(2,6,14)             110.6996         calculate D2E/DX2 analytically  !
 ! A24   A(2,6,21)             104.1358         calculate D2E/DX2 analytically  !
 ! A25   A(14,6,21)            121.6508         calculate D2E/DX2 analytically  !
 ! A26   A(16,15,17)           105.3479         calculate D2E/DX2 analytically  !
 ! A27   A(16,15,18)           108.8148         calculate D2E/DX2 analytically  !
 ! A28   A(16,15,19)           105.8532         calculate D2E/DX2 analytically  !
 ! A29   A(17,15,18)           112.4111         calculate D2E/DX2 analytically  !
 ! A30   A(17,15,19)           111.556          calculate D2E/DX2 analytically  !
 ! A31   A(18,15,19)           112.3565         calculate D2E/DX2 analytically  !
 ! A32   A(15,16,20)           113.7814         calculate D2E/DX2 analytically  !
 ! A33   A(15,16,21)           113.565          calculate D2E/DX2 analytically  !
 ! A34   A(20,16,21)            99.6714         calculate D2E/DX2 analytically  !
 ! A35   A(5,20,16)            146.9071         calculate D2E/DX2 analytically  !
 ! A36   A(6,21,16)            136.8664         calculate D2E/DX2 analytically  !
 ! D1    D(7,1,2,3)             54.3911         calculate D2E/DX2 analytically  !
 ! D2    D(7,1,2,5)            175.2813         calculate D2E/DX2 analytically  !
 ! D3    D(7,1,2,6)            -65.5697         calculate D2E/DX2 analytically  !
 ! D4    D(8,1,2,3)            -64.5557         calculate D2E/DX2 analytically  !
 ! D5    D(8,1,2,5)             56.3346         calculate D2E/DX2 analytically  !
 ! D6    D(8,1,2,6)            175.4835         calculate D2E/DX2 analytically  !
 ! D7    D(9,1,2,3)            174.2597         calculate D2E/DX2 analytically  !
 ! D8    D(9,1,2,5)            -64.8501         calculate D2E/DX2 analytically  !
 ! D9    D(9,1,2,6)             54.2989         calculate D2E/DX2 analytically  !
 ! D10   D(1,2,3,10)            51.9807         calculate D2E/DX2 analytically  !
 ! D11   D(5,2,3,10)           -73.5316         calculate D2E/DX2 analytically  !
 ! D12   D(6,2,3,10)           175.866          calculate D2E/DX2 analytically  !
 ! D13   D(1,2,5,4)             47.5478         calculate D2E/DX2 analytically  !
 ! D14   D(1,2,5,20)           173.5541         calculate D2E/DX2 analytically  !
 ! D15   D(3,2,5,4)            172.7826         calculate D2E/DX2 analytically  !
 ! D16   D(3,2,5,20)           -61.2112         calculate D2E/DX2 analytically  !
 ! D17   D(6,2,5,4)            -75.9998         calculate D2E/DX2 analytically  !
 ! D18   D(6,2,5,20)            50.0064         calculate D2E/DX2 analytically  !
 ! D19   D(1,2,6,14)            53.7976         calculate D2E/DX2 analytically  !
 ! D20   D(1,2,6,21)          -173.8543         calculate D2E/DX2 analytically  !
 ! D21   D(3,2,6,14)           -70.6324         calculate D2E/DX2 analytically  !
 ! D22   D(3,2,6,21)            61.7157         calculate D2E/DX2 analytically  !
 ! D23   D(5,2,6,14)           178.1864         calculate D2E/DX2 analytically  !
 ! D24   D(5,2,6,21)           -49.4655         calculate D2E/DX2 analytically  !
 ! D25   D(11,4,5,2)           -73.5067         calculate D2E/DX2 analytically  !
 ! D26   D(11,4,5,20)          167.0108         calculate D2E/DX2 analytically  !
 ! D27   D(12,4,5,2)           168.3104         calculate D2E/DX2 analytically  !
 ! D28   D(12,4,5,20)           48.828          calculate D2E/DX2 analytically  !
 ! D29   D(13,4,5,2)            49.3814         calculate D2E/DX2 analytically  !
 ! D30   D(13,4,5,20)          -70.1011         calculate D2E/DX2 analytically  !
 ! D31   D(2,5,20,16)          -36.8795         calculate D2E/DX2 analytically  !
 ! D32   D(4,5,20,16)           91.0982         calculate D2E/DX2 analytically  !
 ! D33   D(2,6,21,16)           29.5085         calculate D2E/DX2 analytically  !
 ! D34   D(14,6,21,16)         155.2015         calculate D2E/DX2 analytically  !
 ! D35   D(17,15,16,20)         64.8039         calculate D2E/DX2 analytically  !
 ! D36   D(17,15,16,21)        177.9133         calculate D2E/DX2 analytically  !
 ! D37   D(18,15,16,20)        -55.9387         calculate D2E/DX2 analytically  !
 ! D38   D(18,15,16,21)         57.1707         calculate D2E/DX2 analytically  !
 ! D39   D(19,15,16,20)       -176.9016         calculate D2E/DX2 analytically  !
 ! D40   D(19,15,16,21)        -63.7922         calculate D2E/DX2 analytically  !
 ! D41   D(15,16,20,5)         130.7313         calculate D2E/DX2 analytically  !
 ! D42   D(21,16,20,5)           9.5144         calculate D2E/DX2 analytically  !
 ! D43   D(15,16,21,6)        -125.8613         calculate D2E/DX2 analytically  !
 ! D44   D(20,16,21,6)          -4.4882         calculate D2E/DX2 analytically  !
 --------------------------------------------------------------------------------
 Trust Radius=3.00D-01 FncErr=1.00D-07 GrdErr=1.00D-06 EigMax=2.50D+02 EigMin=1.00D-04
 Number of steps in this run=    126 maximum allowed number of steps=    126.
 Search for a saddle point of order  1.
 GradGradGradGradGradGradGradGradGradGradGradGradGradGradGradGradGradGrad

                          Input orientation:                          
 ---------------------------------------------------------------------
 Center     Atomic      Atomic             Coordinates (Angstroms)
 Number     Number       Type             X           Y           Z
 ---------------------------------------------------------------------
      1          6           0       -1.598019   -0.566491   -2.278248
      2          6           0       -0.562391   -0.022798   -1.311140
      3          8           0        0.751447   -0.323993   -1.674597
      4          6           0       -1.895746    2.010222   -0.934283
      5          8           0       -0.601235    1.393967   -1.157362
      6          8           0       -0.721549   -0.533868    0.005474
      7          1           0       -1.442203   -1.641627   -2.398685
      8          1           0       -1.488141   -0.087692   -3.255346
      9          1           0       -2.611562   -0.399148   -1.909684
     10          1           0        0.910533   -0.057798   -2.597221
     11          1           0       -2.471750    2.007603   -1.861153
     12          1           0       -1.682254    3.036072   -0.637068
     13          1           0       -2.434536    1.494089   -0.136523
     14          1           0       -0.736228   -1.507764   -0.002678
     15          6           0        2.384069    1.249917    0.963234
     16          8           0        0.899919    1.288857    0.949398
     17          1           0        2.699597    2.286999    0.891752
     18          1           0        2.727423    0.652680    0.120549
     19          1           0        2.660596    0.813537    1.918917
     20          1           0        0.506453    1.635231    0.076668
     21          1           0        0.474451    0.380371    0.977324
 ---------------------------------------------------------------------
                    Distance matrix (angstroms):
                    1          2          3          4          5
     1  C    0.000000
     2  C    1.517704   0.000000
     3  O    2.437866   1.396062   0.000000
     4  C    2.921359   2.460291   3.606141   0.000000
     5  O    2.468473   1.425616   2.246924   1.450963   0.000000
     6  O    2.446355   1.421266   2.244193   2.955381   2.254598
     7  H    1.093024   2.139493   2.659429   3.960578   3.385696
     8  H    1.093636   2.154335   2.751428   3.155110   2.717250
     9  H    1.091381   2.167717   3.372053   2.696083   2.796902
    10  H    2.579408   1.955693   0.973347   3.862288   2.542884
    11  H    2.750152   2.840897   3.982479   1.091272   2.090620
    12  H    3.959675   3.326433   4.276611   1.089166   2.033671
    13  H    3.087513   2.680597   3.977635   1.092295   2.100745
    14  H    2.609003   1.986810   2.531759   3.819502   3.125949
    15  C    5.446427   3.933727   3.478620   4.742937   3.664658
    16  O    4.483270   2.994800   3.083614   3.447371   2.589006
    17  H    6.054818   4.563821   4.147134   4.952594   3.986461
    18  H    5.094120   3.650874   2.842696   4.932472   3.641776
    19  H    6.136487   4.639005   4.225182   5.507546   4.521055
    20  H    3.849937   2.411950   2.639225   2.633097   1.675713
    21  H    3.973718   2.544534   2.757814   3.453765   2.596414
                    6          7          8          9         10
     6  O    0.000000
     7  H    2.743438   0.000000
     8  H    3.379302   1.775018   0.000000
     9  H    2.694091   1.774902   1.780417   0.000000
    10  H    3.108755   2.843114   2.487500   3.604772   0.000000
    11  H    3.606463   3.829594   2.702133   2.411297   4.030820
    12  H    3.752371   5.004177   4.080559   3.779404   4.487402
    13  H    2.658402   3.991844   3.622810   2.599958   4.433156
    14  H    0.974040   2.501434   3.627922   2.895268   3.397922
    15  C    3.707297   5.856951   5.880443   5.994113   4.069184
    16  O    2.615813   5.028214   5.027682   4.832619   3.793692
    17  H    4.521838   6.589051   6.354111   6.578133   4.568562
    18  H    3.649184   5.384809   5.451219   5.808007   3.345466
    19  H    4.112866   6.442241   6.693073   6.627551   4.921122
    20  H    2.493602   4.545595   4.248433   4.219752   3.190503
    21  H    1.791854   4.377154   4.688960   4.297201   3.627607
                   11         12         13         14         15
    11  H    0.000000
    12  H    1.783097   0.000000
    13  H    1.799841   1.787228   0.000000
    14  H    4.338637   4.684427   3.451563   0.000000
    15  C    5.668352   4.720837   4.948539   4.274814   0.000000
    16  O    4.447914   3.498179   3.512825   3.377057   1.484725
    17  H    5.865098   4.700960   5.295789   5.196645   1.086374
    18  H    5.726636   5.069497   5.236399   4.084064   1.088440
    19  H    6.485036   5.507547   5.536096   4.540856   1.086381
    20  H    3.572604   2.694850   2.952082   3.380676   2.111849
    21  H    4.402833   3.782908   3.308055   2.447692   2.098321
                   16         17         18         19         20
    16  O    0.000000
    17  H    2.058750   0.000000
    18  H    2.105109   1.807354   0.000000
    19  H    2.065400   1.796574   1.806784   0.000000
    20  H    1.018061   2.428795   2.429000   2.951168   0.000000
    21  H    1.003569   2.931524   2.425717   2.419393   1.544954
                   21
    21  H    0.000000
 Symmetry turned off by external request.
 Stoichiometry    C4H13O4(1+)
 Framework group  C1[X(C4H13O4)]
 Deg. of freedom    57
 Full point group                 C1      NOp   1
 Rotational constants (GHZ):           2.6931781           1.2908324           1.0798657
 Standard basis: def2TZVP (5D, 7F)
   326 basis functions,   512 primitive gaussians,   366 cartesian basis functions
    34 alpha electrons       34 beta electrons
       nuclear repulsion energy       463.7693478263 Hartrees.
 NAtoms=   21 NActive=   21 NUniq=   21 SFac= 1.00D+00 NAtFMM=   60 NAOKFM=F Big=F
 Integral buffers will be    131072 words long.
 Raffenetti 2 integral format.
 Two-electron integral symmetry is turned off.
 Force inversion solution in PCM.
 Using the following non-standard input for PCM:
 PDENS=7.0
 --- end of non-standard input.
 Force inversion solution in PCM.
 ------------------------------------------------------------------------------
 Polarizable Continuum Model (PCM)
 =================================
 Model                : PCM.
 Atomic radii         : UFF (Universal Force Field).
 Polarization charges : Total charges.
 Charge compensation  : None.
 Solution method      : Matrix inversion.
 Cavity type          : Scaled VdW (van der Waals Surface) (Alpha=1.100).
 Cavity algorithm     : GePol (No added spheres)
                        Default sphere list used, NSphG=   21.
                        Lebedev-Laikov grids with approx.  7.0 points / Ang**2.
                        Smoothing algorithm: York/Karplus (Gamma=1.0000).
                        Polarization charges: spherical gaussians, with
                                              point-specific exponents (IZeta= 3).
                        Self-potential: point-specific (ISelfS= 7).
                        Self-field    : sphere-specific E.n sum rule (ISelfD= 2).
 1st derivatives      : Analytical E(r).r(x)/FMM algorithm (CHGder, D1EAlg=3).
                        Cavity 1st derivative terms included.
 2nd derivatives      : Analytical E(r).r(xy)/FMM algorithm (CHGder, D2EAlg=3).
                        Cavity 2nd derivative terms included.
 Solvent              : 1,2-EthaneDiol, Eps=  40.245000 Eps(inf)=   2.050051
 ------------------------------------------------------------------------------
 One-electron integrals computed using PRISM.
   1 Symmetry operations used in ECPInt.
 ECPInt:  NShTT=    9870 NPrTT=   28656 LenC2=    9614 LenP2D=   22021.
 LDataN:  DoStor=T MaxTD1= 6 Len=  172
 NBasis=   326 RedAO= T EigKep=  3.09D-04  NBF=   326
 NBsUse=   326 1.00D-06 EigRej= -1.00D+00 NBFU=   326
 ExpMin= 9.52D-02 ExpMax= 2.70D+04 ExpMxC= 9.22D+02 IAcc=3 IRadAn=         5 AccDes= 0.00D+00
 Harris functional with IExCor= 1009 and IRadAn=       5 diagonalized for initial guess.
 HarFok:  IExCor= 1009 AccDes= 0.00D+00 IRadAn=         5 IDoV= 1 UseB2=F ITyADJ=14
 ICtDFT=  3500011 ScaDFX=  1.000000  1.000000  1.000000  1.000000
 FoFCou: FMM=F IPFlag=           0 FMFlag=      100000 FMFlg1=           0
         NFxFlg=           0 DoJE=T BraDBF=F KetDBF=T FulRan=T
         wScrn=  0.000000 ICntrl=       500 IOpCl=  0 I1Cent=   200000004 NGrid=           0
         NMat0=    1 NMatS0=      1 NMatT0=    0 NMatD0=    1 NMtDS0=    0 NMtDT0=    0
 Symmetry not used in FoFCou.
 Requested convergence on RMS density matrix=1.00D-08 within 400 cycles.
 Requested convergence on MAX density matrix=1.00D-06.
 Requested convergence on             energy=1.00D-06.
 No special actions if energy rises.
 Inv3:  Mode=1 IEnd=    16553403.
 Iteration    1 A*A^-1 deviation from unit magnitude is 3.33D-15 for   1102.
 Iteration    1 A*A^-1 deviation from orthogonality  is 1.46D-15 for   2003    487.
 Iteration    1 A^-1*A deviation from unit magnitude is 3.11D-15 for   1102.
 Iteration    1 A^-1*A deviation from orthogonality  is 3.66D-15 for   2168   2115.
 Error on total polarization charges =  0.00853
 SCF Done:  E(RM062X) =  -460.956538896     A.U. after   11 cycles
            NFock= 11  Conv=0.10D-07     -V/T= 2.0052
 QCSCF skips out because SCF is already converged.
 DoSCS=F DFT=T ScalE2(SS,OS)=  1.000000  1.000000
 Range of M.O.s used for correlation:     1   326
 NBasis=   326 NAE=    34 NBE=    34 NFC=     0 NFV=     0
 NROrb=    326 NOA=    34 NOB=    34 NVA=   292 NVB=   292

 **** Warning!!: The largest alpha MO coefficient is  0.13697871D+02

   1 Symmetry operations used in ECPInt.
 ECPInt:  NShTT=    9870 NPrTT=   28656 LenC2=    9614 LenP2D=   22021.
 LDataN:  DoStor=T MaxTD1= 7 Len=  274
 Symmetrizing basis deriv contribution to polar:
 IMax=3 JMax=2 DiffMx= 0.00D+00
 G2DrvN: will do    22 centers at a time, making    1 passes.
 Calling FoFCou, ICntrl=  3107 FMM=F I1Cent=   0 AccDes= 0.00D+00.
 NEqPCM:  Using equilibrium solvation (IEInf=0, Eps=  40.2450, EpsInf=   2.0501)
 G2PCM: DoFxE=T DoFxN=T DoGrad=T DoDP/DQ/DG/TGxP=FFFF NFrqRd=   0 IEInf=0 SqF1=F DoCFld=F IF1Alg=4.
 End of G2Drv F.D. properties file   721 does not exist.
 End of G2Drv F.D. properties file   722 does not exist.
 End of G2Drv F.D. properties file   788 does not exist.
          IDoAtm=111111111111111111111
 NEqPCM:  Using equilibrium solvation (IEInf=0, Eps=  40.2450, EpsInf=   2.0501)
          Differentiating once with respect to nuclear coordinates.
 Keep R1 ints in memory in canonical form, NReq=1462173113.
          There are    66 degrees of freedom in the 1st order CPHF.  IDoFFX=6 NUNeed=     0.
     60 vectors produced by pass  0 Test12= 1.50D-14 1.52D-09 XBig12= 9.82D-02 4.60D-02.
 AX will form    60 AO Fock derivatives at one time.
     60 vectors produced by pass  1 Test12= 1.50D-14 1.52D-09 XBig12= 1.33D-02 1.77D-02.
     60 vectors produced by pass  2 Test12= 1.50D-14 1.52D-09 XBig12= 3.12D-04 1.91D-03.
     60 vectors produced by pass  3 Test12= 1.50D-14 1.52D-09 XBig12= 3.02D-06 1.91D-04.
     60 vectors produced by pass  4 Test12= 1.50D-14 1.52D-09 XBig12= 1.83D-08 1.57D-05.
     60 vectors produced by pass  5 Test12= 1.50D-14 1.52D-09 XBig12= 7.83D-11 1.14D-06.
     32 vectors produced by pass  6 Test12= 1.50D-14 1.52D-09 XBig12= 3.02D-13 5.21D-08.
      4 vectors produced by pass  7 Test12= 1.50D-14 1.52D-09 XBig12= 9.98D-16 2.91D-09.
 InvSVY:  IOpt=1 It=  1 EMax= 2.50D-16
 Solved reduced A of dimension   396 with    66 vectors.
 End of Minotr F.D. properties file   721 does not exist.
 End of Minotr F.D. properties file   722 does not exist.
 End of Minotr F.D. properties file   788 does not exist.

 **********************************************************************

            Population analysis using the SCF Density.

 **********************************************************************

 Alpha  occ. eigenvalues --  -19.76085 -19.68600 -19.68199 -19.66765 -10.73685
 Alpha  occ. eigenvalues --  -10.63112 -10.60263 -10.55464  -1.28265  -1.26010
 Alpha  occ. eigenvalues --   -1.17130  -1.16266  -0.87118  -0.85479  -0.82637
 Alpha  occ. eigenvalues --   -0.73592  -0.71478  -0.66336  -0.65873  -0.62698
 Alpha  occ. eigenvalues --   -0.59668  -0.58500  -0.55182  -0.54359  -0.53189
 Alpha  occ. eigenvalues --   -0.50612  -0.48546  -0.47974  -0.47671  -0.46562
 Alpha  occ. eigenvalues --   -0.44511  -0.43756  -0.41701  -0.39429
 Alpha virt. eigenvalues --    0.03219   0.06632   0.07580   0.08498   0.08966
 Alpha virt. eigenvalues --    0.10170   0.12006   0.12817   0.13504   0.13993
 Alpha virt. eigenvalues --    0.14335   0.15534   0.16209   0.16354   0.17549
 Alpha virt. eigenvalues --    0.19902   0.20166   0.21334   0.22380   0.24043
 Alpha virt. eigenvalues --    0.25765   0.26924   0.27969   0.28463   0.29579
 Alpha virt. eigenvalues --    0.30609   0.30776   0.32881   0.35063   0.36730
 Alpha virt. eigenvalues --    0.37914   0.38077   0.40038   0.40315   0.40984
 Alpha virt. eigenvalues --    0.42346   0.43251   0.44934   0.47171   0.47625
 Alpha virt. eigenvalues --    0.48606   0.49450   0.49703   0.50236   0.50802
 Alpha virt. eigenvalues --    0.51692   0.52136   0.54523   0.55167   0.57219
 Alpha virt. eigenvalues --    0.58230   0.59696   0.62201   0.63485   0.64662
 Alpha virt. eigenvalues --    0.68973   0.69853   0.71213   0.72261   0.76299
 Alpha virt. eigenvalues --    0.76495   0.78457   0.80679   0.82831   0.83098
 Alpha virt. eigenvalues --    0.85780   0.88991   0.90716   0.91024   0.94057
 Alpha virt. eigenvalues --    0.94500   0.96349   0.98044   1.01458   1.02914
 Alpha virt. eigenvalues --    1.03293   1.06334   1.08181   1.09875   1.15544
 Alpha virt. eigenvalues --    1.16064   1.18430   1.19115   1.20955   1.30836
 Alpha virt. eigenvalues --    1.33708   1.35825   1.39942   1.43015   1.45579
 Alpha virt. eigenvalues --    1.48946   1.49901   1.52007   1.52336   1.52747
 Alpha virt. eigenvalues --    1.53894   1.55402   1.56724   1.56880   1.58264
 Alpha virt. eigenvalues --    1.59341   1.60071   1.60494   1.62128   1.65265
 Alpha virt. eigenvalues --    1.66887   1.70964   1.71529   1.73350   1.75705
 Alpha virt. eigenvalues --    1.76311   1.78987   1.81483   1.82958   1.86446
 Alpha virt. eigenvalues --    1.87915   1.90787   1.91107   1.92769   1.93252
 Alpha virt. eigenvalues --    1.96693   1.97565   1.99294   1.99956   2.01500
 Alpha virt. eigenvalues --    2.05807   2.07163   2.07382   2.08392   2.09864
 Alpha virt. eigenvalues --    2.11728   2.15668   2.18153   2.20441   2.22289
 Alpha virt. eigenvalues --    2.23300   2.23864   2.25445   2.27472   2.27768
 Alpha virt. eigenvalues --    2.28654   2.29887   2.31763   2.32606   2.34998
 Alpha virt. eigenvalues --    2.35960   2.37957   2.38448   2.40484   2.41529
 Alpha virt. eigenvalues --    2.46479   2.48249   2.50359   2.51441   2.52809
 Alpha virt. eigenvalues --    2.54472   2.56040   2.56694   2.57982   2.58504
 Alpha virt. eigenvalues --    2.59389   2.60327   2.65634   2.66434   2.68523
 Alpha virt. eigenvalues --    2.71723   2.73030   2.75012   2.76534   2.78963
 Alpha virt. eigenvalues --    2.81599   2.84080   2.85988   2.91808   2.94450
 Alpha virt. eigenvalues --    2.96978   3.00634   3.03203   3.04289   3.06719
 Alpha virt. eigenvalues --    3.08991   3.11750   3.11989   3.13925   3.15421
 Alpha virt. eigenvalues --    3.17134   3.18369   3.20007   3.20636   3.24463
 Alpha virt. eigenvalues --    3.25196   3.26754   3.30950   3.33669   3.34357
 Alpha virt. eigenvalues --    3.35668   3.36122   3.37897   3.38425   3.41242
 Alpha virt. eigenvalues --    3.44418   3.46377   3.47699   3.49089   3.50757
 Alpha virt. eigenvalues --    3.51246   3.54861   3.56069   3.58378   3.62049
 Alpha virt. eigenvalues --    3.65016   3.74448   3.76918   3.79765   3.82298
 Alpha virt. eigenvalues --    3.91918   3.92643   3.95037   3.96486   3.98280
 Alpha virt. eigenvalues --    4.04838   4.10682   4.15276   4.18378   4.27007
 Alpha virt. eigenvalues --    4.32948   4.37432   4.38029   4.39420   4.40430
 Alpha virt. eigenvalues --    4.48000   4.51072   4.58836   4.70179   4.74279
 Alpha virt. eigenvalues --    4.79770   5.18968   5.21808   5.24565   5.26255
 Alpha virt. eigenvalues --    5.27101   5.29437   5.30210   5.33425   5.40659
 Alpha virt. eigenvalues --    5.43503   5.49929   5.56078   5.61906   5.63619
 Alpha virt. eigenvalues --    5.65066   5.67113   5.72887   5.78458   5.80577
 Alpha virt. eigenvalues --    5.86275   5.89638   5.94223   6.01661   6.13069
 Alpha virt. eigenvalues --    6.17929   6.18861   6.31431   6.37630   6.43947
 Alpha virt. eigenvalues --    6.47427   6.51213   6.56702   6.63210   6.64971
 Alpha virt. eigenvalues --    6.66748   6.74039   6.80968   6.83551   6.86600
 Alpha virt. eigenvalues --    6.88689   6.92658   6.96444   6.99336   7.08339
 Alpha virt. eigenvalues --    7.14110   7.17325   7.30965   7.41453  22.30280
 Alpha virt. eigenvalues --   22.39435  22.46566  22.79161  43.82138  44.03228
 Alpha virt. eigenvalues --   44.11394  44.28687
          Condensed to atoms (all electrons):
               1          2          3          4          5          6
     1  C    5.149575   0.283007  -0.045410  -0.004296  -0.042693  -0.051902
     2  C    0.283007   4.760764   0.314960  -0.018340   0.174418   0.244063
     3  O   -0.045410   0.314960   8.041476   0.002722  -0.078792  -0.084360
     4  C   -0.004296  -0.018340   0.002722   4.921237   0.169361  -0.012794
     5  O   -0.042693   0.174418  -0.078792   0.169361   8.277054  -0.058798
     6  O   -0.051902   0.244063  -0.084360  -0.012794  -0.058798   8.170437
     7  H    0.400913  -0.024849  -0.002025   0.000288   0.003741  -0.000942
     8  H    0.407559  -0.036940  -0.001736  -0.003521   0.001238   0.004975
     9  H    0.394518  -0.028311   0.005515  -0.001928   0.000462  -0.001345
    10  H   -0.011093  -0.011583   0.299356   0.000437   0.002351   0.005767
    11  H    0.011019  -0.020372   0.000405   0.414965  -0.025702   0.000162
    12  H    0.000624   0.003432  -0.000076   0.402781  -0.026858  -0.000208
    13  H   -0.013692   0.011972  -0.000066   0.411656  -0.041677   0.008224
    14  H   -0.003822  -0.016654  -0.000307   0.000356   0.005238   0.308228
    15  C    0.000069   0.001428  -0.005610   0.000015   0.003655   0.003541
    16  O    0.001657   0.025413  -0.006006   0.002958  -0.051942  -0.041036
    17  H    0.000002   0.000073   0.000017   0.000012  -0.000018   0.000005
    18  H    0.000019  -0.001503   0.005395   0.000009   0.000431   0.000227
    19  H   -0.000005   0.000117   0.000241  -0.000003  -0.000126  -0.000121
    20  H    0.001649   0.000138   0.002153  -0.008975   0.056860  -0.001277
    21  H    0.000714   0.002219  -0.000251  -0.000543   0.001821   0.031116
               7          8          9         10         11         12
     1  C    0.400913   0.407559   0.394518  -0.011093   0.011019   0.000624
     2  C   -0.024849  -0.036940  -0.028311  -0.011583  -0.020372   0.003432
     3  O   -0.002025  -0.001736   0.005515   0.299356   0.000405  -0.000076
     4  C    0.000288  -0.003521  -0.001928   0.000437   0.414965   0.402781
     5  O    0.003741   0.001238   0.000462   0.002351  -0.025702  -0.026858
     6  O   -0.000942   0.004975  -0.001345   0.005767   0.000162  -0.000208
     7  H    0.469533  -0.013799  -0.018368  -0.000517   0.000055   0.000015
     8  H   -0.013799   0.475144  -0.021475   0.000307  -0.002652  -0.000142
     9  H   -0.018368  -0.021475   0.494306   0.000487  -0.007087   0.000570
    10  H   -0.000517   0.000307   0.000487   0.342238  -0.000013  -0.000004
    11  H    0.000055  -0.002652  -0.007087  -0.000013   0.502375  -0.018032
    12  H    0.000015  -0.000142   0.000570  -0.000004  -0.018032   0.484731
    13  H    0.000020   0.001086  -0.000600  -0.000015  -0.033519  -0.019890
    14  H    0.000134   0.000290  -0.000270  -0.000053   0.000036   0.000023
    15  C   -0.000007  -0.000008   0.000010   0.000344   0.000009   0.000008
    16  O    0.000009   0.000008   0.000004  -0.000288  -0.000111   0.000686
    17  H    0.000000   0.000000  -0.000000  -0.000006  -0.000002   0.000007
    18  H    0.000003  -0.000003  -0.000006  -0.000259   0.000007   0.000001
    19  H    0.000000   0.000000  -0.000000  -0.000004  -0.000001  -0.000003
    20  H   -0.000062  -0.000008  -0.000206  -0.000307   0.000946  -0.002956
    21  H   -0.000026  -0.000072  -0.000000  -0.000110   0.000038  -0.000027
              13         14         15         16         17         18
     1  C   -0.013692  -0.003822   0.000069   0.001657   0.000002   0.000019
     2  C    0.011972  -0.016654   0.001428   0.025413   0.000073  -0.001503
     3  O   -0.000066  -0.000307  -0.005610  -0.006006   0.000017   0.005395
     4  C    0.411656   0.000356   0.000015   0.002958   0.000012   0.000009
     5  O   -0.041677   0.005238   0.003655  -0.051942  -0.000018   0.000431
     6  O    0.008224   0.308228   0.003541  -0.041036   0.000005   0.000227
     7  H    0.000020   0.000134  -0.000007   0.000009   0.000000   0.000003
     8  H    0.001086   0.000290  -0.000008   0.000008   0.000000  -0.000003
     9  H   -0.000600  -0.000270   0.000010   0.000004  -0.000000  -0.000006
    10  H   -0.000015  -0.000053   0.000344  -0.000288  -0.000006  -0.000259
    11  H   -0.033519   0.000036   0.000009  -0.000111  -0.000002   0.000007
    12  H   -0.019890   0.000023   0.000008   0.000686   0.000007   0.000001
    13  H    0.493268  -0.000655  -0.000028  -0.000249   0.000001  -0.000008
    14  H   -0.000655   0.317524  -0.000074   0.000742   0.000004  -0.000055
    15  C   -0.000028  -0.000074   4.849834   0.178362   0.404233   0.410487
    16  O   -0.000249   0.000742   0.178362   7.706521  -0.021795  -0.031850
    17  H    0.000001   0.000004   0.404233  -0.021795   0.469006  -0.024407
    18  H   -0.000008  -0.000055   0.410487  -0.031850  -0.024407   0.482734
    19  H    0.000007  -0.000002   0.402724  -0.020878  -0.014869  -0.023420
    20  H   -0.000008  -0.000334  -0.013316   0.279173  -0.005883  -0.001279
    21  H   -0.000053  -0.000401  -0.012407   0.293876   0.003512  -0.001236
              19         20         21
     1  C   -0.000005   0.001649   0.000714
     2  C    0.000117   0.000138   0.002219
     3  O    0.000241   0.002153  -0.000251
     4  C   -0.000003  -0.008975  -0.000543
     5  O   -0.000126   0.056860   0.001821
     6  O   -0.000121  -0.001277   0.031116
     7  H    0.000000  -0.000062  -0.000026
     8  H    0.000000  -0.000008  -0.000072
     9  H   -0.000000  -0.000206  -0.000000
    10  H   -0.000004  -0.000307  -0.000110
    11  H   -0.000001   0.000946   0.000038
    12  H   -0.000003  -0.002956  -0.000027
    13  H    0.000007  -0.000008  -0.000053
    14  H   -0.000002  -0.000334  -0.000401
    15  C    0.402724  -0.013316  -0.012407
    16  O   -0.020878   0.279173   0.293876
    17  H   -0.014869  -0.005883   0.003512
    18  H   -0.023420  -0.001279  -0.001236
    19  H    0.468897   0.003651  -0.005662
    20  H    0.003651   0.272252  -0.020852
    21  H   -0.005662  -0.020852   0.272297
 Mulliken charges:
               1
     1  C   -0.478409
     2  C    0.336549
     3  O   -0.447599
     4  C   -0.276398
     5  O   -0.370026
     6  O   -0.523960
     7  H    0.185885
     8  H    0.189749
     9  H    0.183725
    10  H    0.372965
    11  H    0.177477
    12  H    0.175319
    13  H    0.184227
    14  H    0.390053
    15  C   -0.223268
    16  O   -0.315254
    17  H    0.190108
    18  H    0.184713
    19  H    0.189456
    20  H    0.438641
    21  H    0.436046
 Sum of Mulliken charges =   1.00000
 Mulliken charges with hydrogens summed into heavy atoms:
               1
     1  C    0.080950
     2  C    0.336549
     3  O   -0.074634
     4  C    0.260625
     5  O   -0.370026
     6  O   -0.133907
    15  C    0.341009
    16  O    0.559433
 APT charges:
               1
     1  C   -1.499190
     2  C    0.250223
     3  O   -0.867274
     4  C   -1.239661
     5  O   -0.206293
     6  O   -0.717714
     7  H    0.437611
     8  H    0.599057
     9  H    0.450141
    10  H    0.850804
    11  H    0.611840
    12  H    0.538707
    13  H    0.248404
    14  H    0.658226
    15  C   -1.143057
    16  O   -0.148177
    17  H    0.665671
    18  H    0.245692
    19  H    0.521812
    20  H    0.440533
    21  H    0.302646
 Sum of APT charges =   1.00000
 APT charges with hydrogens summed into heavy atoms:
               1
     1  C   -0.012382
     2  C    0.250223
     3  O   -0.016470
     4  C    0.159289
     5  O   -0.206293
     6  O   -0.059488
    15  C    0.290118
    16  O    0.595002
 Electronic spatial extent (au):  <R**2>=           1384.8805
 Charge=              1.0000 electrons
 Dipole moment (field-independent basis, Debye):
    X=              1.1720    Y=              2.8442    Z=             -1.9358  Tot=              3.6346
 Quadrupole moment (field-independent basis, Debye-Ang):
   XX=            -31.2391   YY=            -36.4165   ZZ=            -34.4708
   XY=              4.3332   XZ=              8.8503   YZ=              0.9783
 Traceless Quadrupole moment (field-independent basis, Debye-Ang):
   XX=              2.8031   YY=             -2.3744   ZZ=             -0.4287
   XY=              4.3332   XZ=              8.8503   YZ=              0.9783
 Octapole moment (field-independent basis, Debye-Ang**2):
  XXX=             43.6537  YYY=            -70.1105  ZZZ=             69.2327  XYY=              5.3070
  XXY=             -4.9358  XXZ=             33.9078  XZZ=             12.5339  YZZ=            -28.8938
  YYZ=             33.8645  XYZ=              6.2035
 Hexadecapole moment (field-independent basis, Debye-Ang**3):
 XXXX=           -569.9557 YYYY=           -383.3168 ZZZZ=           -485.2074 XXXY=             10.4586
 XXXZ=           -136.2116 YYYX=             -3.8705 YYYZ=            -17.6829 ZZZX=           -171.4158
 ZZZY=            -18.2559 XXYY=           -142.9054 XXZZ=           -171.4255 YYZZ=           -179.6957
 XXYZ=             -0.9828 YYXZ=            -41.4556 ZZXY=              0.6237
 N-N= 4.637693478263D+02 E-N=-1.996027926998D+03  KE= 4.585531712673D+02
  Exact polarizability:   0.000   0.000   0.000   0.000   0.000   0.000
 Approx polarizability:  75.430  -0.368  75.543   1.124  -0.341  74.411
   1 Symmetry operations used in ECPInt.
 ECPInt:  NShTT=    9870 NPrTT=   28656 LenC2=    9614 LenP2D=   22021.
 LDataN:  DoStor=T MaxTD1= 8 Len=  415
 D2PCM: PCM CHGder 2nd derivatives, FixD1E=F FixD2E=F DoIter=F DoCFld=F I1PDM=0
 Calling FoFJK, ICntrl=    100147 FMM=F ISym2X=0 I1Cent= 0 IOpClX= 0 NMat=1 NMatS=1 NMatT=0.
 -------------------------------------------------------------------
 Center     Atomic                   Forces (Hartrees/Bohr)
 Number     Number              X              Y              Z
 -------------------------------------------------------------------
      1        6           0.000433731    0.000589070    0.000193063
      2        6           0.003971008    0.002378546    0.004910359
      3        8          -0.006377334    0.003793623   -0.003270950
      4        6           0.006814784   -0.003948795   -0.001464550
      5        8          -0.004978509   -0.004442967    0.001163498
      6        8           0.000037247   -0.002968852   -0.006974242
      7        1           0.000398546    0.002720867    0.001087686
      8        1           0.000409938   -0.000286713    0.002880382
      9        1           0.002730172    0.000156167    0.000119685
     10        1          -0.002303384   -0.001653519    0.006570050
     11        1           0.001179307   -0.000581302    0.002028373
     12        1          -0.000634401   -0.002269143   -0.000633292
     13        1           0.001233075    0.000357726   -0.001742478
     14        1           0.000012185    0.007561746   -0.001465831
     15        6          -0.007786440    0.000271096   -0.000262604
     16        8           0.002797418   -0.005229577   -0.006189999
     17        1          -0.000233847   -0.002413578    0.000086913
     18        1          -0.001318638    0.001277865    0.001612944
     19        1          -0.000669715    0.000954421   -0.002064702
     20        1           0.000665721   -0.001894356    0.003280344
     21        1           0.003619137    0.005627675    0.000135353
 -------------------------------------------------------------------
 Cartesian Forces:  Max     0.007786440 RMS     0.003193516
 FormGI is forming the generalized inverse of G from B-inverse, IUseBI=4.

 GradGradGradGradGradGradGradGradGradGradGradGradGradGradGradGradGradGrad
 Berny optimization.
 Internal  Forces:  Max     0.011733122 RMS     0.003033142
 Search for a saddle point.
 Step number   1 out of a maximum of  126
 All quantities printed in internal units (Hartrees-Bohrs-Radians)
 Swapping is turned off.
 Second derivative matrix not updated -- analytic derivatives used.
 ITU=  0
     Eigenvalues ---   -0.00574   0.00139   0.00157   0.00215   0.00230
     Eigenvalues ---    0.00315   0.00352   0.00388   0.00591   0.00787
     Eigenvalues ---    0.01321   0.01815   0.02582   0.04242   0.04381
     Eigenvalues ---    0.05256   0.05779   0.06149   0.06157   0.06211
     Eigenvalues ---    0.06316   0.07135   0.08687   0.08732   0.10630
     Eigenvalues ---    0.12308   0.12569   0.12863   0.12924   0.13188
     Eigenvalues ---    0.14727   0.15828   0.17443   0.17932   0.18523
     Eigenvalues ---    0.18761   0.18983   0.19256   0.27187   0.28028
     Eigenvalues ---    0.30439   0.31203   0.33366   0.34028   0.34054
     Eigenvalues ---    0.34209   0.34328   0.34624   0.34904   0.35208
     Eigenvalues ---    0.35625   0.35807   0.36067   0.37960   0.44165
     Eigenvalues ---    0.50069   0.50450
 Eigenvectors required to have negative eigenvalues:
                          R13       R15       A35       A36       R20
   1                    0.62377  -0.55107  -0.38572   0.35208  -0.09183
                          R21       D42       D16       D10       R6
   1                    0.04986  -0.04649   0.04608   0.04426  -0.03951
 RFO step:  Lambda0=2.882276744D-04 Lambda=-3.04338092D-03.
 Linear search not attempted -- option 19 set.
 Iteration  1 RMS(Cart)=  0.08186319 RMS(Int)=  0.00220402
 Iteration  2 RMS(Cart)=  0.00410233 RMS(Int)=  0.00063719
 Iteration  3 RMS(Cart)=  0.00000738 RMS(Int)=  0.00063717
 Iteration  4 RMS(Cart)=  0.00000001 RMS(Int)=  0.00063717
 Variable       Old X    -DE/DX   Delta X   Delta X   Delta X     New X
                                 (Linear)    (Quad)   (Total)
    R1        2.86804  -0.00658   0.00000  -0.01354  -0.01354   2.85451
    R2        2.06552  -0.00274   0.00000  -0.00791  -0.00791   2.05761
    R3        2.06667  -0.00265   0.00000  -0.00784  -0.00784   2.05883
    R4        2.06241  -0.00247   0.00000  -0.00746  -0.00746   2.05495
    R5        2.63817  -0.00949   0.00000  -0.01805  -0.01805   2.62013
    R6        2.69402  -0.01173   0.00000  -0.03374  -0.03470   2.65932
    R7        2.68580  -0.00990   0.00000  -0.01728  -0.01757   2.66823
    R8        1.83936  -0.00705   0.00000  -0.01383  -0.01383   1.82553
    R9        2.74192  -0.01068   0.00000  -0.03620  -0.03620   2.70572
   R10        2.06221  -0.00235   0.00000  -0.00534  -0.00534   2.05687
   R11        2.05823  -0.00244   0.00000  -0.00652  -0.00652   2.05170
   R12        2.06414  -0.00205   0.00000  -0.00460  -0.00460   2.05954
   R13        3.16664  -0.00364   0.00000   0.07078   0.07050   3.23714
   R14        1.84067  -0.00755   0.00000  -0.01461  -0.01461   1.82606
   R15        3.38611  -0.00116   0.00000  -0.16788  -0.16726   3.21885
   R16        2.80572  -0.01002   0.00000  -0.03920  -0.03920   2.76652
   R17        2.05295  -0.00238   0.00000  -0.00577  -0.00577   2.04718
   R18        2.05685  -0.00237   0.00000  -0.00567  -0.00567   2.05119
   R19        2.05296  -0.00237   0.00000  -0.00590  -0.00590   2.04706
   R20        1.92386  -0.00670   0.00000  -0.02872  -0.02842   1.89544
   R21        1.89647  -0.00756   0.00000  -0.00351  -0.00261   1.89387
    A1        1.90214  -0.00105   0.00000  -0.00573  -0.00574   1.89639
    A2        1.92189  -0.00119   0.00000  -0.00731  -0.00734   1.91455
    A3        1.94290  -0.00124   0.00000  -0.00700  -0.00703   1.93587
    A4        1.89428   0.00127   0.00000   0.00974   0.00973   1.90401
    A5        1.89697   0.00115   0.00000   0.00554   0.00552   1.90249
    A6        1.90487   0.00115   0.00000   0.00535   0.00531   1.91019
    A7        1.98121   0.00070   0.00000  -0.00128  -0.00146   1.97975
    A8        1.98904  -0.00139   0.00000  -0.00280  -0.00274   1.98629
    A9        1.96608  -0.00049   0.00000  -0.00951  -0.00851   1.95756
   A10        1.84225   0.00015   0.00000   0.00408   0.00438   1.84662
   A11        1.84313   0.00007   0.00000   0.00254   0.00203   1.84516
   A12        1.82800   0.00110   0.00000   0.00873   0.00789   1.83589
   A13        1.91940  -0.00218   0.00000  -0.00432  -0.00432   1.91508
   A14        1.91698  -0.00028   0.00000   0.00545   0.00543   1.92241
   A15        1.84119   0.00062   0.00000   0.01149   0.01145   1.85264
   A16        1.93016  -0.00093   0.00000  -0.00019  -0.00020   1.92996
   A17        1.91505   0.00025   0.00000  -0.00304  -0.00309   1.91196
   A18        1.93781   0.00004   0.00000  -0.00939  -0.00939   1.92842
   A19        1.92031   0.00033   0.00000  -0.00330  -0.00331   1.91700
   A20        2.05215  -0.00404   0.00000  -0.01646  -0.01621   2.03594
   A21        1.77676   0.00057   0.00000  -0.01872  -0.01890   1.75786
   A22        1.99915   0.00204   0.00000   0.03529   0.03479   2.03395
   A23        1.93207  -0.00132   0.00000  -0.00638  -0.00650   1.92557
   A24        1.81751  -0.00072   0.00000  -0.03559  -0.03806   1.77945
   A25        2.12321   0.00095   0.00000   0.00833   0.00834   2.13155
   A26        1.83867   0.00092   0.00000   0.01517   0.01513   1.85380
   A27        1.89918  -0.00110   0.00000  -0.00202  -0.00203   1.89715
   A28        1.84749  -0.00003   0.00000   0.00537   0.00534   1.85283
   A29        1.96194  -0.00001   0.00000  -0.00528  -0.00529   1.95666
   A30        1.94702  -0.00011   0.00000  -0.00669  -0.00676   1.94026
   A31        1.96099   0.00032   0.00000  -0.00438  -0.00438   1.95661
   A32        1.98586  -0.00122   0.00000  -0.00965  -0.00879   1.97707
   A33        1.98208  -0.00082   0.00000  -0.01019  -0.01144   1.97064
   A34        1.73959   0.00103   0.00000   0.00706   0.00758   1.74717
   A35        2.56401  -0.00086   0.00000  -0.08460  -0.08517   2.47885
   A36        2.38877  -0.00156   0.00000   0.07923   0.08036   2.46913
    D1        0.94930   0.00021   0.00000  -0.01443  -0.01455   0.93476
    D2        3.05924  -0.00011   0.00000  -0.01214  -0.01194   3.04730
    D3       -1.14441  -0.00003   0.00000  -0.00977  -0.00987  -1.15428
    D4       -1.12671   0.00001   0.00000  -0.01848  -0.01858  -1.14529
    D5        0.98322  -0.00031   0.00000  -0.01618  -0.01597   0.96725
    D6        3.06276  -0.00023   0.00000  -0.01381  -0.01390   3.04886
    D7        3.04140   0.00019   0.00000  -0.01562  -0.01573   3.02567
    D8       -1.13185  -0.00013   0.00000  -0.01333  -0.01313  -1.14497
    D9        0.94769  -0.00005   0.00000  -0.01096  -0.01105   0.93664
   D10        0.90723  -0.00043   0.00000  -0.00398  -0.00418   0.90305
   D11       -1.28337   0.00077   0.00000  -0.00257  -0.00295  -1.28632
   D12        3.06944  -0.00055   0.00000  -0.01495  -0.01436   3.05508
   D13        0.82987  -0.00031   0.00000   0.02298   0.02278   0.85265
   D14        3.02909   0.00022   0.00000   0.04328   0.04255   3.07164
   D15        3.01562  -0.00021   0.00000   0.02253   0.02236   3.03798
   D16       -1.06834   0.00032   0.00000   0.04283   0.04212  -1.02621
   D17       -1.32645   0.00037   0.00000   0.03044   0.02956  -1.29689
   D18        0.87278   0.00089   0.00000   0.05073   0.04932   0.92210
   D19        0.93895   0.00053   0.00000  -0.02664  -0.02661   0.91233
   D20       -3.03433   0.00030   0.00000  -0.04680  -0.04736  -3.08169
   D21       -1.23277  -0.00009   0.00000  -0.02086  -0.02091  -1.25368
   D22        1.07714  -0.00032   0.00000  -0.04103  -0.04165   1.03549
   D23        3.10994  -0.00073   0.00000  -0.02988  -0.02978   3.08016
   D24       -0.86334  -0.00096   0.00000  -0.05004  -0.05053  -0.91386
   D25       -1.28293   0.00007   0.00000   0.00055   0.00011  -1.28283
   D26        2.91489   0.00083   0.00000   0.00987   0.01035   2.92524
   D27        2.93757  -0.00044   0.00000  -0.00506  -0.00553   2.93204
   D28        0.85221   0.00033   0.00000   0.00427   0.00471   0.85692
   D29        0.86187  -0.00070   0.00000  -0.00773  -0.00819   0.85367
   D30       -1.22350   0.00007   0.00000   0.00160   0.00205  -1.22144
   D31       -0.64367   0.00120   0.00000   0.04803   0.04871  -0.59496
   D32        1.58996  -0.00221   0.00000   0.03527   0.03538   1.62535
   D33        0.51502   0.00085   0.00000   0.00114   0.00305   0.51807
   D34        2.70878  -0.00096   0.00000  -0.03494  -0.03482   2.67395
   D35        1.13104  -0.00010   0.00000   0.00734   0.00704   1.13808
   D36        3.10517  -0.00014   0.00000   0.00319   0.00345   3.10862
   D37       -0.97631  -0.00003   0.00000   0.00612   0.00584  -0.97047
   D38        0.99782  -0.00007   0.00000   0.00198   0.00225   1.00007
   D39       -3.08752   0.00020   0.00000   0.00935   0.00910  -3.07842
   D40       -1.11338   0.00016   0.00000   0.00520   0.00550  -1.10788
   D41        2.28169  -0.00172   0.00000  -0.09640  -0.09515   2.18655
   D42        0.16606  -0.00081   0.00000  -0.08417  -0.08215   0.08391
   D43       -2.19669   0.00050   0.00000   0.04707   0.04874  -2.14795
   D44       -0.07833  -0.00070   0.00000   0.03522   0.03766  -0.04067
         Item               Value     Threshold  Converged?
 Maximum Force            0.011733     0.000450     NO 
 RMS     Force            0.003033     0.000300     NO 
 Maximum Displacement     0.280727     0.001800     NO 
 RMS     Displacement     0.083320     0.001200     NO 
 Predicted change in Energy=-1.452087D-03
 GradGradGradGradGradGradGradGradGradGradGradGradGradGradGradGradGradGrad

                          Input orientation:                          
 ---------------------------------------------------------------------
 Center     Atomic      Atomic             Coordinates (Angstroms)
 Number     Number       Type             X           Y           Z
 ---------------------------------------------------------------------
      1          6           0       -1.535971   -0.555462   -2.246795
      2          6           0       -0.545788    0.031470   -1.268643
      3          8           0        0.774772   -0.245203   -1.587996
      4          6           0       -1.931426    1.985115   -0.950373
      5          8           0       -0.626204    1.431408   -1.150058
      6          8           0       -0.734210   -0.462136    0.040745
      7          1           0       -1.338190   -1.621663   -2.345100
      8          1           0       -1.416993   -0.079774   -3.219702
      9          1           0       -2.556236   -0.415283   -1.897630
     10          1           0        0.946377    0.000039   -2.506485
     11          1           0       -2.503747    1.938862   -1.875050
     12          1           0       -1.779467    3.022590   -0.668722
     13          1           0       -2.453215    1.457781   -0.151967
     14          1           0       -0.747568   -1.428345    0.036563
     15          6           0        2.355689    1.169047    0.897531
     16          8           0        0.898440    1.306398    0.925820
     17          1           0        2.753989    2.176124    0.870368
     18          1           0        2.634185    0.595764    0.018914
     19          1           0        2.628896    0.664983    1.816622
     20          1           0        0.522276    1.712629    0.089440
     21          1           0        0.423266    0.424025    0.921846
 ---------------------------------------------------------------------
                    Distance matrix (angstroms):
                    1          2          3          4          5
     1  C    0.000000
     2  C    1.510541   0.000000
     3  O    2.422770   1.386511   0.000000
     4  C    2.879518   2.416199   3.564322   0.000000
     5  O    2.445027   1.407251   2.228351   1.431807   0.000000
     6  O    2.425773   1.411966   2.230894   2.899083   2.239462
     7  H    1.088838   2.125914   2.632957   3.912294   3.355040
     8  H    1.089487   2.139627   2.737456   3.110991   2.681873
     9  H    1.087431   2.153396   3.349689   2.655107   2.773834
    10  H    2.556965   1.939019   0.966030   3.826717   2.522245
    11  H    2.701191   2.799907   3.949840   1.088448   2.075643
    12  H    3.918170   3.290695   4.248256   1.085713   2.023255
    13  H    3.046767   2.630515   3.922020   1.089860   2.082031
    14  H    2.568507   1.968587   2.521217   3.745300   3.098545
    15  C    5.292045   3.795386   3.267605   4.739206   3.626726
    16  O    4.411164   2.920086   2.956693   3.462499   2.578650
    17  H    5.965067   4.479223   3.977899   5.030377   4.007796
    18  H    4.883540   3.476846   2.597460   4.869766   3.562995
    19  H    5.945332   4.472004   3.982165   5.495048   4.470378
    20  H    3.852092   2.410694   2.590492   2.678827   1.713022
    21  H    3.852051   2.427223   2.621208   3.389216   2.531599
                    6          7          8          9         10
     6  O    0.000000
     7  H    2.720579   0.000000
     8  H    3.353045   1.774419   0.000000
     9  H    2.660690   1.771784   1.777165   0.000000
    10  H    3.086480   2.806280   2.469932   3.579314   0.000000
    11  H    3.544902   3.775819   2.657821   2.354839   4.007630
    12  H    3.706646   4.957223   4.032809   3.732634   4.465805
    13  H    2.584222   3.941585   3.584526   2.562483   4.384745
    14  H    0.966310   2.461407   3.587483   2.835256   3.372954
    15  C    3.597543   5.652208   5.722262   5.869415   3.865238
    16  O    2.564492   4.926964   4.946519   4.782347   3.672818
    17  H    4.451542   6.442698   6.262175   6.525005   4.405218
    18  H    3.530682   5.126920   5.230395   5.624574   3.095355
    19  H    3.966689   6.187605   6.502956   6.469021   4.686393
    20  H    2.512117   4.528335   4.233661   4.237179   3.138734
    21  H    1.703342   4.237984   4.559911   4.187042   3.493832
                   11         12         13         14         15
    11  H    0.000000
    12  H    1.776028   0.000000
    13  H    1.789695   1.780337   0.000000
    14  H    4.251649   4.623102   3.357753   0.000000
    15  C    5.647472   4.794610   4.930555   4.137379   0.000000
    16  O    4.451939   3.557958   3.523937   3.313448   1.463981
    17  H    5.936110   4.861844   5.355013   5.093950   1.083322
    18  H    5.638205   5.083567   5.162743   3.941266   1.085441
    19  H    6.449437   5.582913   5.507425   4.353291   1.083260
    20  H    3.614861   2.754783   2.996126   3.388365   2.076029
    21  H    4.322588   3.759585   3.239734   2.363441   2.071208
                   16         17         18         19         20
    16  O    0.000000
    17  H    2.050015   0.000000
    18  H    2.083337   1.799129   0.000000
    19  H    2.049249   1.787343   1.799048   0.000000
    20  H    1.003023   2.409403   2.390088   2.918659   0.000000
    21  H    1.002191   2.916293   2.394356   2.392381   1.537271
                   21
    21  H    0.000000
 Symmetry turned off by external request.
 Stoichiometry    C4H13O4(1+)
 Framework group  C1[X(C4H13O4)]
 Deg. of freedom    57
 Full point group                 C1      NOp   1
 Rotational constants (GHZ):           2.7648476           1.3401177           1.1211301
 Standard basis: def2TZVP (5D, 7F)
   326 basis functions,   512 primitive gaussians,   366 cartesian basis functions
    34 alpha electrons       34 beta electrons
       nuclear repulsion energy       469.9241075141 Hartrees.
 NAtoms=   21 NActive=   21 NUniq=   21 SFac= 1.00D+00 NAtFMM=   60 NAOKFM=F Big=F
 Integral buffers will be    131072 words long.
 Raffenetti 2 integral format.
 Two-electron integral symmetry is turned off.
 ------------------------------------------------------------------------------
 Polarizable Continuum Model (PCM)
 =================================
 Model                : PCM.
 Atomic radii         : UFF (Universal Force Field).
 Polarization charges : Total charges.
 Charge compensation  : None.
 Solution method      : Matrix inversion.
 Cavity type          : Scaled VdW (van der Waals Surface) (Alpha=1.100).
 Cavity algorithm     : GePol (No added spheres)
                        Default sphere list used, NSphG=   21.
                        Lebedev-Laikov grids with approx.  7.0 points / Ang**2.
                        Smoothing algorithm: York/Karplus (Gamma=1.0000).
                        Polarization charges: spherical gaussians, with
                                              point-specific exponents (IZeta= 3).
                        Self-potential: point-specific (ISelfS= 7).
                        Self-field    : sphere-specific E.n sum rule (ISelfD= 2).
 1st derivatives      : Analytical E(r).r(x)/FMM algorithm (CHGder, D1EAlg=3).
                        Cavity 1st derivative terms included.
 Solvent              : 1,2-EthaneDiol, Eps=  40.245000 Eps(inf)=   2.050051
 ------------------------------------------------------------------------------
 One-electron integrals computed using PRISM.
   1 Symmetry operations used in ECPInt.
 ECPInt:  NShTT=    9870 NPrTT=   28656 LenC2=    9634 LenP2D=   22131.
 LDataN:  DoStor=T MaxTD1= 6 Len=  172
 NBasis=   326 RedAO= T EigKep=  2.83D-04  NBF=   326
 NBsUse=   326 1.00D-06 EigRej= -1.00D+00 NBFU=   326
 Initial guess from the checkpoint file:  "/dev/shm/ts3b.chk"
 B after Tr=    -0.001975    0.037480    0.022548
         Rot=    0.999999    0.001500    0.000282    0.000115 Ang=   0.18 deg.
 ExpMin= 9.52D-02 ExpMax= 2.70D+04 ExpMxC= 9.22D+02 IAcc=3 IRadAn=         5 AccDes= 0.00D+00
 Harris functional with IExCor= 1009 and IRadAn=       5 diagonalized for initial guess.
 HarFok:  IExCor= 1009 AccDes= 0.00D+00 IRadAn=         5 IDoV= 1 UseB2=F ITyADJ=14
 ICtDFT=  3500011 ScaDFX=  1.000000  1.000000  1.000000  1.000000
 FoFCou: FMM=F IPFlag=           0 FMFlag=      100000 FMFlg1=           0
         NFxFlg=           0 DoJE=T BraDBF=F KetDBF=T FulRan=T
         wScrn=  0.000000 ICntrl=       500 IOpCl=  0 I1Cent=   200000004 NGrid=           0
         NMat0=    1 NMatS0=      1 NMatT0=    0 NMatD0=    1 NMtDS0=    0 NMtDT0=    0
 Symmetry not used in FoFCou.
 Requested convergence on RMS density matrix=1.00D-08 within 400 cycles.
 Requested convergence on MAX density matrix=1.00D-06.
 Requested convergence on             energy=1.00D-06.
 No special actions if energy rises.
 Inv3:  Mode=1 IEnd=    16300683.
 Iteration    1 A*A^-1 deviation from unit magnitude is 2.78D-15 for    762.
 Iteration    1 A*A^-1 deviation from orthogonality  is 1.67D-15 for   2158   1687.
 Iteration    1 A^-1*A deviation from unit magnitude is 2.66D-15 for    610.
 Iteration    1 A^-1*A deviation from orthogonality  is 4.11D-15 for   2218   2096.
 Error on total polarization charges =  0.00852
 SCF Done:  E(RM062X) =  -460.957834143     A.U. after   10 cycles
            NFock= 10  Conv=0.55D-08     -V/T= 2.0046
 QCSCF skips out because SCF is already converged.
   1 Symmetry operations used in ECPInt.
 ECPInt:  NShTT=    9870 NPrTT=   28656 LenC2=    9634 LenP2D=   22131.
 LDataN:  DoStor=T MaxTD1= 7 Len=  274
 D1PCM: PCM CHGder 1st derivatives, ID1Alg=3 FixD1E=F DoIter=F DoCFld=F I1PDM=0.
 Calling FoFJK, ICntrl=      2127 FMM=F ISym2X=0 I1Cent= 0 IOpClX= 0 NMat=1 NMatS=1 NMatT=0.
 -------------------------------------------------------------------
 Center     Atomic                   Forces (Hartrees/Bohr)
 Number     Number              X              Y              Z
 -------------------------------------------------------------------
      1        6           0.000003818   -0.000171441   -0.000148231
      2        6          -0.000032708   -0.000633532   -0.000223326
      3        8          -0.000057168   -0.000095942   -0.000000208
      4        6          -0.000591333    0.000342386    0.000039568
      5        8           0.000567607    0.000699769   -0.000212971
      6        8          -0.000026931   -0.000063265    0.000260468
      7        1           0.000029214    0.000092100   -0.000163878
      8        1          -0.000031069    0.000059652    0.000018584
      9        1           0.000007194   -0.000074929    0.000021701
     10        1           0.000027215   -0.000046775   -0.000135285
     11        1          -0.000022686    0.000009543   -0.000000792
     12        1          -0.000020577    0.000029314    0.000037681
     13        1          -0.000011551    0.000007745   -0.000023092
     14        1          -0.000130933   -0.000281192    0.000102055
     15        6           0.000728428    0.000034428   -0.000143293
     16        8           0.000724257    0.000022201    0.000362796
     17        1          -0.000031376   -0.000014562    0.000009907
     18        1           0.000133687    0.000121186    0.000244960
     19        1           0.000051166    0.000033192    0.000066041
     20        1          -0.000836913    0.000194929   -0.000493779
     21        1          -0.000479341   -0.000264807    0.000381095
 -------------------------------------------------------------------
 Cartesian Forces:  Max     0.000836913 RMS     0.000276939

 GradGradGradGradGradGradGradGradGradGradGradGradGradGradGradGradGradGrad
 Berny optimization.
 FormGI is forming the generalized inverse of G from B-inverse, IUseBI=4.
 Internal  Forces:  Max     0.000959339 RMS     0.000249822
 Search for a saddle point.
 Step number   2 out of a maximum of  126
 ...
 Step number   7 out of a maximum of  126
 All quantities printed in internal units (Hartrees-Bohrs-Radians)
 Swapping is turned off.
 Update second derivatives using D2CorX and points    1    2    3    4    5
                                                      6    7
 ITU=  0  0  0  0  0  0  0
     Eigenvalues ---   -0.00400   0.00123   0.00156   0.00206   0.00238
     Eigenvalues ---    0.00290   0.00346   0.00384   0.00648   0.00804
     Eigenvalues ---    0.01715   0.01950   0.02575   0.04245   0.04382
     Eigenvalues ---    0.05252   0.05787   0.06151   0.06164   0.06211
     Eigenvalues ---    0.06317   0.07139   0.08734   0.08977   0.10652
     Eigenvalues ---    0.12317   0.12575   0.12885   0.12939   0.13260
     Eigenvalues ---    0.14725   0.15839   0.17546   0.17940   0.18523
     Eigenvalues ---    0.18761   0.18998   0.19259   0.27195   0.28031
     Eigenvalues ---    0.30495   0.31345   0.33452   0.34029   0.34052
     Eigenvalues ---    0.34206   0.34340   0.34637   0.34905   0.35220
     Eigenvalues ---    0.35626   0.35863   0.36073   0.37916   0.44361
     Eigenvalues ---    0.50085   0.50458
 Eigenvectors required to have negative eigenvalues:
                          R13       R15       A35       A36       D34
   1                   -0.62540   0.54247   0.36451  -0.35842   0.09165
                          D33       R21       R20       D43       D44
   1                    0.08994  -0.07121   0.06974  -0.05862  -0.05215
 RFO step:  Lambda0=2.446579304D-09 Lambda=-4.25465111D-08.
 Linear search not attempted -- option 19 set.
 Iteration  1 RMS(Cart)=  0.00052180 RMS(Int)=  0.00000015
 Iteration  2 RMS(Cart)=  0.00000025 RMS(Int)=  0.00000003
 Variable       Old X    -DE/DX   Delta X   Delta X   Delta X     New X
                                 (Linear)    (Quad)   (Total)
    R1        2.85501   0.00000   0.00000   0.00001   0.00001   2.85502
    R2        2.05727   0.00000   0.00000   0.00000   0.00000   2.05727
    R3        2.05887  -0.00000   0.00000  -0.00000  -0.00000   2.05887
    R4        2.05500  -0.00000   0.00000   0.00000   0.00000   2.05500
    R5        2.61992  -0.00000   0.00000   0.00004   0.00004   2.61996
    R6        2.65749   0.00000   0.00000  -0.00006  -0.00006   2.65743
    R7        2.67345  -0.00002   0.00000  -0.00004  -0.00004   2.67341
    R8        1.82572   0.00000   0.00000   0.00001   0.00001   1.82573
    R9        2.70668   0.00001   0.00000   0.00002   0.00002   2.70670
   R10        2.05720  -0.00000   0.00000   0.00000   0.00000   2.05720
   R11        2.05180   0.00000   0.00000   0.00000   0.00000   2.05180
   R12        2.05965   0.00000   0.00000   0.00000   0.00000   2.05965
   R13        3.32457  -0.00001   0.00000   0.00067   0.00067   3.32524
   R14        1.82682  -0.00000   0.00000   0.00000   0.00000   1.82682
   R15        3.15103  -0.00000   0.00000  -0.00027  -0.00027   3.15076
   R16        2.76798   0.00002   0.00000   0.00010   0.00010   2.76807
   R17        2.04708  -0.00000   0.00000  -0.00001  -0.00001   2.04707
   R18        2.05062  -0.00000   0.00000  -0.00001  -0.00001   2.05061
   R19        2.04714  -0.00000   0.00000  -0.00000  -0.00000   2.04714
   R20        1.88777  -0.00001   0.00000  -0.00011  -0.00011   1.88766
   R21        1.90424  -0.00002   0.00000   0.00000   0.00000   1.90424
    A1        1.89798  -0.00000   0.00000   0.00001   0.00001   1.89798
    A2        1.91245  -0.00000   0.00000  -0.00001  -0.00001   1.91244
    A3        1.93627   0.00000   0.00000   0.00000   0.00000   1.93627
    A4        1.90347   0.00000   0.00000   0.00001   0.00001   1.90348
    A5        1.90363  -0.00000   0.00000   0.00000   0.00000   1.90363
    A6        1.90971  -0.00000   0.00000  -0.00000  -0.00000   1.90970
    A7        1.97896   0.00000   0.00000  -0.00002  -0.00002   1.97894
    A8        1.98773   0.00001   0.00000   0.00004   0.00004   1.98777
    A9        1.95693  -0.00001   0.00000   0.00001   0.00001   1.95694
   A10        1.84837  -0.00001   0.00000  -0.00004  -0.00004   1.84832
   A11        1.84332   0.00000   0.00000  -0.00001  -0.00001   1.84331
   A12        1.83591   0.00000   0.00000   0.00002   0.00002   1.83593
   A13        1.91459  -0.00000   0.00000  -0.00001  -0.00001   1.91458
   A14        1.92348   0.00000   0.00000   0.00001   0.00001   1.92349
   A15        1.85242   0.00000   0.00000  -0.00000  -0.00000   1.85242
   A16        1.93033   0.00000   0.00000  -0.00000  -0.00000   1.93033
   A17        1.91224  -0.00000   0.00000  -0.00000  -0.00000   1.91224
   A18        1.92769  -0.00000   0.00000  -0.00001  -0.00001   1.92769
   A19        1.91625  -0.00000   0.00000  -0.00000  -0.00000   1.91624
   A20        2.03492   0.00001   0.00000   0.00005   0.00005   2.03497
   A21        1.75557  -0.00000   0.00000  -0.00004  -0.00004   1.75553
   A22        2.03932  -0.00001   0.00000  -0.00001  -0.00001   2.03931
   A23        1.92820   0.00000   0.00000  -0.00001  -0.00001   1.92819
   A24        1.78370  -0.00001   0.00000  -0.00034  -0.00034   1.78337
   A25        2.13407   0.00000   0.00000   0.00002   0.00002   2.13408
   A26        1.85364   0.00000   0.00000   0.00002   0.00002   1.85366
   A27        1.89876  -0.00001   0.00000  -0.00006  -0.00006   1.89870
   A28        1.85151  -0.00001   0.00000  -0.00008  -0.00008   1.85144
   A29        1.95668   0.00000   0.00000   0.00005   0.00005   1.95672
   A30        1.93992   0.00000   0.00000   0.00005   0.00005   1.93997
   A31        1.95676   0.00000   0.00000   0.00001   0.00001   1.95677
   A32        1.97967   0.00001   0.00000   0.00013   0.00013   1.97980
   A33        1.97996  -0.00001   0.00000  -0.00006  -0.00006   1.97990
   A34        1.74896   0.00000   0.00000   0.00009   0.00009   1.74905
   A35        2.43462  -0.00000   0.00000  -0.00044  -0.00044   2.43418
   A36        2.51061   0.00000   0.00000   0.00037   0.00037   2.51098
    D1        0.91406   0.00000   0.00000   0.00005   0.00005   0.91411
    D2        3.02942  -0.00000   0.00000   0.00001   0.00001   3.02943
    D3       -1.17156   0.00000   0.00000   0.00008   0.00008  -1.17148
    D4       -1.16505   0.00000   0.00000   0.00005   0.00005  -1.16500
    D5        0.95032  -0.00000   0.00000   0.00000   0.00000   0.95032
    D6        3.03252   0.00000   0.00000   0.00007   0.00007   3.03259
    D7        3.00763   0.00000   0.00000   0.00006   0.00006   3.00769
    D8       -1.16019  -0.00000   0.00000   0.00001   0.00001  -1.16017
    D9        0.92202   0.00000   0.00000   0.00008   0.00008   0.92210
   D10        0.90311   0.00000   0.00000   0.00007   0.00007   0.90318
   D11       -1.28885  -0.00000   0.00000   0.00007   0.00007  -1.28878
   D12        3.05257  -0.00000   0.00000   0.00006   0.00006   3.05263
   D13        0.84699   0.00000   0.00000   0.00034   0.00034   0.84733
   D14        3.07044   0.00000   0.00000   0.00033   0.00033   3.07077
   D15        3.03355   0.00001   0.00000   0.00031   0.00031   3.03386
   D16       -1.02618   0.00000   0.00000   0.00030   0.00030  -1.02589
   D17       -1.30266   0.00001   0.00000   0.00029   0.00029  -1.30237
   D18        0.92079   0.00000   0.00000   0.00028   0.00028   0.92107
   D19        0.90358  -0.00000   0.00000  -0.00031  -0.00031   0.90327
   D20       -3.08283  -0.00001   0.00000  -0.00052  -0.00052  -3.08336
   D21       -1.25981  -0.00000   0.00000  -0.00028  -0.00028  -1.26009
   D22        1.03696  -0.00001   0.00000  -0.00049  -0.00049   1.03647
   D23        3.07281   0.00000   0.00000  -0.00023  -0.00023   3.07258
   D24       -0.91360  -0.00000   0.00000  -0.00045  -0.00045  -0.91405
   D25       -1.28248   0.00000   0.00000  -0.00002  -0.00002  -1.28250
   D26        2.92511  -0.00000   0.00000   0.00001   0.00001   2.92512
   D27        2.93161   0.00000   0.00000  -0.00002  -0.00002   2.93159
   D28        0.85602  -0.00000   0.00000   0.00001   0.00001   0.85602
   D29        0.85407   0.00000   0.00000  -0.00001  -0.00001   0.85406
   D30       -1.22152  -0.00000   0.00000   0.00001   0.00001  -1.22151
   D31       -0.59469  -0.00000   0.00000   0.00080   0.00080  -0.59389
   D32        1.62585   0.00001   0.00000   0.00083   0.00083   1.62668
   D33        0.50944   0.00000   0.00000   0.00039   0.00039   0.50982
   D34        2.67443  -0.00000   0.00000   0.00008   0.00008   2.67451
   D35        1.11393   0.00000   0.00000   0.00026   0.00026   1.11420
   D36        3.09452   0.00000   0.00000   0.00042   0.00042   3.09494
   D37       -0.99543  -0.00000   0.00000   0.00023   0.00023  -0.99520
   D38        0.98516  -0.00000   0.00000   0.00038   0.00038   0.98555
   D39       -3.10368   0.00000   0.00000   0.00029   0.00029  -3.10339
   D40       -1.12309   0.00000   0.00000   0.00045   0.00045  -1.12265
   D41        2.19553  -0.00001   0.00000  -0.00084  -0.00084   2.19469
   D42        0.07953   0.00000   0.00000  -0.00088  -0.00088   0.07865
   D43       -2.15103  -0.00000   0.00000   0.00003   0.00003  -2.15100
   D44       -0.03524   0.00000   0.00000   0.00021   0.00021  -0.03504
         Item               Value     Threshold  Converged?
 Maximum Force            0.000018     0.000450     YES
 RMS     Force            0.000005     0.000300     YES
 Maximum Displacement     0.002027     0.001800     NO 
 RMS     Displacement     0.000522     0.001200     YES
 Predicted change in Energy=-2.004999D-08
 GradGradGradGradGradGradGradGradGradGradGradGradGradGradGradGradGradGrad

                          Input orientation:                          
 ---------------------------------------------------------------------
 Center     Atomic      Atomic             Coordinates (Angstroms)
 Number     Number       Type             X           Y           Z
 ---------------------------------------------------------------------
      1          6           0       -1.540808   -0.561774   -2.239904
      2          6           0       -0.546504    0.041141   -1.275330
      3          8           0        0.772849   -0.229677   -1.604171
      4          6           0       -1.946059    1.984339   -0.962645
      5          8           0       -0.636658    1.440139   -1.164803
      6          8           0       -0.718557   -0.446613    0.041444
      7          1           0       -1.324402   -1.623271   -2.347489
      8          1           0       -1.445348   -0.078887   -3.211878
      9          1           0       -2.558150   -0.441778   -1.874958
     10          1           0        0.934073    0.008609   -2.526474
     11          1           0       -2.523035    1.928095   -1.884076
     12          1           0       -1.801289    3.024576   -0.687257
     13          1           0       -2.460224    1.457837   -0.158679
     14          1           0       -0.731508   -1.413231    0.045040
     15          6           0        2.367047    1.154368    0.914979
     16          8           0        0.910388    1.308436    0.922143
     17          1           0        2.777046    2.156937    0.900243
     18          1           0        2.653726    0.582899    0.038188
     19          1           0        2.619148    0.642441    1.835800
     20          1           0        0.552705    1.742034    0.096391
     21          1           0        0.414432    0.431747    0.892764
 ---------------------------------------------------------------------
                    Distance matrix (angstroms):
                    1          2          3          4          5
     1  C    0.000000
     2  C    1.510811   0.000000
     3  O    2.422283   1.386423   0.000000
     4  C    2.877205   2.415067   3.564531   0.000000
     5  O    2.445606   1.406251   2.228910   1.432324   0.000000
     6  O    2.427737   1.414708   2.231457   2.902496   2.240887
     7  H    1.088661   2.127185   2.625469   3.913963   3.355030
     8  H    1.089507   2.138352   2.743694   3.093003   2.674312
     9  H    1.087460   2.153946   3.348711   2.663271   2.781738
    10  H    2.555875   1.938692   0.966134   3.826778   2.524009
    11  H    2.700153   2.799615   3.949326   1.088624   2.076987
    12  H    3.916691   3.289560   4.249362   1.085767   2.023575
    13  H    3.042310   2.629879   3.922998   1.089922   2.082785
    14  H    2.569225   1.973018   2.526615   3.746204   3.100716
    15  C    5.307519   3.811234   3.286817   4.776735   3.664614
    16  O    4.416400   2.925313   2.960907   3.488346   2.601161
    17  H    5.991309   4.500633   3.998102   5.080144   4.053589
    18  H    4.908574   3.501472   2.625895   4.911591   3.606754
    19  H    5.946994   4.479067   4.000351   5.520245   4.498912
    20  H    3.892121   2.446000   2.613048   2.724718   1.759640
    21  H    3.824089   2.403456   2.607801   3.380089   2.520957
                    6          7          8          9         10
     6  O    0.000000
     7  H    2.731039   0.000000
     8  H    3.353737   1.773955   0.000000
     9  H    2.656449   1.772385   1.776900   0.000000
    10  H    3.087493   2.792092   2.477717   3.580913   0.000000
    11  H    3.550072   3.776728   2.636749   2.370150   4.006082
    12  H    3.708433   4.958455   4.016453   3.741535   4.467771
    13  H    2.588511   3.946418   3.565603   2.561979   4.384970
    14  H    0.966711   2.473830   3.591317   2.822540   3.377642
    15  C    3.584293   5.655596   5.752063   5.881240   3.899971
    16  O    2.551331   4.927442   4.956238   4.787251   3.685521
    17  H    4.442438   6.454426   6.303734   6.551288   4.444575
    18  H    3.525932   5.136550   5.272884   5.645683   3.140781
    19  H    3.942845   6.179397   6.520698   6.461398   4.719179
    20  H    2.531660   4.563043   4.272309   4.281667   3.166958
    21  H    1.667312   4.212587   4.535154   4.154464   3.484287
                   11         12         13         14         15
    11  H    0.000000
    12  H    1.776391   0.000000
    13  H    1.789436   1.779961   0.000000
    14  H    4.253882   4.623291   3.357528   0.000000
    15  C    5.687377   4.841473   4.954531   4.117086   0.000000
    16  O    4.477414   3.590055   3.542813   3.297363   1.464801
    17  H    5.991299   4.922815   5.388790   5.078132   1.083264
    18  H    5.683617   5.131785   5.191990   3.929935   1.085138
    19  H    6.475526   5.619666   5.517504   4.319665   1.083299
    20  H    3.662929   2.792903   3.037033   3.406983   2.075397
    21  H    4.310291   3.758809   3.228319   2.331472   2.082157
                   16         17         18         19         20
    16  O    0.000000
    17  H    2.050573   0.000000
    18  H    2.084948   1.798872   0.000000
    19  H    2.048947   1.787148   1.798930   0.000000
    20  H    0.998904   2.401253   2.400265   2.916305   0.000000
    21  H    1.007680   2.925454   2.401579   2.407173   1.539539
                   21
    21  H    0.000000
 Symmetry turned off by external request.
 Stoichiometry    C4H13O4(1+)
 Framework group  C1[X(C4H13O4)]
 Deg. of freedom    57
 Full point group                 C1      NOp   1
 Rotational constants (GHZ):           2.7708352           1.3303472           1.1143274
 Standard basis: def2TZVP (5D, 7F)
   326 basis functions,   512 primitive gaussians,   366 cartesian basis functions
    34 alpha electrons       34 beta electrons
       nuclear repulsion energy       469.3375542127 Hartrees.
 NAtoms=   21 NActive=   21 NUniq=   21 SFac= 1.00D+00 NAtFMM=   60 NAOKFM=F Big=F
 Integral buffers will be    131072 words long.
 Raffenetti 2 integral format.
 Two-electron integral symmetry is turned off.
 ------------------------------------------------------------------------------
 Polarizable Continuum Model (PCM)
 =================================
 Model                : PCM.
 Atomic radii         : UFF (Universal Force Field).
 Polarization charges : Total charges.
 Charge compensation  : None.
 Solution method      : Matrix inversion.
 Cavity type          : Scaled VdW (van der Waals Surface) (Alpha=1.100).
 Cavity algorithm     : GePol (No added spheres)
                        Default sphere list used, NSphG=   21.
                        Lebedev-Laikov grids with approx.  7.0 points / Ang**2.
                        Smoothing algorithm: York/Karplus (Gamma=1.0000).
                        Polarization charges: spherical gaussians, with
                                              point-specific exponents (IZeta= 3).
                        Self-potential: point-specific (ISelfS= 7).
                        Self-field    : sphere-specific E.n sum rule (ISelfD= 2).
 1st derivatives      : Analytical E(r).r(x)/FMM algorithm (CHGder, D1EAlg=3).
                        Cavity 1st derivative terms included.
 Solvent              : 1,2-EthaneDiol, Eps=  40.245000 Eps(inf)=   2.050051
 ------------------------------------------------------------------------------
 One-electron integrals computed using PRISM.
   1 Symmetry operations used in ECPInt.
 ECPInt:  NShTT=    9870 NPrTT=   28656 LenC2=    9626 LenP2D=   22121.
 LDataN:  DoStor=T MaxTD1= 6 Len=  172
 NBasis=   326 RedAO= T EigKep=  2.84D-04  NBF=   326
 NBsUse=   326 1.00D-06 EigRej= -1.00D+00 NBFU=   326
[...]
 0509,-0.00013450,0.00274198,0.00046985,-0.00041544,-0.00034418,0.00004
 626,-0.00005069,0.00033368,-0.00016161,0.00040943,-0.00000689,0.000191
 50,0.01105855,0.03648718,-0.00202254,0.00030793,0.00176448,0.00343948,
 0.00129856,-0.01269621,0.08881207,0.11687511,-0.47294659,0.00107346,-0
 .00013302,0.00033906,-0.00288685,0.00228138,0.00135318,0.00123382,-0.0
 0010062,0.00284846,0.00015554,-0.00008280,0.00007891,-0.00014272,0.000
 21649,0.00042204,-0.00059936,-0.00035905,-0.00057464,-0.08823844,-0.12
 036842,0.48034289,0.00019946,0.00026143,0.00001401,-0.00024971,-0.0060
 4236,-0.00162094,-0.00038557,0.00088517,0.00079741,-0.11419161,-0.0090
 1625,-0.11268216,-0.03401979,0.00701527,-0.02420266,0.00040081,0.00111
 593,-0.00035604,0.00023906,-0.00002604,0.00020951,-0.00017245,0.000347
 09,0.00028661,0.00054414,-0.00025752,0.00001811,0.00006268,-0.00000345
 ,-0.00015506,0.13725227,-0.00010319,-0.00089988,0.00003472,0.00116543,
 0.00231921,0.00244126,-0.00024356,-0.00030920,-0.00046708,-0.01320238,
 -0.05330127,-0.01772709,0.01442718,-0.00037510,0.01101456,-0.00006018,
 -0.00068259,-0.00013528,0.00005590,0.00020713,0.00003223,0.00009860,-0
 .00039186,-0.00034165,0.00010019,-0.00191985,-0.00017973,0.00006746,0.
 00000686,-0.00000369,0.00485777,0.05265519,-0.00045557,-0.00106169,0.0
 0040732,-0.00006918,-0.00057740,0.00014532,-0.00011960,0.00021378,-0.0
 0003500,-0.12028409,-0.01418227,-0.25773990,0.00450474,0.00156155,0.01
 247473,-0.00019791,0.00025594,-0.00000158,0.00064200,0.00007494,0.0000
 1805,-0.00015822,-0.00002197,-0.00022645,0.00058798,-0.00026047,-0.000
 30573,0.00002659,-0.00006967,-0.00003938,0.12883489,0.01759490,0.26754
 928,-0.00038804,-0.00032087,-0.00015049,-0.00422506,-0.00285738,0.0017
 3063,-0.00208175,0.00216714,0.00064166,-0.05546923,-0.05587604,-0.0147
 8106,-0.00478403,0.04432489,0.01004020,0.00029868,0.00046723,-0.000513
 07,0.00041499,0.00004833,0.00002378,-0.00006338,0.00005024,0.00003939,
 0.00054538,0.00015024,-0.00011258,0.00006952,-0.00003928,-0.00026434,-
 0.00059145,-0.01514611,-0.00220958,0.06702011,-0.00017842,0.00000633,0
 .00015119,0.00075396,0.00382291,-0.00009254,0.00099992,-0.00091608,-0.
 00032464,-0.04161403,-0.30703714,-0.06781846,0.00453203,-0.01474141,-0
 .00289905,0.00015632,-0.00043680,0.00016289,-0.00000272,-0.00003501,-0
 .00005766,0.00004800,-0.00001652,-0.00002730,0.00016261,0.00000947,-0.
 00001152,-0.00008357,0.00003243,0.00015373,-0.00106028,0.00082302,0.00
 028432,0.03899532,0.33064750,-0.00007022,-0.00032044,0.00024838,0.0002
 4610,0.00140886,-0.00094835,0.00040383,-0.00035460,0.00004923,-0.01130
 426,-0.06702269,-0.06918134,0.00132181,-0.00551870,-0.00002113,-0.0003
 2713,0.00001907,0.00040702,0.00018125,-0.00002159,0.00004857,-0.000173
 79,0.00015592,0.00012129,0.00016457,-0.00003092,-0.00025740,-0.0000548
 3,-0.00001058,0.00006168,-0.00404604,-0.02653633,-0.00512207,0.0109319
 3,0.07495851,0.06642721,-0.00000388,0.00065652,-0.00034150,0.00030931,
 -0.00613386,0.00169773,-0.00048795,0.00130140,-0.00027950,-0.10080881,
 -0.05681581,0.08357522,-0.03078432,-0.00663988,0.02582023,0.00051836,0
 .00048741,-0.00088101,0.00009350,0.00008600,0.00009378,-0.00001083,-0.
 00009711,-0.00007104,-0.00002228,0.00001328,0.00010282,0.00023623,-0.0
 0023572,-0.00025298,0.01014353,0.00802047,-0.01150752,-0.00061081,-0.0
 0272724,0.00292885,0.12114334,0.00029760,-0.00010694,-0.00010702,0.000
 79192,0.00180298,-0.00219506,-0.00011994,-0.00049152,0.00042429,-0.064
 94018,-0.12173127,0.10358783,0.01339827,0.00721536,-0.01280097,0.00044
 740,-0.00016547,0.00011781,-0.00005827,-0.00002303,-0.00000353,0.00003
 553,0.00001757,0.00002941,-0.00011151,-0.00015923,-0.00020430,-0.00008
 928,0.00012042,0.00003384,0.00120650,0.00224049,-0.00358250,-0.0124612
 6,-0.01177086,0.02318411,0.06193616,0.12290076,0.00021306,0.00017863,-
 0.00014588,0.00120940,0.00270780,-0.00040061,0.00008288,-0.00047022,-0
 .00013356,0.08844105,0.09988142,-0.20205060,0.00660883,-0.00339481,0.0
 0072894,-0.00114499,-0.00009267,0.00053591,-0.00022553,-0.00001010,0.0
 0010372,-0.00007342,0.00004124,0.00013388,-0.00025520,-0.00036896,-0.0
 0050258,-0.00001190,0.00002649,0.00008498,0.01194555,0.01443762,-0.017
 26460,-0.00539837,-0.00425953,0.00824578,-0.10137759,-0.10839212,0.210
 71169,-0.00035258,-0.00016111,-0.00027710,-0.00262909,-0.00659514,0.00
 330798,-0.00003399,0.00056404,-0.00032769,0.00058769,-0.00022290,0.000
 07021,0.00149158,0.00133727,-0.00039150,-0.00516457,-0.00286171,-0.001
 81723,0.00037496,-0.00016843,-0.00049678,-0.00006578,-0.00014125,0.000
 22202,-0.00039450,0.00022731,-0.00025900,-0.00003934,0.00065373,0.0002
 0871,0.00005304,0.00001852,-0.00008148,0.00001860,0.00001549,-0.000002
 82,0.00022511,-0.00020233,0.00000587,0.00596737,0.00045111,0.00185284,
 -0.00169620,-0.00055283,-0.01505958,0.00275421,0.00185935,0.00083315,-
 0.00310588,-0.00018307,0.00012573,0.00022309,-0.00026663,0.00151359,0.
 00192233,-0.01128085,-0.51265190,0.01099655,0.00009005,-0.00031777,-0.
 00018489,-0.00061094,-0.00032042,-0.00072357,0.00005939,-0.00001488,0.
 00021531,0.00030858,0.00017867,0.00004718,0.00002949,-0.00001903,-0.00
 008335,-0.00003024,0.00008614,-0.00002288,0.00003900,0.00007108,-0.000
 22570,0.01083540,0.52583970,-0.00071366,0.00008116,0.00082330,0.000710
 50,0.04004269,0.00027389,-0.00046737,-0.00103814,0.00060573,0.00086341
 ,-0.00028805,-0.00025777,0.00059835,0.00689902,-0.00484276,-0.00141833
 ,-0.03338826,-0.04733920,-0.00047204,-0.00082556,-0.00224254,0.0003721
 1,-0.00048818,0.00032658,-0.00010609,-0.00002755,-0.00003409,0.0002219
 4,-0.00039356,-0.00027307,-0.00015653,0.00006856,-0.00000222,-0.000120
 31,-0.00000826,0.00002078,-0.00031128,-0.00000790,0.00010024,-0.001046
 21,-0.00901980,0.05143240,-0.00033681,0.00026386,0.00049554,0.00001741
 ,-0.00251041,-0.00516178,-0.00244902,0.00095497,0.00190090,-0.00214980
 ,0.00142284,0.00039805,0.00516006,0.00072492,0.00517641,0.00509413,0.0
 0440993,0.00357977,0.00009771,0.00008615,0.00005944,0.00010531,0.00002
 671,0.00014867,-0.00004359,-0.00005141,-0.00005889,0.00033706,0.000121
 51,-0.00019440,0.00055269,-0.00015667,0.00003182,0.00000160,-0.0001160
 6,-0.00010107,0.00015288,-0.00001032,-0.00010337,0.00034262,-0.0005932
 6,0.00080389,0.41571027,0.00012383,0.00018037,-0.00022858,-0.00067082,
 -0.00094234,0.00123127,0.00046332,0.00040214,-0.00025838,-0.00017588,0
 .00004734,-0.00001841,0.00051283,0.00079692,0.00089811,-0.00172569,-0.
 00322984,-0.00224936,0.00002621,0.00001895,0.00003072,-0.00005498,-0.0
 0001501,-0.00007047,0.00003719,0.00001014,0.00002973,-0.00000258,-0.00
 005823,-0.00007578,0.00003272,-0.00001249,-0.00000356,-0.00000986,-0.0
 0000402,-0.00002731,0.00003544,-0.00001846,-0.00001775,-0.00043133,0.0
 0003276,-0.00056921,0.02553875,0.64371529,0.00011993,-0.00019631,0.000
 05975,-0.00128838,0.00097819,-0.00049890,0.00027008,0.00014919,0.00057
 915,0.00030086,-0.00016062,-0.00012516,-0.00155526,-0.00082616,-0.0030
 4162,0.00041917,-0.00012820,0.00054901,-0.00003409,-0.00003778,-0.0000
 2619,0.00001979,0.00001918,0.00002963,0.00003644,0.00001857,0.00002064
 ,0.00009200,-0.00001300,-0.00005481,-0.00008088,0.00003166,0.00001900,
 0.00001515,0.00001637,0.00001841,-0.00003712,0.00000625,0.00001926,-0.
 00006732,-0.00009815,0.00009962,0.00043191,-0.01016956,0.63747954,0.00
 079208,-0.00027397,-0.00120762,-0.00456311,0.00188232,0.00696333,0.002
 75154,-0.00081835,-0.00251235,0.00361593,-0.00255215,-0.00129229,-0.01
 488481,-0.00172465,-0.02115242,-0.01563872,-0.02387141,-0.01384390,-0.
 00018576,-0.00018245,-0.00003121,-0.00027424,-0.00003334,-0.00034919,0
 .00009329,0.00009500,0.00012245,-0.00023343,0.00008650,0.00026216,-0.0
 0122053,0.00037822,0.00011057,-0.00008772,0.00037753,0.00020773,-0.000
 41856,-0.00009741,0.00028179,-0.00271804,0.00152105,-0.00351698,-0.179
 52497,0.01996848,0.02169044,0.48880571,0.00030195,0.00220966,-0.002069
 54,-0.00106074,-0.01026811,0.00974835,0.00168013,0.00036221,-0.0029931
 1,-0.00063548,0.00085358,0.00058319,0.00522565,0.00825651,0.00403688,-
 0.02429978,-0.01808100,-0.01936947,0.00028775,0.00020417,0.00037605,-0
 .00045181,-0.00030194,-0.00065353,0.00012117,-0.00000687,0.00011354,-0
 .00008460,-0.00026824,-0.00001063,0.00041028,-0.00018305,-0.00006277,-
 0.00013686,-0.00003456,-0.00015216,0.00030958,-0.00016465,-0.00014786,
 -0.00263622,0.00227355,-0.00293388,0.00654051,-0.09477804,0.01561482,0
 .07916107,0.48604614,0.00028225,-0.00152442,0.00040646,-0.00127241,0.0
 0806895,0.00092698,0.00214148,-0.00246470,-0.00330923,0.00338854,-0.00
 370293,-0.00380038,-0.02274232,-0.00301053,-0.01739908,-0.00725666,-0.
 01072310,0.00148420,-0.00028973,-0.00027168,-0.00025065,0.00008417,0.0
 0016139,0.00007019,-0.00005505,0.00006655,0.00000339,-0.00061136,-0.00
 022393,0.00051200,-0.00176796,0.00058592,0.00023785,-0.00009079,0.0003
 3958,0.00017929,-0.00067128,0.00003902,0.00020743,-0.00112261,0.000513
 57,-0.00070748,-0.00417315,0.01800860,-0.07489328,0.12611223,-0.142353
 98,0.38775799,0.00007292,0.00003739,-0.00013216,-0.00021972,-0.0001231
 6,0.00089719,0.00031685,-0.00002630,-0.00012296,0.00019024,-0.00012495
 ,-0.00002592,-0.00035942,0.00012589,-0.00038865,-0.00112034,-0.0013705
 9,-0.00110711,-0.00000356,-0.00000309,0.00000358,-0.00002958,-0.000009
 51,-0.00003995,0.00001376,0.00000865,0.00001220,0.00001012,-0.00000499
 ,0.00001077,-0.00004503,0.00001306,-0.00000422,-0.00000726,0.00001576,
 0.00000359,-0.00000350,-0.00000576,0.00000496,-0.00016119,0.00009299,-
 0.00025851,-0.08201567,-0.08506283,0.00014471,-0.03012080,-0.03768608,
 0.00207714,0.10361983,-0.00004478,-0.00001161,0.00004374,0.00019797,0.
 00001304,-0.00020100,-0.00021227,-0.00001344,-0.00009873,0.00000319,0.
 00000484,0.00000262,-0.00002746,-0.00002712,-0.00000102,0.00022705,0.0
 0030649,0.00028778,-0.00000003,0.00000019,-0.00000113,0.00000853,0.000
 00264,0.00001098,-0.00001093,-0.00000567,-0.00000940,-0.00004574,-0.00
 000978,0.00000714,0.00000043,-0.00000032,0.00000023,-0.00000157,0.0000
 0043,0.00000165,-0.00000351,0.00000174,0.00000027,0.00005237,0.0000047
 8,0.00005331,-0.10414801,-0.30984633,0.00406311,0.00650422,0.01086207,
 -0.00074637,0.10506574,0.31935667,-0.00004865,0.00001713,0.00002390,0.
 00027247,-0.00012619,-0.00013141,-0.00030605,0.00002627,-0.00018931,0.
 00000570,0.00000757,0.00000385,-0.00001559,0.00011027,0.00003326,-0.00
 001007,0.00005263,0.00004950,0.00000400,0.00000166,0.00000296,0.000001
 69,-0.00000057,0.00000218,-0.00001450,-0.00000773,-0.00001122,-0.00006
 645,-0.00001664,0.00000730,-0.00000050,-0.00000143,0.00000042,-0.00000
 740,0.00000358,0.00000092,0.00000011,-0.00000020,-0.00000059,0.0000156
 7,0.00000944,-0.00001015,0.00266409,0.00313921,-0.05310646,-0.00095437
 ,0.00047233,0.00080199,-0.00164105,-0.00403773,0.04654157,0.00023895,-
 0.00009091,-0.00014138,-0.00151034,0.00052751,0.00091453,0.00077974,0.
 00013003,0.00011872,0.00007426,-0.00007948,0.00000816,-0.00014094,-0.0
 0045696,-0.00055757,-0.00012056,-0.00035071,-0.00061383,-0.00001995,-0
 .00001934,-0.00001631,-0.00001801,-0.00000299,-0.00001582,0.00006961,0
 .00003121,0.00005150,0.00021796,0.00000527,-0.00015473,-0.00001876,0.0
 0001087,-0.00000627,0.00002932,-0.00001103,0.00000876,0.00001651,0.000
 00349,0.00000807,-0.00009241,-0.00003829,-0.00004196,-0.06333327,0.029
 99246,0.04740093,-0.03145105,0.02010379,0.02709088,0.00610737,-0.00477
 904,-0.01039959,0.08111001,0.00001292,-0.00001915,0.00000370,-0.000175
 73,0.00017628,-0.00003826,-0.00040516,-0.00039158,-0.00027227,-0.00002
 734,-0.00001334,-0.00001295,0.00003903,-0.00009307,0.00004023,0.000362
 62,0.00012348,0.00011528,-0.00000227,-0.00000143,-0.00000209,0.0000033
 9,0.00000202,0.00000780,0.00000113,0.00000509,0.00000176,0.00011750,0.
 00004039,-0.00002460,-0.00000166,0.00000258,0.00000080,0.00000597,-0.0
 0000324,-0.00000170,-0.00000564,0.00000356,0.00000058,-0.00000672,-0.0
 0003958,0.00002620,0.03790280,-0.13534825,-0.12212549,0.00188657,0.001
 58905,-0.00008881,0.00754574,-0.01084349,-0.02337553,-0.04194772,0.134
 39897,0.00009333,-0.00002853,-0.00005688,-0.00060340,0.00009516,0.0004
 2451,-0.00024649,-0.00011356,-0.00066423,-0.00006514,0.00003702,0.0000
 3711,0.00028767,-0.00015524,0.00001424,0.00011333,0.00010883,-0.000175
 39,-0.00000538,-0.00000412,-0.00000212,-0.00000402,-0.00000202,-0.0000
 0142,0.00002329,0.00001217,0.00002228,-0.00001500,-0.00005284,-0.00025
 307,0.00002106,-0.00000382,-0.00000318,0.00001081,-0.00000778,-0.00000
 119,0.00001448,0.00000079,-0.00000369,0.00001310,-0.00002170,0.0000199
 4,0.06028274,-0.12344354,-0.24517091,-0.00253660,0.00287125,0.00607733
 ,-0.00166732,0.00253790,0.00370628,-0.06242856,0.13266706,0.25205017,0
 .00007168,-0.00013312,-0.00001633,-0.00025372,0.00081535,0.00035416,0.
 00035770,-0.00004838,-0.00007715,0.00042567,-0.00027562,-0.00010540,-0
 .00131023,-0.00047284,-0.00162436,-0.00029088,-0.00041187,-0.00007459,
 -0.00002952,-0.00002856,-0.00002391,-0.00000253,0.00000571,-0.00000112
 ,0.00000861,0.00001230,0.00000901,-0.00002894,-0.00000518,0.00001617,-
 0.00011545,0.00003674,0.00000207,0.00000413,0.00002464,0.00002374,-0.0
 0004290,0.00000713,0.00002315,-0.00004137,0.00003609,-0.00005817,-0.05
 943582,0.02073098,-0.04139148,-0.02386401,0.02346859,-0.03595327,0.005
 38896,-0.00415515,0.01124686,0.00447980,-0.00536642,0.00588471,0.07716
 527,-0.00003838,0.00001120,0.00002935,0.00020826,-0.00007183,-0.000199
 42,-0.00030718,-0.00010461,-0.00002960,-0.00001644,0.00001535,0.000010
 03,0.00004285,0.00003301,0.00012048,0.00006522,0.00002554,0.00015585,0
 .00000276,0.00000339,0.00000151,0.00000460,0.00000206,0.00000400,-0.00
 001214,-0.00000367,-0.00000950,0.00000010,0.00000833,0.00002456,0.0000
 0465,-0.00000225,0.00000002,-0.00000279,0.00000067,-0.00000065,-0.0000
 0090,0.00000038,-0.00000087,-0.00000187,-0.00000162,0.00000186,0.03134
 364,-0.11840839,0.11720996,0.00084292,-0.00006791,0.00174980,0.0073095
 8,-0.01006455,0.02459496,-0.00513441,0.01085326,-0.01483654,-0.0336661
 8,0.11737648,-0.00005552,0.00003565,0.00001658,0.00029858,-0.00010985,
 -0.00015103,-0.00039669,-0.00014785,-0.00012213,-0.00000787,0.00001291
 ,0.00001127,0.00009515,0.00010652,0.00020969,-0.00004230,-0.00004175,0
 .00002248,0.00000570,0.00000746,0.00000608,0.00000056,-0.00000045,-0.0
 0000053,-0.00001611,-0.00000560,-0.00001208,-0.00001865,0.00000585,0.0
 0003762,0.00000400,-0.00000277,-0.00000198,-0.00000775,0.00000163,-0.0
 0000246,-0.00000172,0.00000019,-0.00000066,-0.00000686,0.00000996,-0.0
 0001606,-0.05674956,0.11964109,-0.26841359,0.00140328,-0.00301790,0.00
 511603,0.00141659,-0.00180997,0.00257778,-0.00496970,0.01308989,-0.016
 33311,0.05841060,-0.12735827,0.27678819,-0.00078175,0.00289195,-0.0004
 1653,0.00619359,-0.01599374,0.00024789,-0.00298060,0.00076598,-0.00039
 505,-0.00791256,0.00401288,0.00047023,0.00742604,0.01009970,0.01325659
 ,-0.00292879,0.00132790,-0.00419056,0.00059645,0.00051245,0.00051564,-
 0.00011820,-0.00019879,-0.00022577,-0.00006866,-0.00016202,-0.00006907
 ,0.00019788,-0.00021079,-0.00030367,0.00167360,-0.00037206,0.00023221,
 -0.00023682,-0.00014577,-0.00041780,0.00070042,-0.00022456,-0.00032613
 ,-0.00010969,0.00015286,-0.00022808,-0.01620689,0.01417720,-0.02561737
 ,-0.08414750,0.02751989,-0.07347041,0.00111120,-0.00041232,-0.00065257
 ,0.00167056,0.00064466,0.00005561,-0.00399124,-0.00029372,0.00124229,0
 .08395783,0.00058178,-0.00095509,0.00025308,-0.00787691,-0.00253810,-0
 .00799002,0.00045410,0.00076003,0.00175932,0.00056561,0.00081942,0.001
 60579,0.00252918,-0.00980749,0.00112756,0.00147401,0.00229439,0.000307
 32,-0.00018544,-0.00009233,-0.00019295,0.00006752,0.00004665,0.0000879
 5,0.00008118,0.00004897,0.00006706,0.00036775,0.00025148,-0.00020405,0
 .00051349,-0.00026327,-0.00011447,0.00055631,-0.00030084,0.00019699,-0
 .00003119,0.00001882,-0.00007444,0.00044658,-0.00033159,0.00069753,0.0
 0710403,0.00027978,-0.00099962,0.03198673,-0.10475467,0.11981344,-0.00
 141027,0.00032877,-0.00066844,-0.00047262,-0.00041301,0.00042893,-0.00
 138071,0.00047110,-0.00057166,-0.04221439,0.13649711,-0.00069775,0.003
 05053,-0.00072092,0.00296222,-0.01766572,0.00277571,-0.00182971,0.0027
 8547,0.00035898,-0.00525186,0.00623922,0.00497400,0.01467340,0.0077381
 8,0.00390370,-0.00296665,0.00065334,-0.00489672,0.00061883,0.00053363,
 0.00061752,-0.00014619,-0.00020296,-0.00023946,0.00006187,-0.00015218,
 0.00000005,0.00049046,-0.00042223,-0.00094289,0.00260500,-0.00076622,-
 0.00014402,0.00004950,-0.00038622,-0.00030703,0.00145665,-0.00024131,-
 0.00036430,-0.00032144,0.00011230,-0.00074367,-0.00993437,-0.00704554,
 0.00769001,-0.09106359,0.14589483,-0.26882616,0.00038053,0.00012555,-0
 .00024545,0.00263703,-0.00063400,0.00046004,0.00425742,-0.00091851,0.0
 0046215,0.07437379,-0.14787206,0.25551040,-0.00097646,-0.00185211,0.00
 299727,0.00678048,0.01071495,-0.01453402,-0.00294640,-0.00110815,0.001
 94808,-0.00093840,0.00036170,-0.00076628,-0.00274057,-0.00406060,-0.00
 091602,0.00216782,0.00856780,0.01277892,-0.00013989,-0.00012446,-0.000
 27576,0.00070893,0.00032342,0.00086623,-0.00022886,-0.00007120,-0.0001
 8906,-0.00063882,-0.00017131,0.00000291,-0.00011093,0.00003374,0.00012
 075,0.00014322,-0.00014246,0.00007582,-0.00034535,0.00019684,0.0000919
 1,0.00274159,-0.00191925,0.00534533,-0.02207590,-0.02350544,-0.0008695
 2,-0.10672529,-0.09813879,-0.01169968,-0.00274518,0.00178133,-0.000093
 81,0.00191121,-0.00058368,0.00077177,0.00150482,-0.00035058,-0.0006040
 2,0.01595514,0.00684326,0.00764485,0.10869884,-0.00113031,-0.00239809,
 0.00340800,0.00660578,0.01576917,-0.01312428,-0.00295733,-0.00157849,0
 .00222176,0.00029843,-0.00045425,-0.00028662,-0.00317589,-0.00456063,-
 0.00338233,0.01490800,-0.00047820,0.02135719,-0.00017764,-0.00013107,-
 0.00029617,0.00075691,0.00050858,0.00104710,-0.00024100,-0.00005625,-0
 .00020735,-0.00014921,-0.00005325,0.00011674,-0.00027268,0.00010567,0.
 00003363,0.00011659,-0.00013243,0.00009541,-0.00019441,0.00023828,0.00
 018097,-0.00072169,-0.00405562,0.00111802,-0.00885447,0.01717772,-0.00
 335241,-0.11513687,-0.28374792,0.01576363,0.00561272,-0.00005936,-0.00
 020057,0.00257887,-0.00002851,-0.00008943,0.00080650,-0.00007593,0.000
 15490,-0.00187730,-0.02236011,0.00917391,0.10320500,0.28637068,0.00002
 551,-0.00040052,0.00081409,-0.00564610,0.00117538,-0.01547623,-0.00154
 673,-0.00029804,0.00254522,-0.00164611,0.00079365,0.00020149,0.0009107
 0,-0.00313409,0.00110994,0.00869221,0.00966047,-0.00041425,-0.00001747
 ,-0.00004475,-0.00010756,0.00018764,0.00005613,0.00037488,-0.00001729,
 0.00000288,0.00000044,0.00046057,0.00024717,-0.00007197,0.00033262,-0.
 00007634,0.00003412,0.00017270,-0.00017883,0.00001239,0.00004268,0.000
 11136,-0.00000477,0.00237447,-0.00162181,0.00276652,0.00050335,0.00119
 871,-0.00123309,-0.01869347,-0.00594640,-0.03459485,0.00043659,-0.0002
 2894,-0.00005730,0.00110715,0.00062240,-0.00014672,-0.00090212,-0.0005
 4903,-0.00019422,0.01591875,0.03234272,0.00067807,-0.00269565,-0.03373
 211,0.04376381\\-0.00000045,0.00000495,-0.00000485,-0.00000168,0.00000
 520,-0.00000072,0.00000052,0.00000216,-0.00000033,-0.00000123,0.000000
 87,0.00000464,0.00000333,-0.00000216,0.00000321,0.00000066,-0.00000294
 ,-0.00000326,-0.00000063,0.00000474,-0.00000584,0.,0.00000766,-0.00000
 203,-0.00000023,0.00000448,-0.00000380,0.00000041,0.00000555,-0.000002
 18,0.00000016,0.00000407,0.00000369,0.00000027,0.00000054,0.00000706,-
 0.00000018,-0.00000089,0.00000287,0.00000072,-0.00000246,-0.00000717,0
 .00000731,-0.00000515,0.00000296,-0.00000338,-0.00000075,-0.00000828,0
 .00000018,-0.00000435,0.00000397,-0.00000009,-0.00000322,-0.00000017,-
 0.00000062,-0.00000804,0.00000024,0.00000048,-0.00000420,0.00001209,-0
 .00000555,-0.00000605,-0.00000208\\\@


 MEMORIES ARE LIKE AN ENGLISH GRAMMER LESSON -
 PRESENT TENSE, AND PAST PERFECT.
 Job cpu time:       0 days  2 hours 20 minutes 26.0 seconds.
 Elapsed time:       0 days  0 hours  3 minutes 57.2 seconds.
 File lengths (MBytes):  RWF=    282 Int=      0 D2E=      0 Chk=     22 Scr=      1
 Normal termination of Gaussian 16 at Wed Sep  4 09:29:23 2019.
