 Entering Gaussian System, Link 0=g16
 Initial command:
 /nopt/nrel/apps/gaussian/g16B/g16/l1.exe "/dev/shm/Gau-164572.inp" -scrdir="/dev/shm/"
 Default is to use a total of  36 processors:
                               36 via shared-memory
                                1 via Linda
 Entering Link 1 = /nopt/nrel/apps/gaussian/g16B/g16/l1.exe PID=    164573.
  
 Copyright (c) 1988-2017, Gaussian, Inc.  All Rights Reserved.
 
 ******************************************
 Gaussian 16:  ES64L-G16RevB.01 20-Dec-2017
                 5-Sep-2019 
 ******************************************
 %RWF=/dev/shm/,5GB,/tmp/scratch/1328146/,-1
 %NoSave
 %OldChk=ts3b_ircr_opt.chk
 %Chk=/dev/shm/ts3b_ircr_opt_gas.chk
 Copying data from "ts3b_ircr_opt.chk" to current chk file "/dev/shm/ts3b_ircr_opt_gas.chk"
 IOpt=  2 FromEx=T IUOpen= 4 IOptOp= 5 NList=   0 IFRang= 0 IUIn= 4 IUOut= 2.
 Default route: CacheSize=180224 MaxDisk=256GB
 ----------------------------------------------------------------------
 # m062x/Def2TZVP nosymm scf=xqc opt freq=NoRaman CPHF=Grid=Fine guess=
 read geom=allcheck
 ----------------------------------------------------------------------
 1/4=180224,18=20,19=15,26=3,29=7,38=1/1,3;
 2/4=180224,9=110,12=2,15=1,40=1/2;
 3/4=180224,5=44,7=101,11=2,14=-4,25=1,30=1,71=1,74=-55,116=-2/1,2,3;
 4/4=180224,5=1/1;
 5/4=180224,5=2,8=3,13=1,38=6/2,8;
 6/4=180224,7=2,8=2,9=2,10=2,28=1/1;
 7/4=180224,30=1/1,2,3,16;
 1/4=180224,18=20,19=15,26=3/3(2);
 2/4=180224,9=110,15=1/2;
 99/4=180224/99;
 2/4=180224,9=110,15=1/2;
 3/4=180224,5=44,7=101,11=2,14=-2,25=1,30=1,71=1,74=-55/1,2,3;
 4/4=180224,5=5,16=3,69=1/1;
 5/4=180224,5=2,8=3,13=1,38=5/2,8;
 7/4=180224,30=1/1,2,3,16;
 1/4=180224,18=20,19=15,26=3/3(-5);
 2/4=180224,9=110,15=1/2;
 6/4=180224,7=2,8=2,9=2,10=2,19=2,28=1/1;
 99/4=180224,9=1/99;
 Structure from the checkpoint file:  "/dev/shm/ts3b_ircr_opt_gas.chk"
 ------------------------------
 from 10.1007/s00214-014-1591-5
 ------------------------------
 Charge =  1 Multiplicity = 1
 Redundant internal coordinates found in file.  (old form).
 C,0,-1.359609938,-1.0065599791,-1.7751924292
 C,0,-0.4654463817,-0.7397208528,-0.5881090627
 O,0,0.8449461259,-1.1297253138,-0.779969893
 C,0,-1.6389859477,1.3719742329,-0.1181087573
 O,0,-0.3916628388,0.6688115033,-0.2847201511
 O,0,-0.9055093795,-1.3117924039,0.5935318167
 H,0,-1.2976127492,-2.066178451,-2.0180424219
 H,0,-1.0304694863,-0.4233565207,-2.6345293957
 H,0,-2.3927019729,-0.7603868238,-1.5420742329
 H,0,1.1345451584,-0.8958978125,-1.6714737353
 H,0,-2.0788167165,1.5488413839,-1.0956516568
 H,0,-1.3911396363,2.3183350738,0.3526225344
 H,0,-2.3091106311,0.7961096706,0.5169847864
 H,0,-1.0225303502,-2.2627634553,0.4730494731
 C,0,2.4525352202,0.8402550118,1.3703838478
 O,0,1.0360497158,0.6850587653,1.6662380269
 H,0,2.5484310216,1.7932035491,0.8619890331
 H,0,2.7807258802,0.0217762157,0.7367749979
 H,0,2.983917602,0.8553266143,2.3155257595
 H,0,0.3820841796,0.726441828,0.753538814
 H,0,0.8566824601,-0.1525158499,2.1245385405
 Recover connectivity data from disk.

 GradGradGradGradGradGradGradGradGradGradGradGradGradGradGradGradGradGrad
 Berny optimization.
 Initialization pass.
                           ----------------------------
                           !    Initial Parameters    !
                           ! (Angstroms and Degrees)  !
 --------------------------                            --------------------------
 ! Name  Definition              Value          Derivative Info.                !
 --------------------------------------------------------------------------------
 ! R1    R(1,2)                  1.5099         estimate D2E/DX2                !
 ! R2    R(1,7)                  1.0889         estimate D2E/DX2                !
 ! R3    R(1,8)                  1.0895         estimate D2E/DX2                !
 ! R4    R(1,9)                  1.0873         estimate D2E/DX2                !
 ! R5    R(2,3)                  1.3806         estimate D2E/DX2                !
 ! R6    R(2,5)                  1.4427         estimate D2E/DX2                !
 ! R7    R(2,6)                  1.3846         estimate D2E/DX2                !
 ! R8    R(3,10)                 0.9661         estimate D2E/DX2                !
 ! R9    R(4,5)                  1.4415         estimate D2E/DX2                !
 ! R10   R(4,11)                 1.0864         estimate D2E/DX2                !
 ! R11   R(4,12)                 1.0856         estimate D2E/DX2                !
 ! R12   R(4,13)                 1.0881         estimate D2E/DX2                !
 ! R13   R(5,20)                 1.2961         estimate D2E/DX2                !
 ! R14   R(6,14)                 0.9657         estimate D2E/DX2                !
 ! R15   R(6,21)                 2.6064         estimate D2E/DX2                !
 ! R16   R(15,16)                1.4554         estimate D2E/DX2                !
 ! R17   R(15,17)                1.0843         estimate D2E/DX2                !
 ! R18   R(15,18)                1.0859         estimate D2E/DX2                !
 ! R19   R(15,19)                1.0844         estimate D2E/DX2                !
 ! R20   R(16,20)                1.1236         estimate D2E/DX2                !
 ! R21   R(16,21)                0.9715         estimate D2E/DX2                !
 ! A1    A(2,1,7)              108.2765         estimate D2E/DX2                !
 ! A2    A(2,1,8)              110.2801         estimate D2E/DX2                !
 ! A3    A(2,1,9)              110.7379         estimate D2E/DX2                !
 ! A4    A(7,1,8)              109.1363         estimate D2E/DX2                !
 ! A5    A(7,1,9)              108.7987         estimate D2E/DX2                !
 ! A6    A(8,1,9)              109.5705         estimate D2E/DX2                !
 ! A7    A(1,2,3)              113.7594         estimate D2E/DX2                !
 ! A8    A(1,2,5)              111.6013         estimate D2E/DX2                !
 ! A9    A(1,2,6)              114.1862         estimate D2E/DX2                !
 ! A10   A(3,2,5)              104.8612         estimate D2E/DX2                !
 ! A11   A(3,2,6)              107.6705         estimate D2E/DX2                !
 ! A12   A(5,2,6)              103.896          estimate D2E/DX2                !
 ! A13   A(2,3,10)             110.1446         estimate D2E/DX2                !
 ! A14   A(5,4,11)             109.0089         estimate D2E/DX2                !
 ! A15   A(5,4,12)             106.1281         estimate D2E/DX2                !
 ! A16   A(5,4,13)             110.0103         estimate D2E/DX2                !
 ! A17   A(11,4,12)            109.9167         estimate D2E/DX2                !
 ! A18   A(11,4,13)            111.2227         estimate D2E/DX2                !
 ! A19   A(12,4,13)            110.4171         estimate D2E/DX2                !
 ! A20   A(2,5,4)              117.1474         estimate D2E/DX2                !
 ! A21   A(2,5,20)             104.0275         estimate D2E/DX2                !
 ! A22   A(4,5,20)             113.7198         estimate D2E/DX2                !
 ! A23   A(2,6,14)             109.81           estimate D2E/DX2                !
 ! A24   A(2,6,21)              95.8916         estimate D2E/DX2                !
 ! A25   A(14,6,21)            126.3859         estimate D2E/DX2                !
 ! A26   A(16,15,17)           105.9683         estimate D2E/DX2                !
 ! A27   A(16,15,18)           109.4152         estimate D2E/DX2                !
 ! A28   A(16,15,19)           107.5323         estimate D2E/DX2                !
 ! A29   A(17,15,18)           111.2307         estimate D2E/DX2                !
 ! A30   A(17,15,19)           110.677          estimate D2E/DX2                !
 ! A31   A(18,15,19)           111.7745         estimate D2E/DX2                !
 ! A32   A(15,16,20)           113.4181         estimate D2E/DX2                !
 ! A33   A(15,16,21)           111.5646         estimate D2E/DX2                !
 ! A34   A(20,16,21)           107.9094         estimate D2E/DX2                !
 ! A35   A(5,20,16)            175.2191         estimate D2E/DX2                !
 ! A36   A(6,21,16)            103.3677         estimate D2E/DX2                !
 ! D1    D(7,1,2,3)             55.9753         estimate D2E/DX2                !
 ! D2    D(7,1,2,5)            174.3801         estimate D2E/DX2                !
 ! D3    D(7,1,2,6)            -68.1688         estimate D2E/DX2                !
 ! D4    D(8,1,2,3)            -63.3709         estimate D2E/DX2                !
 ! D5    D(8,1,2,5)             55.0339         estimate D2E/DX2                !
 ! D6    D(8,1,2,6)            172.485          estimate D2E/DX2                !
 ! D7    D(9,1,2,3)            175.1793         estimate D2E/DX2                !
 ! D8    D(9,1,2,5)            -66.4159         estimate D2E/DX2                !
 ! D9    D(9,1,2,6)             51.0352         estimate D2E/DX2                !
 ! D10   D(1,2,3,10)            41.4589         estimate D2E/DX2                !
 ! D11   D(5,2,3,10)           -80.7473         estimate D2E/DX2                !
 ! D12   D(6,2,3,10)           169.052          estimate D2E/DX2                !
 ! D13   D(1,2,5,4)             52.5296         estimate D2E/DX2                !
 ! D14   D(1,2,5,20)           178.976          estimate D2E/DX2                !
 ! D15   D(3,2,5,4)            176.1298         estimate D2E/DX2                !
 ! D16   D(3,2,5,20)           -57.4237         estimate D2E/DX2                !
 ! D17   D(6,2,5,4)            -70.9676         estimate D2E/DX2                !
 ! D18   D(6,2,5,20)            55.4788         estimate D2E/DX2                !
 ! D19   D(1,2,6,14)            55.7737         estimate D2E/DX2                !
 ! D20   D(1,2,6,21)          -172.0778         estimate D2E/DX2                !
 ! D21   D(3,2,6,14)           -71.5717         estimate D2E/DX2                !
 ! D22   D(3,2,6,21)            60.5768         estimate D2E/DX2                !
 ! D23   D(5,2,6,14)           177.5668         estimate D2E/DX2                !
 ! D24   D(5,2,6,21)           -50.2846         estimate D2E/DX2                !
 ! D25   D(11,4,5,2)           -76.276          estimate D2E/DX2                !
 ! D26   D(11,4,5,20)          162.2015         estimate D2E/DX2                !
 ! D27   D(12,4,5,2)           165.3854         estimate D2E/DX2                !
 ! D28   D(12,4,5,20)           43.8629         estimate D2E/DX2                !
 ! D29   D(13,4,5,2)            45.9276         estimate D2E/DX2                !
 ! D30   D(13,4,5,20)          -75.5949         estimate D2E/DX2                !
 ! D31   D(2,5,20,16)          -17.9744         estimate D2E/DX2                !
 ! D32   D(4,5,20,16)          110.596          estimate D2E/DX2                !
 ! D33   D(2,6,21,16)           29.6285         estimate D2E/DX2                !
 ! D34   D(14,6,21,16)         149.579          estimate D2E/DX2                !
 ! D35   D(17,15,16,20)         57.7248         estimate D2E/DX2                !
 ! D36   D(17,15,16,21)        179.8324         estimate D2E/DX2                !
 ! D37   D(18,15,16,20)        -62.2898         estimate D2E/DX2                !
 ! D38   D(18,15,16,21)         59.8178         estimate D2E/DX2                !
 ! D39   D(19,15,16,20)        176.1208         estimate D2E/DX2                !
 ! D40   D(19,15,16,21)        -61.7716         estimate D2E/DX2                !
 ! D41   D(15,16,20,5)         110.5645         estimate D2E/DX2                !
 ! D42   D(21,16,20,5)         -13.5543         estimate D2E/DX2                !
 ! D43   D(15,16,21,6)        -123.6289         estimate D2E/DX2                !
 ! D44   D(20,16,21,6)           1.5993         estimate D2E/DX2                !
 --------------------------------------------------------------------------------
 Trust Radius=3.00D-01 FncErr=1.00D-07 GrdErr=1.00D-06 EigMax=2.50D+02 EigMin=1.00D-04
 Number of steps in this run=    111 maximum allowed number of steps=    126.
 GradGradGradGradGradGradGradGradGradGradGradGradGradGradGradGradGradGrad

                          Input orientation:                          
 ---------------------------------------------------------------------
 Center     Atomic      Atomic             Coordinates (Angstroms)
 Number     Number       Type             X           Y           Z
 ---------------------------------------------------------------------
      1          6           0       -1.359610   -1.006560   -1.775192
      2          6           0       -0.465446   -0.739721   -0.588109
      3          8           0        0.844946   -1.129725   -0.779970
      4          6           0       -1.638986    1.371974   -0.118109
      5          8           0       -0.391663    0.668812   -0.284720
      6          8           0       -0.905509   -1.311792    0.593532
      7          1           0       -1.297613   -2.066178   -2.018042
      8          1           0       -1.030469   -0.423357   -2.634529
      9          1           0       -2.392702   -0.760387   -1.542074
     10          1           0        1.134545   -0.895898   -1.671474
     11          1           0       -2.078817    1.548841   -1.095652
     12          1           0       -1.391140    2.318335    0.352623
     13          1           0       -2.309111    0.796110    0.516985
     14          1           0       -1.022530   -2.262763    0.473049
     15          6           0        2.452535    0.840255    1.370384
     16          8           0        1.036050    0.685059    1.666238
     17          1           0        2.548431    1.793204    0.861989
     18          1           0        2.780726    0.021776    0.736775
     19          1           0        2.983918    0.855327    2.315526
     20          1           0        0.382084    0.726442    0.753539
     21          1           0        0.856682   -0.152516    2.124539
 ---------------------------------------------------------------------
                    Distance matrix (angstroms):
                    1          2          3          4          5
     1  C    0.000000
     2  C    1.509933   0.000000
     3  O    2.421922   1.380595   0.000000
     4  C    2.912285   2.461169   3.586988   0.000000
     5  O    2.442396   1.442724   2.238126   1.441531   0.000000
     6  O    2.431096   1.384629   2.232431   2.871763   2.226692
     7  H    1.088858   2.120542   2.645813   3.942991   3.362339
     8  H    1.089458   2.146433   2.730482   3.150536   2.668803
     9  H    1.087301   2.150533   3.346577   2.672588   2.761830
    10  H    2.498762   1.938567   0.966086   3.904953   2.588573
    11  H    2.740276   2.845713   3.977784   1.086427   2.068466
    12  H    3.947596   3.330704   4.262859   1.085640   2.031277
    13  H    3.066797   2.641800   3.916504   1.088132   2.082196
    14  H    2.597357   1.938055   2.518194   3.733739   3.092950
    15  C    5.276156   3.853133   3.330043   4.386215   3.295182
    16  O    4.521527   3.060485   3.051867   3.288094   2.417616
    17  H    5.483264   4.195467   3.760506   4.321167   3.350127
    18  H    4.950741   3.587873   2.715458   4.699757   3.395019
    19  H    6.250346   4.782613   4.254142   5.249832   4.265045
    20  H    3.525801   2.160546   2.451784   2.293732   1.296143
    21  H    4.566097   3.074295   3.064514   3.685363   2.835044
                    6          7          8          9         10
     6  O    0.000000
     7  H    2.746482   0.000000
     8  H    3.350420   1.774904   0.000000
     9  H    2.660189   1.769423   1.778405   0.000000
    10  H    3.076531   2.721224   2.416208   3.532220   0.000000
    11  H    3.523240   3.811752   2.712331   2.372836   4.078482
    12  H    3.670381   4.985254   4.070630   3.751204   4.561507
    13  H    2.533615   3.955020   3.613041   2.582517   4.417126
    14  H    0.965689   2.513932   3.611167   2.862731   3.334708
    15  C    4.063406   5.830300   5.455948   5.875440   3.742222
    16  O    2.984588   5.156473   4.898539   4.913137   3.694516
    17  H    4.652179   6.162910   5.472413   6.059302   3.955853
    18  H    3.922659   5.346159   5.107744   5.706951   3.058055
    19  H    4.773815   6.756220   6.500260   6.811729   4.731081
    20  H    2.416174   4.278057   3.846602   3.896144   3.013116
    21  H    2.606381   5.046194   5.126736   4.936806   3.878084
                   11         12         13         14         15
    11  H    0.000000
    12  H    1.778347   0.000000
    13  H    1.794502   1.785177   0.000000
    14  H    4.254985   4.597482   3.318723   0.000000
    15  C    5.207358   4.241980   4.837717   4.744472   0.000000
    16  O    4.251652   3.206934   3.538815   3.788285   1.455351
    17  H    5.030258   4.006923   4.970808   5.417925   1.084330
    18  H    5.413397   4.777679   5.153090   4.444483   1.085853
    19  H    6.143970   5.013433   5.590564   5.400818   1.084384
    20  H    3.186201   2.416440   2.702469   3.314659   2.163381
    21  H    4.677756   3.781203   3.675101   3.272919   2.025115
                   16         17         18         19         20
    16  O    0.000000
    17  H    2.040122   0.000000
    18  H    2.085124   1.790976   0.000000
    19  H    2.060280   1.783825   1.796816   0.000000
    20  H    1.123567   2.417189   2.500063   3.037425   0.000000
    21  H    0.971464   2.870865   2.378699   2.361642   1.696305
                   21
    21  H    0.000000
 Symmetry turned off by external request.
 Stoichiometry    C4H13O4(1+)
 Framework group  C1[X(C4H13O4)]
 Deg. of freedom    57
 Full point group                 C1      NOp   1
 Rotational constants (GHZ):           2.6856651           1.3244712           1.1169934
 Standard basis: def2TZVP (5D, 7F)
   326 basis functions,   512 primitive gaussians,   366 cartesian basis functions
    34 alpha electrons       34 beta electrons
       nuclear repulsion energy       467.4776061753 Hartrees.
 NAtoms=   21 NActive=   21 NUniq=   21 SFac= 1.00D+00 NAtFMM=   60 NAOKFM=F Big=F
 Integral buffers will be    131072 words long.
 Raffenetti 2 integral format.
 Two-electron integral symmetry is turned off.
 One-electron integrals computed using PRISM.
   1 Symmetry operations used in ECPInt.
 ECPInt:  NShTT=    9870 NPrTT=   28656 LenC2=    9629 LenP2D=   22114.
 LDataN:  DoStor=T MaxTD1= 6 Len=  172
 NBasis=   326 RedAO= T EigKep=  3.00D-04  NBF=   326
 NBsUse=   326 1.00D-06 EigRej= -1.00D+00 NBFU=   326
 Initial guess from the checkpoint file:  "/dev/shm/ts3b_ircr_opt_gas.chk"
 B after Tr=     0.000000    0.000000    0.000000
         Rot=    1.000000    0.000000    0.000000    0.000000 Ang=   0.00 deg.
 Requested convergence on RMS density matrix=1.00D-08 within  32 cycles.
 Requested convergence on MAX density matrix=1.00D-06.
 Requested convergence on             energy=1.00D-06.
 No special actions if energy rises.
 SCF Done:  E(RM062X) =  -460.884577095     A.U. after    9 cycles
            NFock=  9  Conv=0.93D-08     -V/T= 2.0044
 QCSCF skips out because SCF is already converged.

 **********************************************************************

            Population analysis using the SCF Density.

 **********************************************************************

 Alpha  occ. eigenvalues --  -19.88214 -19.84927 -19.80924 -19.80921 -10.87600
 Alpha  occ. eigenvalues --  -10.76061 -10.74596 -10.69118  -1.42891  -1.39658
 Alpha  occ. eigenvalues --   -1.32943  -1.30758  -1.01545  -0.98707  -0.97563
 Alpha  occ. eigenvalues --   -0.88740  -0.86090  -0.80957  -0.79371  -0.76974
 Alpha  occ. eigenvalues --   -0.73688  -0.72006  -0.70130  -0.69083  -0.67356
 Alpha  occ. eigenvalues --   -0.63957  -0.62875  -0.61834  -0.61047  -0.60108
 Alpha  occ. eigenvalues --   -0.59062  -0.57662  -0.56129  -0.54100
 Alpha virt. eigenvalues --   -0.11038  -0.08066  -0.06124  -0.04666  -0.04026
 Alpha virt. eigenvalues --   -0.03493  -0.01332  -0.00126   0.00344   0.00625
 Alpha virt. eigenvalues --    0.00976   0.01322   0.02648   0.03263   0.04650
 Alpha virt. eigenvalues --    0.06133   0.07625   0.08150   0.09436   0.10512
 Alpha virt. eigenvalues --    0.12924   0.13608   0.14773   0.15439   0.15685
 Alpha virt. eigenvalues --    0.17237   0.18893   0.19454   0.21464   0.22872
 Alpha virt. eigenvalues --    0.23524   0.25422   0.26691   0.26882   0.28171
 Alpha virt. eigenvalues --    0.29181   0.29606   0.32920   0.33425   0.34476
 Alpha virt. eigenvalues --    0.35253   0.35821   0.35994   0.36345   0.37412
 Alpha virt. eigenvalues --    0.38297   0.38911   0.41146   0.41639   0.42900
 Alpha virt. eigenvalues --    0.44362   0.45999   0.47910   0.48718   0.50251
 Alpha virt. eigenvalues --    0.53705   0.55334   0.58334   0.60045   0.61659
 Alpha virt. eigenvalues --    0.62716   0.66054   0.66568   0.68261   0.70226
 Alpha virt. eigenvalues --    0.72376   0.75410   0.78191   0.78369   0.79105
 Alpha virt. eigenvalues --    0.80905   0.83857   0.84522   0.88118   0.89046
 Alpha virt. eigenvalues --    0.89564   0.91272   0.94764   0.96952   0.98845
 Alpha virt. eigenvalues --    1.02012   1.05039   1.05622   1.08880   1.19769
 Alpha virt. eigenvalues --    1.21607   1.23541   1.25858   1.30658   1.32236
 Alpha virt. eigenvalues --    1.35856   1.36242   1.36688   1.39087   1.40029
 Alpha virt. eigenvalues --    1.40850   1.41076   1.42565   1.42832   1.44026
 Alpha virt. eigenvalues --    1.44725   1.47062   1.47850   1.49626   1.52300
 Alpha virt. eigenvalues --    1.53082   1.55428   1.57776   1.58853   1.62292
 Alpha virt. eigenvalues --    1.63170   1.65131   1.67370   1.69691   1.71916
 Alpha virt. eigenvalues --    1.73991   1.75587   1.78789   1.79036   1.81200
 Alpha virt. eigenvalues --    1.83331   1.84621   1.85051   1.85856   1.88887
 Alpha virt. eigenvalues --    1.89491   1.93225   1.94276   1.95117   1.98168
 Alpha virt. eigenvalues --    1.99587   2.02449   2.05379   2.07191   2.08200
 Alpha virt. eigenvalues --    2.10231   2.12463   2.13601   2.15239   2.16097
 Alpha virt. eigenvalues --    2.16595   2.16966   2.17458   2.18800   2.21169
 Alpha virt. eigenvalues --    2.22585   2.23848   2.25538   2.26899   2.29569
 Alpha virt. eigenvalues --    2.30246   2.36145   2.37546   2.39039   2.40267
 Alpha virt. eigenvalues --    2.41338   2.42939   2.43663   2.45625   2.46224
 Alpha virt. eigenvalues --    2.46857   2.49985   2.51722   2.56708   2.57206
 Alpha virt. eigenvalues --    2.59084   2.60909   2.64079   2.64660   2.68289
 Alpha virt. eigenvalues --    2.71840   2.73539   2.73751   2.76300   2.82342
 Alpha virt. eigenvalues --    2.86692   2.89152   2.91261   2.92587   2.93786
 Alpha virt. eigenvalues --    2.94541   2.98044   2.99215   3.02554   3.02892
 Alpha virt. eigenvalues --    3.06753   3.06950   3.07697   3.10731   3.12771
 Alpha virt. eigenvalues --    3.14490   3.17749   3.18498   3.20481   3.20939
 Alpha virt. eigenvalues --    3.22391   3.23161   3.23958   3.26281   3.30009
 Alpha virt. eigenvalues --    3.33893   3.34401   3.36406   3.36723   3.38852
 Alpha virt. eigenvalues --    3.39950   3.41792   3.42788   3.47123   3.49576
 Alpha virt. eigenvalues --    3.53591   3.59856   3.67344   3.68575   3.72724
 Alpha virt. eigenvalues --    3.76714   3.80775   3.81443   3.85540   3.87930
 Alpha virt. eigenvalues --    3.98294   4.04406   4.06223   4.14226   4.14688
 Alpha virt. eigenvalues --    4.21068   4.24854   4.25707   4.26961   4.27920
 Alpha virt. eigenvalues --    4.32785   4.39096   4.48353   4.58516   4.62436
 Alpha virt. eigenvalues --    4.66675   5.03515   5.07801   5.11710   5.14120
 Alpha virt. eigenvalues --    5.15020   5.16266   5.21191   5.24719   5.28205
 Alpha virt. eigenvalues --    5.33640   5.41121   5.44178   5.49831   5.52482
 Alpha virt. eigenvalues --    5.55919   5.56954   5.61099   5.64995   5.69431
 Alpha virt. eigenvalues --    5.75187   5.83677   5.90085   5.94088   6.00978
 Alpha virt. eigenvalues --    6.06098   6.15513   6.21538   6.27859   6.30392
 Alpha virt. eigenvalues --    6.34979   6.40015   6.44863   6.51258   6.53573
 Alpha virt. eigenvalues --    6.56196   6.66378   6.72008   6.73289   6.76125
 Alpha virt. eigenvalues --    6.79531   6.82988   6.84486   6.90049   6.97972
 Alpha virt. eigenvalues --    7.03914   7.11917   7.23560   7.41958  22.21751
 Alpha virt. eigenvalues --   22.28712  22.35485  22.76656  43.75641  43.91387
 Alpha virt. eigenvalues --   44.01401  44.22104
          Condensed to atoms (all electrons):
               1          2          3          4          5          6
     1  C    5.205326   0.229286  -0.040399  -0.003915  -0.031647  -0.062586
     2  C    0.229286   4.877611   0.283159  -0.014636   0.119190   0.328414
     3  O   -0.040399   0.283159   8.036264   0.002035  -0.069201  -0.081995
     4  C   -0.003915  -0.014636   0.002035   4.955192   0.161313  -0.022513
     5  O   -0.031647   0.119190  -0.069201   0.161313   8.192703  -0.056851
     6  O   -0.062586   0.328414  -0.081995  -0.022513  -0.056851   8.017391
     7  H    0.407539  -0.029617  -0.002585   0.000428   0.003791  -0.001126
     8  H    0.395632  -0.027308  -0.002224  -0.003723   0.000060   0.005747
     9  H    0.401908  -0.030811   0.005059  -0.001391  -0.001016  -0.002017
    10  H   -0.010794  -0.009535   0.295456   0.000418   0.002444   0.005829
    11  H    0.011688  -0.020593   0.000370   0.410517  -0.022820   0.000500
    12  H    0.000742   0.002952  -0.000062   0.399824  -0.024190  -0.000195
    13  H   -0.015602   0.012640   0.000097   0.414903  -0.040013   0.009348
    14  H   -0.004237  -0.023743  -0.000302   0.000663   0.005779   0.313129
    15  C   -0.000532  -0.004722  -0.002049   0.000252   0.010170  -0.000224
    16  O    0.002674   0.039104  -0.008569   0.005900  -0.120810  -0.007666
    17  H    0.000030   0.000410  -0.000320  -0.000040   0.000887   0.000024
    18  H   -0.000148  -0.004094   0.004605   0.000126   0.000373   0.000465
    19  H   -0.000006   0.000363   0.000404  -0.000032  -0.000163  -0.000027
    20  H    0.003100  -0.012156   0.003391  -0.018913   0.159478  -0.005018
    21  H    0.000260   0.005304  -0.000237  -0.000641   0.004105   0.006338
               7          8          9         10         11         12
     1  C    0.407539   0.395632   0.401908  -0.010794   0.011688   0.000742
     2  C   -0.029617  -0.027308  -0.030811  -0.009535  -0.020593   0.002952
     3  O   -0.002585  -0.002224   0.005059   0.295456   0.000370  -0.000062
     4  C    0.000428  -0.003723  -0.001391   0.000418   0.410517   0.399824
     5  O    0.003791   0.000060  -0.001016   0.002444  -0.022820  -0.024190
     6  O   -0.001126   0.005747  -0.002017   0.005829   0.000500  -0.000195
     7  H    0.454372  -0.012771  -0.016260  -0.000740   0.000106   0.000012
     8  H   -0.012771   0.476372  -0.020620   0.000317  -0.002501  -0.000129
     9  H   -0.016260  -0.020620   0.482114   0.000576  -0.007528   0.000637
    10  H   -0.000740   0.000317   0.000576   0.358388  -0.000006   0.000006
    11  H    0.000106  -0.002501  -0.007528  -0.000006   0.484713  -0.015200
    12  H    0.000012  -0.000129   0.000637   0.000006  -0.015200   0.474771
    13  H   -0.000000   0.001037  -0.000752  -0.000024  -0.028856  -0.017603
    14  H   -0.000049   0.000469  -0.000686   0.000038   0.000022   0.000020
    15  C   -0.000006   0.000022   0.000003   0.000595  -0.000001  -0.000345
    16  O    0.000021  -0.000016   0.000009  -0.000399  -0.000340   0.001711
    17  H   -0.000000  -0.000000   0.000000  -0.000011  -0.000010  -0.000041
    18  H    0.000003  -0.000009  -0.000004  -0.000351   0.000012   0.000025
    19  H    0.000000   0.000001  -0.000000  -0.000005  -0.000001  -0.000012
    20  H   -0.000069   0.000061  -0.000415  -0.000797   0.002900  -0.002833
    21  H   -0.000011  -0.000025  -0.000002  -0.000067   0.000016  -0.000113
              13         14         15         16         17         18
     1  C   -0.015602  -0.004237  -0.000532   0.002674   0.000030  -0.000148
     2  C    0.012640  -0.023743  -0.004722   0.039104   0.000410  -0.004094
     3  O    0.000097  -0.000302  -0.002049  -0.008569  -0.000320   0.004605
     4  C    0.414903   0.000663   0.000252   0.005900  -0.000040   0.000126
     5  O   -0.040013   0.005779   0.010170  -0.120810   0.000887   0.000373
     6  O    0.009348   0.313129  -0.000224  -0.007666   0.000024   0.000465
     7  H   -0.000000  -0.000049  -0.000006   0.000021  -0.000000   0.000003
     8  H    0.001037   0.000469   0.000022  -0.000016  -0.000000  -0.000009
     9  H   -0.000752  -0.000686   0.000003   0.000009   0.000000  -0.000004
    10  H   -0.000024   0.000038   0.000595  -0.000399  -0.000011  -0.000351
    11  H   -0.028856   0.000022  -0.000001  -0.000340  -0.000010   0.000012
    12  H   -0.017603   0.000020  -0.000345   0.001711  -0.000041   0.000025
    13  H    0.461659  -0.000711   0.000082   0.000088   0.000013  -0.000016
    14  H   -0.000711   0.341371   0.000006   0.000017  -0.000000  -0.000012
    15  C    0.000082   0.000006   4.887760   0.168420   0.403825   0.416434
    16  O    0.000088   0.000017   0.168420   7.845542  -0.025434  -0.035324
    17  H    0.000013  -0.000000   0.403825  -0.025434   0.474884  -0.027880
    18  H   -0.000016  -0.000012   0.416434  -0.035324  -0.027880   0.483068
    19  H    0.000008  -0.000005   0.404889  -0.021124  -0.011206  -0.023365
    20  H   -0.003471  -0.000222  -0.015602   0.212979  -0.005902  -0.000246
    21  H    0.000091  -0.000289  -0.016449   0.303774   0.004580  -0.003021
              19         20         21
     1  C   -0.000006   0.003100   0.000260
     2  C    0.000363  -0.012156   0.005304
     3  O    0.000404   0.003391  -0.000237
     4  C   -0.000032  -0.018913  -0.000641
     5  O   -0.000163   0.159478   0.004105
     6  O   -0.000027  -0.005018   0.006338
     7  H    0.000000  -0.000069  -0.000011
     8  H    0.000001   0.000061  -0.000025
     9  H   -0.000000  -0.000415  -0.000002
    10  H   -0.000005  -0.000797  -0.000067
    11  H   -0.000001   0.002900   0.000016
    12  H   -0.000012  -0.002833  -0.000113
    13  H    0.000008  -0.003471   0.000091
    14  H   -0.000005  -0.000222  -0.000289
    15  C    0.404889  -0.015602  -0.016449
    16  O   -0.021124   0.212979   0.303774
    17  H   -0.011206  -0.005902   0.004580
    18  H   -0.023365  -0.000246  -0.003021
    19  H    0.462562   0.002613  -0.004891
    20  H    0.002613   0.269448  -0.016498
    21  H   -0.004891  -0.016498   0.318963
 Mulliken charges:
               1
     1  C   -0.488318
     2  C    0.278785
     3  O   -0.422894
     4  C   -0.285766
     5  O   -0.293581
     6  O   -0.446967
     7  H    0.196961
     8  H    0.189608
     9  H    0.191198
    10  H    0.358664
    11  H    0.187012
    12  H    0.180023
    13  H    0.207082
    14  H    0.368744
    15  C   -0.252527
    16  O   -0.360559
    17  H    0.186194
    18  H    0.189359
    19  H    0.189997
    20  H    0.428171
    21  H    0.398813
 Sum of Mulliken charges =   1.00000
 Mulliken charges with hydrogens summed into heavy atoms:
               1
     1  C    0.089449
     2  C    0.278785
     3  O   -0.064230
     4  C    0.288350
     5  O   -0.293581
     6  O   -0.078223
    15  C    0.313023
    16  O    0.466426
 Electronic spatial extent (au):  <R**2>=           1168.6405
 Charge=              1.0000 electrons
 Dipole moment (field-independent basis, Debye):
    X=              0.9796    Y=              0.1169    Z=              0.4703  Tot=              1.0929
 Quadrupole moment (field-independent basis, Debye-Ang):
   XX=            -31.0447   YY=            -38.0165   ZZ=            -34.2098
   XY=              3.4880   XZ=              8.3446   YZ=              2.8864
 Traceless Quadrupole moment (field-independent basis, Debye-Ang):
   XX=              3.3789   YY=             -3.5928   ZZ=              0.2139
   XY=              3.4880   XZ=              8.3446   YZ=              2.8864
 Octapole moment (field-independent basis, Debye-Ang**2):
  XXX=             27.9525  YYY=             -1.2500  ZZZ=              2.7548  XYY=             -8.1988
  XXY=             14.2489  XXZ=             10.0027  XZZ=             17.3395  YZZ=             -5.0444
  YYZ=              1.2378  XYZ=              3.2956
 Hexadecapole moment (field-independent basis, Debye-Ang**3):
 XXXX=           -527.3041 YYYY=           -309.4184 ZZZZ=           -362.4287 XXXY=            -25.5200
 XXXZ=            -95.1587 YYYX=            -18.0065 YYYZ=            -84.8738 ZZZX=           -113.3866
 ZZZY=            -80.2707 XXYY=           -140.0093 XXZZ=           -132.1380 YYZZ=           -128.4084
 XXYZ=            -12.0445 YYXZ=            -42.5429 ZZXY=            -11.7855
 N-N= 4.674776061753D+02 E-N=-2.003735355111D+03  KE= 4.588549141407D+02
   1 Symmetry operations used in ECPInt.
 ECPInt:  NShTT=    9870 NPrTT=   28656 LenC2=    9629 LenP2D=   22114.
 LDataN:  DoStor=T MaxTD1= 7 Len=  274
 Calling FoFJK, ICntrl=      2127 FMM=F ISym2X=0 I1Cent= 0 IOpClX= 0 NMat=1 NMatS=1 NMatT=0.
 -------------------------------------------------------------------
 Center     Atomic                   Forces (Hartrees/Bohr)
 Number     Number              X              Y              Z
 -------------------------------------------------------------------
      1        6           0.000407190    0.000228779    0.001007634
      2        6          -0.000287055   -0.000952033   -0.000754857
      3        8           0.000379460    0.001363320    0.000046143
      4        6          -0.001451075    0.000624269    0.000372791
      5        8           0.001897468    0.000212978    0.001130949
      6        8           0.001054363    0.000405304   -0.000040455
      7        1          -0.000140225   -0.000297877   -0.000647483
      8        1          -0.000263738   -0.000013191   -0.000717753
      9        1          -0.000301608   -0.000219917   -0.000403476
     10        1           0.000056937   -0.001239833    0.000049981
     11        1          -0.000022596    0.000493678   -0.000060481
     12        1          -0.000328802    0.000642242   -0.000035805
     13        1          -0.000185918   -0.000170079    0.000268265
     14        1          -0.000271032   -0.000045669    0.000675431
     15        6           0.001542144   -0.000247244   -0.000079465
     16        8          -0.000683571   -0.000827009    0.001546068
     17        1           0.000371877    0.000555355    0.000239805
     18        1           0.000155635   -0.000423818   -0.000253079
     19        1           0.000602747    0.000653297    0.000255526
     20        1          -0.001761286   -0.000957872   -0.001982023
     21        1          -0.000770914    0.000215320   -0.000617715
 -------------------------------------------------------------------
 Cartesian Forces:  Max     0.001982023 RMS     0.000741224

 GradGradGradGradGradGradGradGradGradGradGradGradGradGradGradGradGradGrad
 Berny optimization.
 FormGI is forming the generalized inverse of G from B-inverse, IUseBI=4.
 Internal  Forces:  Max     0.002624236 RMS     0.000593731
 Search for a local minimum.
 Step number   1 out of a maximum of  111
 All quantities printed in internal units (Hartrees-Bohrs-Radians)
 Mixed Optimization -- En-DIIS/RFO-DIIS
 Second derivative matrix not updated -- first step.
 ITU=  0
     Eigenvalues ---    0.00232   0.00635   0.00700   0.00960   0.01142
     Eigenvalues ---    0.01655   0.01948   0.02413   0.03012   0.03606
     Eigenvalues ---    0.04616   0.05548   0.05784   0.05965   0.06061
     Eigenvalues ---    0.07720   0.07801   0.08160   0.08167   0.09194
     Eigenvalues ---    0.10652   0.11968   0.12329   0.15663   0.16000
     Eigenvalues ---    0.16000   0.16000   0.16000   0.16000   0.16000
     Eigenvalues ---    0.16000   0.16000   0.16000   0.16000   0.16037
     Eigenvalues ---    0.16973   0.18324   0.21226   0.29919   0.31357
     Eigenvalues ---    0.34875   0.34945   0.35029   0.35126   0.35229
     Eigenvalues ---    0.35296   0.35321   0.35470   0.35476   0.37552
     Eigenvalues ---    0.37562   0.39376   0.46207   0.48994   0.51670
     Eigenvalues ---    0.54185   0.54267
 RFO step:  Lambda=-2.45084728D-04 EMin= 2.32475066D-03
 Linear search not attempted -- first point.
 Iteration  1 RMS(Cart)=  0.01118953 RMS(Int)=  0.00012128
 Iteration  2 RMS(Cart)=  0.00011356 RMS(Int)=  0.00001385
 Iteration  3 RMS(Cart)=  0.00000002 RMS(Int)=  0.00001385
 Variable       Old X    -DE/DX   Delta X   Delta X   Delta X     New X
                                 (Linear)    (Quad)   (Total)
    R1        2.85336   0.00083   0.00000   0.00264   0.00264   2.85600
    R2        2.05764   0.00043   0.00000   0.00122   0.00122   2.05886
    R3        2.05878   0.00048   0.00000   0.00137   0.00137   2.06015
    R4        2.05470   0.00015   0.00000   0.00043   0.00043   2.05513
    R5        2.60895   0.00037   0.00000   0.00075   0.00075   2.60969
    R6        2.72635   0.00133   0.00000   0.00331   0.00331   2.72967
    R7        2.61657   0.00027   0.00000   0.00064   0.00064   2.61721
    R8        1.82564  -0.00033   0.00000  -0.00061  -0.00061   1.82503
    R9        2.72410   0.00256   0.00000   0.00649   0.00649   2.73059
   R10        2.05305   0.00014   0.00000   0.00041   0.00041   2.05346
   R11        2.05156   0.00047   0.00000   0.00133   0.00133   2.05289
   R12        2.05627   0.00036   0.00000   0.00103   0.00103   2.05730
   R13        2.44936  -0.00073   0.00000  -0.00416  -0.00417   2.44519
   R14        1.82489  -0.00001   0.00000  -0.00001  -0.00001   1.82488
   R15        4.92535  -0.00050   0.00000  -0.02477  -0.02476   4.90058
   R16        2.75021   0.00262   0.00000   0.00698   0.00698   2.75720
   R17        2.04909   0.00041   0.00000   0.00115   0.00115   2.05024
   R18        2.05196   0.00051   0.00000   0.00146   0.00146   2.05342
   R19        2.04919   0.00053   0.00000   0.00149   0.00149   2.05067
   R20        2.12323   0.00192   0.00000   0.00597   0.00596   2.12920
   R21        1.83580  -0.00066   0.00000  -0.00127  -0.00127   1.83453
    A1        1.88978   0.00053   0.00000   0.00299   0.00299   1.89277
    A2        1.92475   0.00062   0.00000   0.00378   0.00377   1.92853
    A3        1.93274   0.00053   0.00000   0.00369   0.00368   1.93642
    A4        1.90479  -0.00065   0.00000  -0.00485  -0.00485   1.89993
    A5        1.89890  -0.00050   0.00000  -0.00295  -0.00295   1.89594
    A6        1.91237  -0.00054   0.00000  -0.00282  -0.00283   1.90953
    A7        1.98548  -0.00011   0.00000   0.00080   0.00079   1.98627
    A8        1.94781   0.00054   0.00000   0.00456   0.00455   1.95236
    A9        1.99293   0.00029   0.00000   0.00138   0.00139   1.99432
   A10        1.83017   0.00001   0.00000   0.00046   0.00046   1.83063
   A11        1.87920  -0.00016   0.00000  -0.00256  -0.00256   1.87664
   A12        1.81333  -0.00065   0.00000  -0.00535  -0.00535   1.80798
   A13        1.92239   0.00099   0.00000   0.00620   0.00620   1.92859
   A14        1.90256   0.00021   0.00000   0.00115   0.00115   1.90371
   A15        1.85228   0.00063   0.00000   0.00367   0.00367   1.85595
   A16        1.92004  -0.00009   0.00000  -0.00011  -0.00011   1.91993
   A17        1.91841  -0.00058   0.00000  -0.00466  -0.00466   1.91375
   A18        1.94120   0.00004   0.00000   0.00076   0.00075   1.94196
   A19        1.92714  -0.00018   0.00000  -0.00068  -0.00068   1.92646
   A20        2.04461   0.00067   0.00000   0.00256   0.00255   2.04715
   A21        1.81562  -0.00048   0.00000  -0.00574  -0.00572   1.80990
   A22        1.98479  -0.00011   0.00000  -0.00116  -0.00117   1.98362
   A23        1.91655   0.00048   0.00000   0.00698   0.00697   1.92352
   A24        1.67362   0.00061   0.00000   0.00688   0.00687   1.68049
   A25        2.20585  -0.00054   0.00000  -0.00279  -0.00286   2.20299
   A26        1.84950   0.00024   0.00000   0.00099   0.00099   1.85048
   A27        1.90966  -0.00004   0.00000   0.00063   0.00062   1.91028
   A28        1.87679   0.00060   0.00000   0.00350   0.00350   1.88029
   A29        1.94134   0.00005   0.00000   0.00098   0.00098   1.94232
   A30        1.93168  -0.00075   0.00000  -0.00666  -0.00666   1.92502
   A31        1.95083  -0.00006   0.00000   0.00076   0.00076   1.95159
   A32        1.97952   0.00105   0.00000   0.01066   0.01064   1.99016
   A33        1.94717   0.00019   0.00000   0.00435   0.00431   1.95148
   A34        1.88337  -0.00060   0.00000  -0.00173  -0.00179   1.88158
   A35        3.05815   0.00067   0.00000   0.00188   0.00189   3.06004
   A36        1.80411   0.00037   0.00000   0.00121   0.00123   1.80533
    D1        0.97695  -0.00024   0.00000  -0.01272  -0.01272   0.96423
    D2        3.04351   0.00008   0.00000  -0.00831  -0.00830   3.03520
    D3       -1.18977  -0.00018   0.00000  -0.01102  -0.01102  -1.20078
    D4       -1.10603  -0.00013   0.00000  -0.01086  -0.01086  -1.11689
    D5        0.96052   0.00019   0.00000  -0.00645  -0.00644   0.95408
    D6        3.01043  -0.00006   0.00000  -0.00915  -0.00915   3.00128
    D7        3.05746  -0.00021   0.00000  -0.01229  -0.01229   3.04516
    D8       -1.15918   0.00011   0.00000  -0.00788  -0.00788  -1.16705
    D9        0.89073  -0.00015   0.00000  -0.01059  -0.01059   0.88015
   D10        0.72360  -0.00047   0.00000  -0.02888  -0.02888   0.69471
   D11       -1.40931  -0.00107   0.00000  -0.03534  -0.03533  -1.44464
   D12        2.95051  -0.00029   0.00000  -0.02851  -0.02851   2.92200
   D13        0.91681   0.00007   0.00000   0.00431   0.00430   0.92112
   D14        3.12372  -0.00001   0.00000  -0.00017  -0.00019   3.12354
   D15        3.07405   0.00025   0.00000   0.00824   0.00824   3.08229
   D16       -1.00223   0.00017   0.00000   0.00376   0.00375  -0.99848
   D17       -1.23862  -0.00017   0.00000   0.00350   0.00350  -1.23512
   D18        0.96829  -0.00025   0.00000  -0.00098  -0.00098   0.96730
   D19        0.97343  -0.00025   0.00000  -0.00924  -0.00927   0.96417
   D20       -3.00332  -0.00031   0.00000  -0.00524  -0.00524  -3.00856
   D21       -1.24916  -0.00020   0.00000  -0.00926  -0.00928  -1.25844
   D22        1.05726  -0.00025   0.00000  -0.00526  -0.00525   1.05201
   D23        3.09913   0.00013   0.00000  -0.00647  -0.00650   3.09262
   D24       -0.87763   0.00008   0.00000  -0.00247  -0.00248  -0.88011
   D25       -1.33127  -0.00026   0.00000  -0.00738  -0.00738  -1.33864
   D26        2.83095  -0.00004   0.00000  -0.00048  -0.00048   2.83047
   D27        2.88652  -0.00002   0.00000  -0.00450  -0.00450   2.88202
   D28        0.76555   0.00019   0.00000   0.00240   0.00240   0.76795
   D29        0.80159  -0.00013   0.00000  -0.00577  -0.00577   0.79582
   D30       -1.31938   0.00009   0.00000   0.00113   0.00113  -1.31825
   D31       -0.31371  -0.00035   0.00000  -0.00820  -0.00819  -0.32191
   D32        1.93027   0.00007   0.00000  -0.01006  -0.01005   1.92022
   D33        0.51712  -0.00036   0.00000  -0.00399  -0.00398   0.51314
   D34        2.61065   0.00055   0.00000   0.01022   0.01019   2.62084
   D35        1.00749   0.00009   0.00000  -0.00651  -0.00653   1.00096
   D36        3.13867   0.00023   0.00000   0.00239   0.00241   3.14107
   D37       -1.08716  -0.00008   0.00000  -0.00858  -0.00859  -1.09576
   D38        1.04402   0.00006   0.00000   0.00032   0.00034   1.04436
   D39        3.07389  -0.00035   0.00000  -0.01200  -0.01202   3.06187
   D40       -1.07812  -0.00022   0.00000  -0.00310  -0.00308  -1.08120
   D41        1.92971   0.00017   0.00000   0.01136   0.01136   1.94108
   D42       -0.23657  -0.00036   0.00000  -0.00024  -0.00023  -0.23680
   D43       -2.15773  -0.00054   0.00000  -0.00967  -0.00964  -2.16737
   D44        0.02791   0.00050   0.00000   0.00557   0.00557   0.03348
         Item               Value     Threshold  Converged?
 Maximum Force            0.002624     0.000450     NO 
 RMS     Force            0.000594     0.000300     NO 
 Maximum Displacement     0.048536     0.001800     NO 
 RMS     Displacement     0.011196     0.001200     NO 
 Predicted change in Energy=-1.233782D-04
 GradGradGradGradGradGradGradGradGradGradGradGradGradGradGradGradGradGrad

                          Input orientation:                          
 ---------------------------------------------------------------------
 Center     Atomic      Atomic             Coordinates (Angstroms)
 Number     Number       Type             X           Y           Z
 ---------------------------------------------------------------------
      1          6           0       -1.360446   -1.011574   -1.779595
      2          6           0       -0.465346   -0.736299   -0.593366
      3          8           0        0.846227   -1.124970   -0.782689
      4          6           0       -1.643982    1.377726   -0.113433
      5          8           0       -0.394256    0.673950   -0.288970
      6          8           0       -0.901369   -1.303596    0.592466
      7          1           0       -1.288843   -2.070144   -2.027219
      8          1           0       -1.042177   -0.425618   -2.642072
      9          1           0       -2.396927   -0.778540   -1.546963
     10          1           0        1.132765   -0.921582   -1.682261
     11          1           0       -2.087599    1.562183   -1.088099
     12          1           0       -1.398041    2.323588    0.360907
     13          1           0       -2.312028    0.797817    0.521102
     14          1           0       -1.025428   -2.254816    0.481412
     15          6           0        2.460168    0.840180    1.377202
     16          8           0        1.037741    0.680703    1.660197
     17          1           0        2.559420    1.793727    0.869277
     18          1           0        2.798009    0.021092    0.748148
     19          1           0        2.985507    0.862877    2.326464
     20          1           0        0.380312    0.725343    0.746250
     21          1           0        0.852612   -0.154810    2.118549
 ---------------------------------------------------------------------
                    Distance matrix (angstroms):
                    1          2          3          4          5
     1  C    0.000000
     2  C    1.511331   0.000000
     3  O    2.424064   1.380990   0.000000
     4  C    2.926643   2.467513   3.593401   0.000000
     5  O    2.448771   1.444477   2.240239   1.444967   0.000000
     6  O    2.433661   1.384969   2.230931   2.870410   2.223686
     7  H    1.089503   2.124436   2.645891   3.959357   3.369251
     8  H    1.090186   2.150920   2.740888   3.163579   2.676928
     9  H    1.087528   2.154562   3.349952   2.696556   2.775422
    10  H    2.496732   1.942674   0.965764   3.931712   2.611278
    11  H    2.762452   2.856481   3.990164   1.086643   2.072433
    12  H    3.963139   3.338183   4.270493   1.086343   2.037457
    13  H    3.077762   2.646845   3.920659   1.088676   2.085524
    14  H    2.601930   1.942867   2.525390   3.732534   3.093467
    15  C    5.290695   3.863555   3.336428   4.399432   3.309304
    16  O    4.521866   3.057075   3.043818   3.289870   2.418659
    17  H    5.500144   4.205896   3.766007   4.336746   3.364466
    18  H    4.974800   3.608710   2.732467   4.723777   3.419414
    19  H    6.265828   4.794909   4.265546   5.258359   4.277731
    20  H    3.525197   2.155483   2.445075   2.293998   1.293938
    21  H    4.563682   3.070769   3.059155   3.682851   2.835078
                    6          7          8          9         10
     6  O    0.000000
     7  H    2.756898   0.000000
     8  H    3.354536   1.772951   0.000000
     9  H    2.662618   1.768258   1.777404   0.000000
    10  H    3.075389   2.702291   2.428495   3.535179   0.000000
    11  H    3.527624   3.835852   2.731134   2.405249   4.110093
    12  H    3.668347   5.001995   4.086888   3.776365   4.594632
    13  H    2.531993   3.970649   3.621463   2.601731   4.435960
    14  H    0.965683   2.529174   3.619723   2.859144   3.334185
    15  C    4.063436   5.840818   5.479346   5.895962   3.771753
    16  O    2.972817   5.155307   4.905051   4.920590   3.707880
    17  H    4.652643   6.174813   5.497869   6.084418   3.989811
    18  H    3.932485   5.364541   5.142001   5.735356   3.093309
    19  H    4.775789   6.769582   6.524478   6.831418   4.763069
    20  H    2.404776   4.277027   3.850833   3.903018   3.029227
    21  H    2.593277   5.043979   5.130992   4.938068   3.887490
                   11         12         13         14         15
    11  H    0.000000
    12  H    1.776189   0.000000
    13  H    1.795593   1.785781   0.000000
    14  H    4.261579   4.595122   3.312927   0.000000
    15  C    5.223139   4.256658   4.848562   4.746664   0.000000
    16  O    4.254162   3.212516   3.540086   3.776701   1.459047
    17  H    5.047744   4.025008   4.984382   5.421464   1.084938
    18  H    5.442052   4.801904   5.173716   4.457531   1.086624
    19  H    6.155053   5.021214   5.597092   5.404797   1.085170
    20  H    3.186805   2.421863   2.702710   3.305691   2.176485
    21  H    4.677125   3.781164   3.670733   3.258416   2.030723
                   16         17         18         19         20
    16  O    0.000000
    17  H    2.044476   0.000000
    18  H    2.089369   1.792716   0.000000
    19  H    2.066614   1.780850   1.798566   0.000000
    20  H    1.126723   2.430039   2.518180   3.050087   0.000000
    21  H    0.970794   2.875877   2.386107   2.372373   1.697333
                   21
    21  H    0.000000
 Symmetry turned off by external request.
 Stoichiometry    C4H13O4(1+)
 Framework group  C1[X(C4H13O4)]
 Deg. of freedom    57
 Full point group                 C1      NOp   1
 Rotational constants (GHZ):           2.6809724           1.3219206           1.1132609
 Standard basis: def2TZVP (5D, 7F)
   326 basis functions,   512 primitive gaussians,   366 cartesian basis functions
    34 alpha electrons       34 beta electrons
       nuclear repulsion energy       466.9886353435 Hartrees.
 NAtoms=   21 NActive=   21 NUniq=   21 SFac= 1.00D+00 NAtFMM=   60 NAOKFM=F Big=F
 Integral buffers will be    131072 words long.
 Raffenetti 2 integral format.
 Two-electron integral symmetry is turned off.
 One-electron integrals computed using PRISM.
   1 Symmetry operations used in ECPInt.
 ECPInt:  NShTT=    9870 NPrTT=   28656 LenC2=    9629 LenP2D=   22098.
 LDataN:  DoStor=T MaxTD1= 6 Len=  172
 NBasis=   326 RedAO= T EigKep=  3.03D-04  NBF=   326
 NBsUse=   326 1.00D-06 EigRej= -1.00D+00 NBFU=   326
 Initial guess from the checkpoint file:  "/dev/shm/ts3b_ircr_opt_gas.chk"
 B after Tr=     0.001102    0.003234   -0.002385
         Rot=    1.000000   -0.000334   -0.000152   -0.000033 Ang=  -0.04 deg.
 ExpMin= 9.52D-02 ExpMax= 2.70D+04 ExpMxC= 9.22D+02 IAcc=3 IRadAn=         5 AccDes= 0.00D+00
 Harris functional with IExCor= 1009 and IRadAn=       5 diagonalized for initial guess.
 HarFok:  IExCor= 1009 AccDes= 0.00D+00 IRadAn=         5 IDoV= 1 UseB2=F ITyADJ=14
 ICtDFT=  3500011 ScaDFX=  1.000000  1.000000  1.000000  1.000000
 FoFCou: FMM=F IPFlag=           0 FMFlag=      100000 FMFlg1=           0
         NFxFlg=           0 DoJE=T BraDBF=F KetDBF=T FulRan=T
         wScrn=  0.000000 ICntrl=       500 IOpCl=  0 I1Cent=   200000004 NGrid=           0
         NMat0=    1 NMatS0=      1 NMatT0=    0 NMatD0=    1 NMtDS0=    0 NMtDT0=    0
 Symmetry not used in FoFCou.
 Requested convergence on RMS density matrix=1.00D-08 within  32 cycles.
 Requested convergence on MAX density matrix=1.00D-06.
 Requested convergence on             energy=1.00D-06.
 No special actions if energy rises.
 Integral accuracy reduced to 1.0D-05 until final iterations.
 Initial convergence to 1.0D-05 achieved.  Increase integral accuracy.
 SCF Done:  E(RM062X) =  -460.884733218     A.U. after   10 cycles
            NFock= 10  Conv=0.30D-08     -V/T= 2.0045
 QCSCF skips out because SCF is already converged.
   1 Symmetry operations used in ECPInt.
 ECPInt:  NShTT=    9870 NPrTT=   28656 LenC2=    9629 LenP2D=   22098.
 LDataN:  DoStor=T MaxTD1= 7 Len=  274
 Calling FoFJK, ICntrl=      2127 FMM=F ISym2X=0 I1Cent= 0 IOpClX= 0 NMat=1 NMatS=1 NMatT=0.
 -------------------------------------------------------------------
 Center     Atomic                   Forces (Hartrees/Bohr)
 Number     Number              X              Y              Z
 -------------------------------------------------------------------
      1        6           0.000499579    0.000521102    0.000451392
      2        6          -0.000238302   -0.001326955   -0.000356253
      3        8          -0.000114083    0.001418717    0.000058364
      4        6          -0.000774792   -0.000168267    0.000246603
      5        8           0.000725153    0.000768573    0.000812410
      6        8           0.000344786    0.000251859    0.000291323
      7        1           0.000050848   -0.000061970   -0.000044585
      8        1          -0.000039338    0.000044651   -0.000033568
      9        1          -0.000075171    0.000098934    0.000041425
     10        1          -0.000218596   -0.000740605   -0.000085829
     11        1           0.000195509   -0.000095915   -0.000163958
     12        1           0.000234997   -0.000057492   -0.000043900
     13        1           0.000187679   -0.000081774   -0.000036181
     14        1          -0.000046637    0.000117029    0.000110269
     15        6           0.000273490   -0.000258584   -0.000008914
     16        8           0.000978039    0.000234169    0.000906699
     17        1          -0.000179661    0.000051437    0.000068189
     18        1          -0.000237879   -0.000013068    0.000072525
     19        1          -0.000240981    0.000121077    0.000139980
     20        1          -0.000985235   -0.000510572   -0.002038214
     21        1          -0.000339405   -0.000312347   -0.000387775
 -------------------------------------------------------------------
 Cartesian Forces:  Max     0.002038214 RMS     0.000506930

 GradGradGradGradGradGradGradGradGradGradGradGradGradGradGradGradGradGrad
 Berny optimization.
 Using GEDIIS/GDIIS optimizer.
 FormGI is forming the generalized inverse of G from B-inverse, IUseBI=4.
 Internal  Forces:  Max     0.001232562 RMS     0.000249639
 Search for a local minimum.
 Step number   2 out of a maximum of  111
 All quantities printed in internal units (Hartrees-Bohrs-Radians)
 Mixed Optimization -- En-DIIS/RFO-DIIS
 Swapping is turned off.
 Update second derivatives using D2CorX and points    1    2
 DE= -1.56D-04 DEPred=-1.23D-04 R= 1.27D+00
 TightC=F SS=  1.41D+00  RLast= 8.05D-02 DXNew= 5.0454D-01 2.4157D-01
 Trust test= 1.27D+00 RLast= 8.05D-02 DXMaxT set to 3.00D-01
 ITU=  1  0
     Eigenvalues ---    0.00231   0.00625   0.00699   0.00937   0.01142
     Eigenvalues ---    0.01215   0.01681   0.02303   0.02945   0.03615
     Eigenvalues ---    0.04583   0.05507   0.05748   0.06025   0.06147
     Eigenvalues ---    0.07709   0.07775   0.08106   0.08144   0.09257
     Eigenvalues ---    0.10720   0.11798   0.12237   0.15449   0.15820
     Eigenvalues ---    0.16000   0.16000   0.16000   0.16000   0.16000
     Eigenvalues ---    0.16000   0.16000   0.16000   0.16036   0.16907
     Eigenvalues ---    0.17373   0.19205   0.21176   0.28669   0.31892
     Eigenvalues ---    0.34881   0.34941   0.35053   0.35120   0.35227
     Eigenvalues ---    0.35309   0.35364   0.35473   0.35528   0.37544
     Eigenvalues ---    0.38670   0.43749   0.46223   0.49975   0.51836
     Eigenvalues ---    0.54163   0.54296
 En-DIIS/RFO-DIIS/Sim-DIIS IScMMF=       -3 using points:     2    1
 RFO step:  Lambda=-1.35662765D-04.
 DidBck=F Rises=F RFO-DIIS coefs:    2.16477   -1.16477
 Iteration  1 RMS(Cart)=  0.01154192 RMS(Int)=  0.00020145
 Iteration  2 RMS(Cart)=  0.00020103 RMS(Int)=  0.00002679
 Iteration  3 RMS(Cart)=  0.00000008 RMS(Int)=  0.00002679
 Variable       Old X    -DE/DX   Delta X   Delta X   Delta X     New X
                                 (Linear)    (Quad)   (Total)
    R1        2.85600  -0.00069   0.00308  -0.00494  -0.00186   2.85414
    R2        2.05886   0.00007   0.00142  -0.00058   0.00084   2.05970
    R3        2.06015   0.00004   0.00160  -0.00082   0.00078   2.06093
    R4        2.05513   0.00010   0.00050   0.00009   0.00059   2.05572
    R5        2.60969  -0.00050   0.00087  -0.00195  -0.00108   2.60861
    R6        2.72967  -0.00007   0.00386  -0.00285   0.00102   2.73068
    R7        2.61721   0.00004   0.00075  -0.00011   0.00065   2.61786
    R8        1.82503  -0.00014  -0.00071   0.00007  -0.00063   1.82440
    R9        2.73059  -0.00006   0.00756  -0.00485   0.00272   2.73331
   R10        2.05346   0.00005   0.00048  -0.00009   0.00039   2.05384
   R11        2.05289  -0.00002   0.00155  -0.00101   0.00054   2.05343
   R12        2.05730  -0.00009   0.00120  -0.00110   0.00010   2.05739
   R13        2.44519  -0.00100  -0.00485  -0.00519  -0.01006   2.43512
   R14        1.82488  -0.00012  -0.00001  -0.00030  -0.00032   1.82456
   R15        4.90058  -0.00053  -0.02884  -0.01445  -0.04328   4.85730
   R16        2.75720  -0.00044   0.00813  -0.00660   0.00154   2.75874
   R17        2.05024  -0.00000   0.00134  -0.00083   0.00050   2.05074
   R18        2.05342  -0.00011   0.00170  -0.00145   0.00024   2.05366
   R19        2.05067   0.00001   0.00173  -0.00103   0.00070   2.05138
   R20        2.12920   0.00123   0.00695   0.00073   0.00766   2.13686
   R21        1.83453   0.00000  -0.00148   0.00087  -0.00061   1.83392
    A1        1.89277   0.00001   0.00348  -0.00179   0.00168   1.89445
    A2        1.92853   0.00004   0.00440  -0.00251   0.00188   1.93041
    A3        1.93642  -0.00007   0.00429  -0.00334   0.00093   1.93736
    A4        1.89993  -0.00001  -0.00565   0.00349  -0.00217   1.89777
    A5        1.89594   0.00006  -0.00344   0.00300  -0.00045   1.89549
    A6        1.90953  -0.00002  -0.00330   0.00136  -0.00195   1.90758
    A7        1.98627   0.00006   0.00092   0.00062   0.00154   1.98781
    A8        1.95236  -0.00018   0.00530  -0.00674  -0.00146   1.95090
    A9        1.99432   0.00015   0.00162   0.00083   0.00246   1.99678
   A10        1.83063  -0.00007   0.00054  -0.00227  -0.00172   1.82891
   A11        1.87664   0.00006  -0.00299   0.00505   0.00204   1.87868
   A12        1.80798  -0.00004  -0.00623   0.00264  -0.00357   1.80441
   A13        1.92859   0.00012   0.00722  -0.00338   0.00385   1.93243
   A14        1.90371  -0.00032   0.00134  -0.00367  -0.00233   1.90138
   A15        1.85595  -0.00028   0.00427  -0.00505  -0.00078   1.85518
   A16        1.91993  -0.00015  -0.00013  -0.00103  -0.00116   1.91877
   A17        1.91375   0.00022  -0.00543   0.00495  -0.00048   1.91327
   A18        1.94196   0.00025   0.00088   0.00171   0.00259   1.94455
   A19        1.92646   0.00023  -0.00079   0.00273   0.00194   1.92841
   A20        2.04715  -0.00042   0.00297  -0.00682  -0.00390   2.04325
   A21        1.80990  -0.00007  -0.00666  -0.00098  -0.00762   1.80228
   A22        1.98362   0.00025  -0.00136   0.00153   0.00010   1.98371
   A23        1.92352   0.00005   0.00812  -0.00376   0.00435   1.92787
   A24        1.68049   0.00013   0.00800   0.00054   0.00851   1.68901
   A25        2.20299  -0.00007  -0.00333   0.00103  -0.00245   2.20054
   A26        1.85048  -0.00021   0.00115  -0.00261  -0.00146   1.84902
   A27        1.91028  -0.00021   0.00073  -0.00194  -0.00122   1.90906
   A28        1.88029  -0.00033   0.00407  -0.00546  -0.00139   1.87890
   A29        1.94232   0.00024   0.00114   0.00171   0.00285   1.94517
   A30        1.92502   0.00014  -0.00776   0.00536  -0.00241   1.92261
   A31        1.95159   0.00030   0.00088   0.00234   0.00322   1.95480
   A32        1.99016   0.00039   0.01240  -0.00265   0.00973   1.99989
   A33        1.95148  -0.00013   0.00503  -0.00444   0.00053   1.95201
   A34        1.88158  -0.00013  -0.00209   0.00109  -0.00109   1.88049
   A35        3.06004   0.00002   0.00221  -0.00116   0.00107   3.06112
   A36        1.80533   0.00010   0.00143   0.00109   0.00255   1.80788
    D1        0.96423   0.00013  -0.01482   0.01114  -0.00369   0.96055
    D2        3.03520  -0.00005  -0.00967   0.00377  -0.00591   3.02930
    D3       -1.20078  -0.00013  -0.01283   0.00294  -0.00989  -1.21067
    D4       -1.11689   0.00012  -0.01265   0.00946  -0.00319  -1.12007
    D5        0.95408  -0.00006  -0.00750   0.00209  -0.00541   0.94867
    D6        3.00128  -0.00014  -0.01066   0.00127  -0.00939   2.99189
    D7        3.04516   0.00017  -0.01432   0.01170  -0.00263   3.04254
    D8       -1.16705  -0.00001  -0.00917   0.00432  -0.00485  -1.17190
    D9        0.88015  -0.00009  -0.01233   0.00350  -0.00883   0.87132
   D10        0.69471  -0.00061  -0.03364  -0.01357  -0.04722   0.64749
   D11       -1.44464  -0.00037  -0.04116  -0.00398  -0.04512  -1.48976
   D12        2.92200  -0.00032  -0.03321  -0.00796  -0.04118   2.88082
   D13        0.92112  -0.00001   0.00501  -0.00161   0.00338   0.92449
   D14        3.12354  -0.00002  -0.00022  -0.00503  -0.00526   3.11827
   D15        3.08229  -0.00009   0.00960  -0.00632   0.00327   3.08555
   D16       -0.99848  -0.00010   0.00437  -0.00974  -0.00537  -1.00385
   D17       -1.23512  -0.00006   0.00408  -0.00058   0.00349  -1.23163
   D18        0.96730  -0.00007  -0.00115  -0.00400  -0.00515   0.96215
   D19        0.96417   0.00011  -0.01079   0.00630  -0.00453   0.95964
   D20       -3.00856   0.00013  -0.00610   0.00601  -0.00008  -3.00865
   D21       -1.25844  -0.00013  -0.01081   0.00077  -0.01007  -1.26851
   D22        1.05201  -0.00011  -0.00612   0.00048  -0.00562   1.04639
   D23        3.09262  -0.00006  -0.00757   0.00026  -0.00739   3.08524
   D24       -0.88011  -0.00004  -0.00288  -0.00003  -0.00294  -0.88305
   D25       -1.33864  -0.00013  -0.00859   0.00057  -0.00802  -1.34666
   D26        2.83047   0.00010  -0.00056   0.00622   0.00566   2.83613
   D27        2.88202  -0.00008  -0.00524  -0.00059  -0.00583   2.87620
   D28        0.76795   0.00015   0.00279   0.00506   0.00785   0.77580
   D29        0.79582  -0.00012  -0.00672  -0.00034  -0.00706   0.78876
   D30       -1.31825   0.00011   0.00131   0.00531   0.00662  -1.31163
   D31       -0.32191   0.00006  -0.00954  -0.00034  -0.00988  -0.33179
   D32        1.92022  -0.00036  -0.01170  -0.00877  -0.02046   1.89976
   D33        0.51314  -0.00004  -0.00463   0.00409  -0.00052   0.51262
   D34        2.62084   0.00011   0.01187   0.00004   0.01187   2.63271
   D35        1.00096   0.00001  -0.00760  -0.00032  -0.00795   0.99301
   D36        3.14107   0.00003   0.00280  -0.00437  -0.00153   3.13954
   D37       -1.09576  -0.00004  -0.01001   0.00019  -0.00985  -1.10561
   D38        1.04436  -0.00003   0.00040  -0.00385  -0.00343   1.04093
   D39        3.06187  -0.00009  -0.01400   0.00185  -0.01218   3.04969
   D40       -1.08120  -0.00008  -0.00359  -0.00220  -0.00576  -1.08696
   D41        1.94108  -0.00011   0.01324   0.00161   0.01486   1.95594
   D42       -0.23680  -0.00011  -0.00027   0.00840   0.00814  -0.22866
   D43       -2.16737  -0.00028  -0.01123   0.00034  -0.01084  -2.17821
   D44        0.03348   0.00003   0.00649  -0.00531   0.00119   0.03467
         Item               Value     Threshold  Converged?
 Maximum Force            0.001233     0.000450     NO 
 RMS     Force            0.000250     0.000300     YES
 Maximum Displacement     0.055763     0.001800     NO 
 RMS     Displacement     0.011521     0.001200     NO 
 Predicted change in Energy=-6.852263D-05
 GradGradGradGradGradGradGradGradGradGradGradGradGradGradGradGradGradGrad

                          Input orientation:                          
 ---------------------------------------------------------------------
 Center     Atomic      Atomic             Coordinates (Angstroms)
 Number     Number       Type             X           Y           Z
 ---------------------------------------------------------------------
      1          6           0       -1.361254   -1.009549   -1.777710
      2          6           0       -0.461693   -0.731457   -0.596777
      3          8           0        0.850129   -1.114982   -0.790654
      4          6           0       -1.647267    1.376401   -0.113270
      5          8           0       -0.392667    0.680249   -0.296123
      6          8           0       -0.891378   -1.292466    0.594746
      7          1           0       -1.285705   -2.067321   -2.029496
      8          1           0       -1.052630   -0.420780   -2.642292
      9          1           0       -2.398240   -0.782623   -1.539883
     10          1           0        1.122767   -0.951090   -1.702169
     11          1           0       -2.093110    1.561653   -1.086997
     12          1           0       -1.404385    2.322503    0.362818
     13          1           0       -2.308652    0.789068    0.521502
     14          1           0       -1.022164   -2.243564    0.492142
     15          6           0        2.464110    0.838831    1.384971
     16          8           0        1.038114    0.676983    1.652430
     17          1           0        2.565676    1.792167    0.876539
     18          1           0        2.809784    0.017710    0.762637
     19          1           0        2.977120    0.868322    2.341190
     20          1           0        0.378895    0.725543    0.734974
     21          1           0        0.848872   -0.158357    2.108728
 ---------------------------------------------------------------------
                    Distance matrix (angstroms):
                    1          2          3          4          5
     1  C    0.000000
     2  C    1.510347   0.000000
     3  O    2.423965   1.380419   0.000000
     4  C    2.923170   2.466258   3.592050   0.000000
     5  O    2.447177   1.445015   2.238740   1.446404   0.000000
     6  O    2.435030   1.385312   2.232415   2.862780   2.221253
     7  H    1.089948   2.125138   2.646406   3.957508   3.369160
     8  H    1.090597   2.151711   2.744262   3.159020   2.674383
     9  H    1.087841   2.154596   3.350180   2.694545   2.776555
    10  H    2.485856   1.944387   0.965428   3.951570   2.633395
    11  H    2.761119   2.856604   3.989341   1.086848   2.072163
    12  H    3.960592   3.337088   4.269617   1.086628   2.038327
    13  H    3.069033   2.640796   3.914723   1.088726   2.085990
    14  H    2.605763   1.945853   2.534708   3.723093   3.092945
    15  C    5.296458   3.866969   3.340009   4.408756   3.318493
    16  O    4.513006   3.048288   3.035645   3.289097   2.417438
    17  H    5.505944   4.207647   3.764857   4.347582   3.370948
    18  H    4.990609   3.621024   2.745169   4.741156   3.437386
    19  H    6.270026   4.797538   4.273878   5.259988   4.283253
    20  H    3.514576   2.145460   2.436624   2.290954   1.288612
    21  H    4.551218   3.060357   3.053122   3.677427   2.833370
                    6          7          8          9         10
     6  O    0.000000
     7  H    2.764514   0.000000
     8  H    3.356226   1.772270   0.000000
     9  H    2.662183   1.768589   1.776768   0.000000
    10  H    3.073944   2.674668   2.428459   3.528769   0.000000
    11  H    3.523977   3.835317   2.726092   2.407040   4.127248
    12  H    3.658547   5.000781   4.084118   3.774894   4.622454
    13  H    2.519289   3.963959   3.612605   2.593752   4.443816
    14  H    0.965515   2.541490   3.626038   2.856057   3.329597
    15  C    4.052922   5.845119   5.492989   5.901384   3.812277
    16  O    2.953027   5.146642   4.901116   4.912214   3.729762
    17  H    4.641723   6.178496   5.511029   6.091724   4.032019
    18  H    3.929802   5.377396   5.167597   5.750274   3.140043
    19  H    4.762809   6.774405   6.537260   6.832485   4.806000
    20  H    2.388644   4.267702   3.843078   3.893845   3.050264
    21  H    2.570373   5.032441   5.124136   4.924004   3.902100
                   11         12         13         14         15
    11  H    0.000000
    12  H    1.776288   0.000000
    13  H    1.797391   1.787261   0.000000
    14  H    4.256792   4.583861   3.294355   0.000000
    15  C    5.234629   4.267473   4.850496   4.738397   0.000000
    16  O    4.253430   3.215064   3.534460   3.757740   1.459860
    17  H    5.060918   4.038137   4.989121   5.413638   1.085205
    18  H    5.462899   4.819870   5.181846   4.457617   1.086752
    19  H    6.159578   5.022567   5.590790   5.394172   1.085543
    20  H    3.182682   2.422575   2.696761   3.292041   2.187110
    21  H    4.671868   3.778893   3.658806   3.234535   2.031551
                   16         17         18         19         20
    16  O    0.000000
    17  H    2.044281   0.000000
    18  H    2.089303   1.794787   0.000000
    19  H    2.066578   1.779882   1.800936   0.000000
    20  H    1.130776   2.437157   2.531998   3.057954   0.000000
    21  H    0.970470   2.875804   2.384982   2.374352   1.699811
                   21
    21  H    0.000000
 Symmetry turned off by external request.
 Stoichiometry    C4H13O4(1+)
 Framework group  C1[X(C4H13O4)]
 Deg. of freedom    57
 Full point group                 C1      NOp   1
 Rotational constants (GHZ):           2.6860383           1.3228229           1.1139112
 Standard basis: def2TZVP (5D, 7F)
   326 basis functions,   512 primitive gaussians,   366 cartesian basis functions
    34 alpha electrons       34 beta electrons
       nuclear repulsion energy       467.1404743209 Hartrees.
 NAtoms=   21 NActive=   21 NUniq=   21 SFac= 1.00D+00 NAtFMM=   60 NAOKFM=F Big=F
 Integral buffers will be    131072 words long.
 Raffenetti 2 integral format.
 Two-electron integral symmetry is turned off.
 One-electron integrals computed using PRISM.
   1 Symmetry operations used in ECPInt.
 ECPInt:  NShTT=    9870 NPrTT=   28656 LenC2=    9629 LenP2D=   22096.
 LDataN:  DoStor=T MaxTD1= 6 Len=  172
 NBasis=   326 RedAO= T EigKep=  2.99D-04  NBF=   326
 NBsUse=   326 1.00D-06 EigRej= -1.00D+00 NBFU=   326
 Initial guess from the checkpoint file:  "/dev/shm/ts3b_ircr_opt_gas.chk"
 B after Tr=     0.003435    0.005196   -0.002993
         Rot=    1.000000   -0.000443   -0.000204   -0.000262 Ang=  -0.06 deg.
 ExpMin= 9.52D-02 ExpMax= 2.70D+04 ExpMxC= 9.22D+02 IAcc=3 IRadAn=         5 AccDes= 0.00D+00
 Harris functional with IExCor= 1009 and IRadAn=       5 diagonalized for initial guess.
 HarFok:  IExCor= 1009 AccDes= 0.00D+00 IRadAn=         5 IDoV= 1 UseB2=F ITyADJ=14
 ICtDFT=  3500011 ScaDFX=  1.000000  1.000000  1.000000  1.000000
 FoFCou: FMM=F IPFlag=           0 FMFlag=      100000 FMFlg1=           0
         NFxFlg=           0 DoJE=T BraDBF=F KetDBF=T FulRan=T
         wScrn=  0.000000 ICntrl=       500 IOpCl=  0 I1Cent=   200000004 NGrid=           0
         NMat0=    1 NMatS0=      1 NMatT0=    0 NMatD0=    1 NMtDS0=    0 NMtDT0=    0
 Symmetry not used in FoFCou.
 Requested convergence on RMS density matrix=1.00D-08 within  32 cycles.
 Requested convergence on MAX density matrix=1.00D-06.
 Requested convergence on             energy=1.00D-06.
 No special actions if energy rises.
 Integral accuracy reduced to 1.0D-05 until final iterations.
 Initial convergence to 1.0D-05 achieved.  Increase integral accuracy.
 SCF Done:  E(RM062X) =  -460.884824448     A.U. after    9 cycles
            NFock=  9  Conv=0.87D-08     -V/T= 2.0045
 QCSCF skips out because SCF is already converged.
   1 Symmetry operations used in ECPInt.
 ECPInt:  NShTT=    9870 NPrTT=   28656 LenC2=    9629 LenP2D=   22096.
 LDataN:  DoStor=T MaxTD1= 7 Len=  274
 Calling FoFJK, ICntrl=      2127 FMM=F ISym2X=0 I1Cent= 0 IOpClX= 0 NMat=1 NMatS=1 NMatT=0.
 -------------------------------------------------------------------
 Center     Atomic                   Forces (Hartrees/Bohr)
 Number     Number              X              Y              Z
 -------------------------------------------------------------------
      1        6          -0.000072511   -0.000067764   -0.000358292
      2        6           0.000316541   -0.000791830   -0.000373157
      3        8          -0.000275332    0.000487978    0.000285721
      4        6           0.000105376    0.000041975    0.000093786
      5        8          -0.000116256    0.000855943    0.000968309
      6        8           0.000196666    0.000015204    0.000373365
      7        1          -0.000029123    0.000091136    0.000195913
      8        1           0.000113603    0.000054960    0.000344835
      9        1           0.000153445    0.000005863    0.000105462
     10        1          -0.000220566   -0.000272096   -0.000105130
     11        1           0.000086888   -0.000185116    0.000070454
     12        1           0.000102580   -0.000275244   -0.000031403
     13        1           0.000155830    0.000137322   -0.000123731
     14        1           0.000081643    0.000023148   -0.000226242
     15        6          -0.000709551    0.000030928    0.000216576
     16        8           0.001037266    0.000430478    0.000920619
     17        1          -0.000065468   -0.000279179   -0.000135757
     18        1          -0.000051536    0.000249505    0.000103333
     19        1          -0.000216688   -0.000173962   -0.000132822
     20        1          -0.000299456    0.000085260   -0.001892690
     21        1          -0.000293349   -0.000464509   -0.000299147
 -------------------------------------------------------------------
 Cartesian Forces:  Max     0.001892690 RMS     0.000415711

 GradGradGradGradGradGradGradGradGradGradGradGradGradGradGradGradGradGrad
 Berny optimization.
 Using GEDIIS/GDIIS optimizer.
 FormGI is forming the generalized inverse of G from B-inverse, IUseBI=4.
 Internal  Forces:  Max     0.001048537 RMS     0.000229937
 Search for a local minimum.
 Step number   3 out of a maximum of  111
 All quantities printed in internal units (Hartrees-Bohrs-Radians)
 Mixed Optimization -- En-DIIS/RFO-DIIS
 Swapping is turned off.
 Update second derivatives using D2CorX and points    1    2    3
 DE= -9.12D-05 DEPred=-6.85D-05 R= 1.33D+00
 TightC=F SS=  1.41D+00  RLast= 1.04D-01 DXNew= 5.0454D-01 3.1204D-01
 Trust test= 1.33D+00 RLast= 1.04D-01 DXMaxT set to 3.12D-01
 ITU=  1  1  0
     Eigenvalues ---    0.00224   0.00586   0.00683   0.00759   0.00997
     Eigenvalues ---    0.01146   0.01685   0.02275   0.02915   0.03670
     Eigenvalues ---    0.04583   0.05659   0.05738   0.06022   0.06160
     Eigenvalues ---    0.07724   0.07786   0.08155   0.08290   0.09346
     Eigenvalues ---    0.10748   0.12197   0.12282   0.15789   0.15820
     Eigenvalues ---    0.16000   0.16000   0.16000   0.16000   0.16000
     Eigenvalues ---    0.16000   0.16000   0.16042   0.16378   0.17101
     Eigenvalues ---    0.17388   0.19144   0.21186   0.27893   0.31887
     Eigenvalues ---    0.34897   0.34956   0.35061   0.35147   0.35244
     Eigenvalues ---    0.35309   0.35381   0.35474   0.35656   0.38233
     Eigenvalues ---    0.38659   0.45534   0.46689   0.50742   0.53330
     Eigenvalues ---    0.54217   0.54331
 En-DIIS/RFO-DIIS/Sim-DIIS IScMMF=       -3 using points:     3    2    1
 RFO step:  Lambda=-6.34703862D-05.
 DidBck=F Rises=F RFO-DIIS coefs:    1.69349   -0.53799   -0.15550
 Iteration  1 RMS(Cart)=  0.00839675 RMS(Int)=  0.00012933
 Iteration  2 RMS(Cart)=  0.00012530 RMS(Int)=  0.00001571
 Iteration  3 RMS(Cart)=  0.00000004 RMS(Int)=  0.00001571
 Variable       Old X    -DE/DX   Delta X   Delta X   Delta X     New X
                                 (Linear)    (Quad)   (Total)
    R1        2.85414  -0.00034  -0.00088  -0.00023  -0.00111   2.85303
    R2        2.05970  -0.00014   0.00077  -0.00063   0.00015   2.05985
    R3        2.06093  -0.00021   0.00075  -0.00085  -0.00010   2.06083
    R4        2.05572  -0.00012   0.00048  -0.00060  -0.00013   2.05560
    R5        2.60861  -0.00056  -0.00063  -0.00090  -0.00153   2.60708
    R6        2.73068   0.00057   0.00122   0.00168   0.00290   2.73359
    R7        2.61786  -0.00008   0.00055  -0.00034   0.00022   2.61808
    R8        1.82440  -0.00001  -0.00053   0.00013  -0.00041   1.82399
    R9        2.73331  -0.00053   0.00289  -0.00172   0.00117   2.73448
   R10        2.05384  -0.00013   0.00033  -0.00055  -0.00022   2.05362
   R11        2.05343  -0.00023   0.00058  -0.00083  -0.00025   2.05318
   R12        2.05739  -0.00024   0.00023  -0.00075  -0.00052   2.05687
   R13        2.43512  -0.00092  -0.00763  -0.00385  -0.01149   2.42363
   R14        1.82456  -0.00001  -0.00022   0.00010  -0.00012   1.82444
   R15        4.85730  -0.00043  -0.03387  -0.00616  -0.04003   4.81728
   R16        2.75874  -0.00105   0.00215  -0.00303  -0.00088   2.75786
   R17        2.05074  -0.00019   0.00053  -0.00069  -0.00016   2.05058
   R18        2.05366  -0.00026   0.00040  -0.00081  -0.00042   2.05325
   R19        2.05138  -0.00022   0.00072  -0.00084  -0.00012   2.05126
   R20        2.13686   0.00079   0.00624   0.00063   0.00686   2.14372
   R21        1.83392   0.00029  -0.00062   0.00083   0.00020   1.83412
    A1        1.89445  -0.00006   0.00163  -0.00040   0.00123   1.89567
    A2        1.93041  -0.00036   0.00189  -0.00296  -0.00107   1.92933
    A3        1.93736  -0.00013   0.00122  -0.00111   0.00011   1.93747
    A4        1.89777   0.00026  -0.00226   0.00272   0.00046   1.89823
    A5        1.89549   0.00009  -0.00077   0.00036  -0.00042   1.89508
    A6        1.90758   0.00022  -0.00179   0.00151  -0.00028   1.90730
    A7        1.98781   0.00006   0.00119  -0.00044   0.00075   1.98856
    A8        1.95090  -0.00010  -0.00031   0.00052   0.00020   1.95109
    A9        1.99678  -0.00006   0.00192  -0.00101   0.00091   1.99769
   A10        1.82891  -0.00002  -0.00112   0.00064  -0.00048   1.82843
   A11        1.87868  -0.00003   0.00102  -0.00161  -0.00061   1.87808
   A12        1.80441   0.00015  -0.00331   0.00222  -0.00107   1.80334
   A13        1.93243  -0.00023   0.00363  -0.00230   0.00133   1.93377
   A14        1.90138  -0.00014  -0.00144   0.00009  -0.00135   1.90003
   A15        1.85518  -0.00022   0.00003  -0.00082  -0.00078   1.85439
   A16        1.91877   0.00004  -0.00082   0.00062  -0.00021   1.91856
   A17        1.91327   0.00021  -0.00106   0.00142   0.00036   1.91363
   A18        1.94455   0.00004   0.00191  -0.00068   0.00123   1.94577
   A19        1.92841   0.00006   0.00124  -0.00061   0.00063   1.92904
   A20        2.04325   0.00008  -0.00231   0.00263   0.00027   2.04352
   A21        1.80228  -0.00001  -0.00617   0.00014  -0.00603   1.79625
   A22        1.98371  -0.00008  -0.00011  -0.00139  -0.00157   1.98214
   A23        1.92787  -0.00021   0.00410  -0.00398   0.00011   1.92798
   A24        1.68901  -0.00003   0.00697  -0.00077   0.00620   1.69520
   A25        2.20054   0.00011  -0.00214   0.00061  -0.00162   2.19892
   A26        1.84902   0.00000  -0.00086   0.00090   0.00004   1.84906
   A27        1.90906   0.00006  -0.00075   0.00062  -0.00013   1.90893
   A28        1.87890  -0.00019  -0.00042  -0.00021  -0.00064   1.87826
   A29        1.94517  -0.00012   0.00213  -0.00242  -0.00029   1.94488
   A30        1.92261   0.00022  -0.00270   0.00259  -0.00012   1.92249
   A31        1.95480   0.00002   0.00235  -0.00129   0.00106   1.95586
   A32        1.99989  -0.00011   0.00840  -0.00440   0.00400   2.00389
   A33        1.95201  -0.00012   0.00104  -0.00147  -0.00046   1.95155
   A34        1.88049   0.00010  -0.00104   0.00060  -0.00049   1.88000
[...]
 032310,0.00019910,0.00054966,0.00020670,-0.00046761,0.00022540,0.00467
 243,0.01769244,-0.00301096,0.00034636,0.00210354,0.00214671,0.00064880
 ,-0.00774357,0.13087382,0.06315266,-0.48249015,0.00090272,-0.00013515,
 0.00032718,-0.00202366,0.00198017,0.00075253,-0.00023973,-0.00049735,0
 .00341631,0.00008888,-0.00026213,0.00031630,-0.00049342,0.00076689,0.0
 0011986,-0.00063641,-0.00022948,-0.00101877,-0.12721932,-0.06587544,0.
 48534859,0.00019816,0.00010230,-0.00019860,-0.00076045,-0.00330581,-0.
 00145025,-0.00006611,0.00042447,0.00054608,-0.09364353,0.01424394,-0.0
 9698944,-0.02819651,0.01179304,-0.02672956,0.00058236,0.00044143,-0.00
 015045,0.00008805,-0.00008786,0.00020011,-0.00010870,0.00020403,0.0002
 6012,0.00032438,-0.00040295,0.00003996,0.00000401,0.00010561,-0.000105
 35,0.11155050,-0.00000757,-0.00053714,-0.00025500,0.00126476,0.0020483
 9,0.00310799,-0.00032238,-0.00034530,-0.00067732,0.01120660,-0.0562458
 0,0.03274854,0.01618435,-0.00564332,0.01396168,-0.00020617,-0.00077753
 ,-0.00042034,-0.00013394,0.00016106,-0.00002758,0.00010428,-0.00005973
 ,-0.00032344,-0.00019218,-0.00160039,-0.00024190,0.00015860,0.00002711
 ,0.00002362,-0.02353765,0.05783896,-0.00074759,-0.00112669,0.00016878,
 -0.00013627,0.00034399,-0.00010033,0.00002358,0.00008626,0.00000380,-0
 .10799813,0.03832321,-0.28361559,0.00606837,-0.00195829,0.01286741,-0.
 00014873,0.00008940,0.00023221,0.00055978,-0.00002939,0.00000764,-0.00
 005577,0.00006399,-0.00021401,0.00058962,-0.00047884,-0.00032634,-0.00
 003790,-0.00008205,-0.00001024,0.11267473,-0.03726608,0.29445340,-0.00
 040283,-0.00010736,-0.00021338,-0.00480403,-0.00403320,0.00079532,-0.0
 0180834,0.00233612,0.00076683,-0.06879779,-0.07530828,-0.03584013,-0.0
 0020686,0.04172208,0.01658526,0.00075239,0.00042792,-0.00047481,0.0003
 9108,-0.00003122,0.00007481,-0.00002369,0.00003365,0.00001486,0.000546
 79,0.00012689,0.00003463,-0.00002275,0.00009273,-0.00024250,-0.0016778
 6,-0.01192182,-0.00353928,0.07717582,-0.00011260,0.00021190,0.00009710
 ,0.00160525,0.00297463,0.00044432,0.00084899,-0.00089862,-0.00034394,-
 0.06117796,-0.26418107,-0.10270223,0.00212040,-0.01777384,-0.00638302,
 0.00013772,-0.00025525,0.00000071,-0.00007540,0.00002356,-0.00004367,0
 .00009644,-0.00007321,-0.00005318,0.00000041,-0.00007448,0.00005100,-0
 .00001164,-0.00003763,0.00010786,0.00039496,0.00702274,0.00280537,0.06
 021730,0.28543517,-0.00019596,-0.00026624,0.00020744,0.00037145,0.0014
 8882,-0.00085845,0.00020358,-0.00023664,0.00010000,-0.02928671,-0.1039
 1032,-0.10134541,0.00089135,-0.00385922,-0.00090758,-0.00042987,0.0001
 7623,0.00033732,0.00019607,-0.00004041,0.00006578,-0.00017138,0.000112
 69,0.00010781,0.00024338,0.00001433,-0.00027259,-0.00006587,-0.0000580
 5,0.00003061,-0.00691595,-0.02540210,-0.00972946,0.03110534,0.11401252
 ,0.10098488,0.00016385,0.00053276,-0.00026130,-0.00091815,-0.00508394,
 0.00116753,0.00021707,0.00100553,-0.00031198,-0.13694778,-0.08306476,0
 .09034124,-0.03138128,-0.00606143,0.01871905,0.00069383,0.00020560,-0.
 00090184,0.00009454,0.00001633,0.00010746,-0.00005942,-0.00004146,-0.0
 0008920,0.00011675,0.00010882,0.00005963,0.00009170,-0.00018157,-0.000
 15003,0.01130034,0.00735751,-0.00806581,-0.00222674,-0.00413199,0.0039
 5813,0.15839785,0.00014660,-0.00031162,0.00005390,0.00123683,0.0027060
 6,-0.00179298,-0.00038486,-0.00063702,0.00046751,-0.09437743,-0.138799
 50,0.09666117,0.02035165,0.00793281,-0.01347756,0.00068006,-0.00133182
 ,0.00034901,-0.00002802,-0.00004241,-0.00005244,0.00003018,0.00001512,
 0.00006336,-0.00007664,0.00004903,-0.00020019,-0.00008324,0.00013704,0
 .00004147,-0.00202424,-0.00081516,-0.00002919,-0.01424571,-0.01157512,
 0.01805439,0.08933674,0.14257575,0.00039114,0.00015717,-0.00020614,0.0
 0190511,0.00188293,-0.00006721,-0.00024849,-0.00040984,-0.00020062,0.0
 9453784,0.09239751,-0.15705610,0.00497701,-0.00265748,0.00051586,-0.00
 120698,0.00039702,0.00010702,-0.00023417,-0.00000482,0.00010657,-0.000
 16044,0.00006187,0.00013506,-0.00028805,-0.00026792,-0.00053323,0.0000
 7466,0.00006064,0.00003386,0.01635806,0.01577706,-0.01355370,-0.009682
 54,-0.00740792,0.01072285,-0.10621044,-0.09960506,0.16000317,0.0000078
 2,-0.00021866,0.00005989,-0.00355345,-0.01517630,0.00097170,-0.0003176
 8,0.00161633,-0.00056537,0.00062677,-0.00021692,-0.00007017,0.00070750
 ,0.00011962,0.00098538,-0.01386367,-0.05947306,0.00282607,0.00058172,-
 0.00002848,-0.00033474,-0.00029285,-0.00015743,0.00011974,-0.00039096,
 0.00061957,-0.00040610,0.00009760,0.00068276,0.00037305,0.00008378,0.0
 0006486,-0.00009666,-0.00000631,-0.00001694,0.00002738,0.00029660,-0.0
 0002411,-0.00001642,0.01589239,0.00106251,0.00218536,-0.00148555,-0.00
 340359,-0.01886557,-0.00122693,0.00255477,0.00048290,-0.00260061,-0.00
 055840,0.00032925,0.00024174,-0.00061024,0.00022076,0.00262219,-0.0723
 8892,-0.50172794,-0.03324341,0.00028397,0.00031789,0.00001538,-0.00054
 516,-0.00012582,-0.00082441,0.00014921,-0.00009230,0.00029345,0.000321
 54,0.00038655,0.00006353,0.00006649,-0.00004809,-0.00003872,0.00003785
 ,0.00006656,-0.00004299,0.00007922,0.00003743,-0.00020319,0.07304460,0
 .51696610,-0.00034976,0.00013479,0.00058596,0.00527447,0.03989491,0.00
 290160,-0.00046136,-0.00126149,-0.00044770,0.00072988,-0.00032302,-0.0
 0008433,0.00218636,0.00664416,-0.00324015,-0.00323862,-0.08032151,-0.0
 5047595,-0.00014843,-0.00070230,-0.00146968,0.00011057,-0.00055076,0.0
 0008750,-0.00017711,0.00008203,-0.00003861,0.00042297,-0.00004886,-0.0
 0016375,-0.00012797,0.00012029,0.00000301,-0.00013442,0.00001778,-0.00
 001276,-0.00033388,0.00002527,0.00003155,-0.00394160,0.03676186,0.0521
 9531,-0.00047449,0.00073318,0.00038949,0.00228959,-0.00473367,-0.00490
 463,-0.00421277,0.00085057,0.00200884,-0.00146873,0.00150938,0.0007964
 2,0.00765592,0.00126044,0.00836441,0.00091660,0.00172887,0.00185249,0.
 00014177,0.00006886,0.00012496,0.00006873,-0.00004686,0.00001903,-0.00
 017231,-0.00008078,-0.00013058,0.00115798,0.00034902,0.00005713,0.0004
 5207,-0.00011717,0.00005308,-0.00012652,0.00030879,-0.00024980,-0.0000
 2681,-0.00015874,-0.00014158,0.00011190,-0.00041204,0.00023809,0.43922
 697,0.00017850,0.00012859,-0.00006375,-0.00131130,-0.00053405,0.000149
 93,0.00073205,0.00037976,0.00026499,-0.00059316,0.00049235,0.00010337,
 0.00194896,0.00021328,0.00268284,0.00004149,-0.00022888,-0.00054510,0.
 00001248,-0.00000743,0.00002414,-0.00001210,0.00001114,-0.00003667,0.0
 0003856,-0.00000978,0.00003384,-0.00000492,0.00000538,-0.00021331,0.00
 011325,-0.00002194,0.00002016,0.00006709,0.00007758,-0.00014178,-0.000
 01108,-0.00009065,-0.00005028,-0.00015729,-0.00006811,-0.00002794,-0.0
 2425323,0.63109651,0.00021214,-0.00042589,-0.00004501,-0.00153809,0.00
 243101,0.00073567,0.00095750,-0.00039083,-0.00033509,0.00096418,-0.000
 63363,-0.00023032,-0.00404049,-0.00061692,-0.00919343,-0.00000110,-0.0
 0073365,0.00004008,-0.00009430,-0.00006012,-0.00007252,-0.00000142,0.0
 0002699,0.00003007,0.00006226,0.00003184,0.00004598,-0.00018298,-0.000
 03959,-0.00004269,-0.00019156,0.00009329,0.00003764,-0.00001444,-0.000
 00779,0.00009081,-0.00004415,0.00003958,0.00005799,-0.00015739,0.00004
 216,-0.00006293,0.03285599,-0.00740377,0.62664689,0.00085222,-0.002744
 41,-0.00032122,-0.00663156,0.01530453,0.00303677,0.00561975,-0.0020350
 7,-0.00150215,0.00622937,-0.00524900,-0.00330295,-0.03442755,-0.003975
 43,-0.05862209,-0.00158510,-0.00585552,-0.00071660,-0.00053651,-0.0003
 0889,-0.00046716,0.00000308,0.00016470,0.00026431,0.00027310,0.0002139
 5,0.00020980,-0.00120708,0.00000410,0.00026788,-0.00170105,0.00086350,
 0.00031933,-0.00016900,0.00006410,0.00051733,-0.00048709,0.00032611,0.
 00042263,-0.00056063,0.00072430,-0.00071382,-0.19636852,0.01244720,0.0
 1414735,0.42601278,-0.00015710,0.00139021,-0.00028249,0.00309240,-0.00
 443162,0.00450099,0.00030887,-0.00008237,-0.00254875,-0.00042679,0.000
 28022,-0.00046245,0.00492850,0.01522322,0.00460763,-0.00302455,-0.0011
 2877,-0.00255304,0.00022409,0.00008080,0.00030093,-0.00007927,-0.00005
 929,-0.00018603,-0.00004188,-0.00006444,-0.00001624,-0.00053480,-0.000
 39394,-0.00003553,-0.00012414,-0.00002502,0.00007186,-0.00041051,0.000
 01838,-0.00021865,0.00018124,-0.00008901,0.00002767,-0.00009541,0.0005
 8591,-0.00040248,-0.02209292,-0.08155331,0.02185879,0.11067550,0.49367
 780,0.00033217,-0.00340233,0.00031739,-0.00380562,0.01798305,-0.002101
 76,0.00373535,-0.00298844,-0.00164560,0.00533099,-0.00662130,-0.007642
 53,-0.05780998,-0.00462945,-0.05442813,-0.00103100,-0.00440907,0.00345
 659,-0.00054376,-0.00031490,-0.00065730,0.00015161,0.00017019,0.000497
 29,0.00011460,0.00023663,0.00008833,-0.00083948,-0.00002714,0.00052341
 ,-0.00280234,0.00147165,0.00079620,-0.00012918,0.00054802,0.00010592,-
 0.00128732,0.00034299,0.00000136,-0.00022227,0.00024827,-0.00011064,0.
 02112175,0.01859303,-0.08642851,0.00690810,-0.21161072,0.31152394,0.00
 005609,0.00005733,-0.00006183,-0.00018287,-0.00032667,0.00048251,0.000
 26043,0.00005560,-0.00005325,-0.00005721,-0.00008027,-0.00005616,-0.00
 025968,0.00038632,-0.00037276,-0.00015007,-0.00008782,-0.00040538,0.00
 000049,0.00000397,0.00000904,-0.00001137,-0.00000481,-0.00002806,0.000
 00810,-0.00000384,0.00001143,-0.00000077,-0.00002577,-0.00004179,-0.00
 001327,0.00002398,-0.00000021,-0.00006293,0.00001547,0.00002029,0.0000
 3447,0.00001448,0.00001522,-0.00004585,0.00003675,-0.00006097,-0.04990
 856,-0.01147665,0.00437161,-0.01644906,-0.03899376,0.02119390,0.065081
 40,-0.00000720,0.00001328,0.00000629,-0.00012000,-0.00028104,0.0000576
 8,0.00008837,0.00023880,-0.00010566,-0.00010734,0.00011895,0.00002134,
 -0.00002529,0.00000926,-0.00025226,0.00000641,0.00009514,-0.00010203,0
 .00000381,0.00000130,0.00000383,-0.00000637,-0.00000073,-0.00000982,-0
 .00000028,-0.00000175,-0.00000395,-0.00011128,-0.00016317,-0.00005956,
 0.00001009,-0.00000459,0.00000033,-0.00000389,0.00000317,0.00000600,0.
 00003124,-0.00001728,-0.00000641,0.00001969,-0.00000967,0.00001525,-0.
 02698995,-0.28472510,0.11228254,-0.00181204,0.00087353,-0.00019292,0.0
 2933298,0.29705354,-0.00002511,0.00003941,0.00001321,0.00009550,-0.000
 30637,-0.00001801,-0.00000107,0.00023103,-0.00004154,-0.00012531,0.000
 15145,0.00005013,0.00038702,0.00027210,0.00014421,0.00000762,0.0001031
 8,-0.00003935,0.00000910,0.00000415,0.00000761,-0.00000648,-0.00000472
 ,-0.00001065,-0.00000486,-0.00000342,-0.00000769,-0.00006481,-0.000121
 79,-0.00002045,0.00001086,-0.00002471,-0.00000756,0.00000546,-0.000000
 29,0.00003471,0.00002780,-0.00000481,-0.00000294,0.00001196,-0.0000146
 8,0.00000729,0.01329238,0.11007431,-0.10585780,0.00180453,0.00361182,-
 0.00113934,-0.01572961,-0.12100003,0.10519751,0.00024441,-0.00019168,-
 0.00009403,-0.00170697,0.00105717,0.00085742,0.00104265,0.00009993,0.0
 0005304,0.00001242,-0.00004224,-0.00003442,-0.00064903,-0.00066135,-0.
 00144643,0.00028546,-0.00013605,-0.00032066,-0.00003293,-0.00003338,-0
 .00003684,-0.00001150,0.00001280,-0.00001240,0.00006705,0.00001792,0.0
 0006275,0.00009961,-0.00013099,-0.00019396,-0.00001792,0.00000199,-0.0
 0002852,0.00004497,-0.00007961,0.00005337,0.00005358,0.00002645,0.0000
 3181,-0.00009807,-0.00004692,0.00000360,-0.07351471,0.05725847,0.04517
 573,-0.03197706,0.02228548,0.02134150,0.00335982,-0.00180065,-0.003226
 92,0.09211959,0.00001463,-0.00003729,-0.00000739,-0.00002559,0.0003892
 0,0.00000873,-0.00057112,-0.00068928,-0.00011017,0.00007343,-0.0001217
 3,-0.00002172,-0.00010031,-0.00016674,-0.00004313,0.00012897,-0.000085
 60,0.00013068,-0.00000922,-0.00000450,-0.00000878,0.00000649,0.0000032
 6,0.00001306,0.00000028,0.00000787,0.00000601,0.00020911,0.00025131,0.
 00003404,-0.00001253,0.00001183,-0.00000304,-0.00000650,-0.00001166,0.
 00000053,-0.00002154,0.00002406,0.00000948,-0.00005042,0.00000542,-0.0
 0002190,0.06873414,-0.21246399,-0.12439198,-0.00688785,0.00882247,0.00
 575039,0.00808304,-0.01661965,-0.01783270,-0.06922726,0.21670988,0.000
 11388,-0.00003679,-0.00005252,-0.00079393,0.00007380,0.00048484,0.0003
 8010,0.00001405,-0.00047642,-0.00009748,0.00008823,0.00004914,0.000398
 64,-0.00024620,-0.00002327,0.00008579,0.00016024,-0.00031734,-0.000011
 10,-0.00000909,-0.00000288,-0.00000989,0.00000448,-0.00001784,0.000024
 08,0.00000353,0.00002485,-0.00029844,-0.00017699,-0.00026932,0.0000240
 7,-0.00000457,-0.00000505,0.00002372,0.00000174,0.00000042,0.00002139,
 -0.00001352,-0.00000331,0.00003012,-0.00005247,0.00006731,0.05172190,-
 0.12251583,-0.15376409,0.00369280,-0.00007112,0.00094535,-0.00611402,0
 .01109794,0.01099180,-0.05876205,0.13328929,0.15547501,0.00011160,-0.0
 0021056,-0.00003980,-0.00067523,0.00118965,0.00056462,0.00082912,0.000
 06425,-0.00008104,0.00041743,-0.00034286,-0.00017040,-0.00199755,-0.00
 031673,-0.00346870,-0.00003502,-0.00032851,-0.00005990,-0.00004157,-0.
 00002611,-0.00003863,-0.00000473,0.00001024,0.00000909,0.00003246,0.00
 001636,0.00002604,-0.00014437,-0.00009901,-0.00005640,-0.00010894,0.00
 005402,0.00001750,-0.00000036,-0.00001173,0.00003349,-0.00002032,0.000
 02316,0.00002316,-0.00005370,0.00002803,-0.00005173,-0.09590745,0.0006
 3379,-0.10031271,-0.03383262,0.00069072,-0.03258677,0.00381637,0.00118
 019,0.00363395,0.00777005,-0.00136680,0.00909675,0.11830183,-0.0000560
 5,0.00001193,0.00002730,0.00036422,-0.00012305,-0.00027183,-0.00050058
 ,-0.00014018,-0.00003095,0.00002093,-0.00002352,-0.00001414,-0.0003052
 8,0.00001514,-0.00037512,-0.00005833,-0.00005752,0.00013834,0.00000208
 ,0.00000672,-0.00000017,0.00000099,-0.00000323,0.00000436,-0.00001550,
 0.00000261,-0.00001719,0.00004480,0.00001072,0.00006430,-0.00001572,0.
 00000546,0.00000272,-0.00002113,0.00001343,0.00002315,-0.00000110,0.00
 000951,-0.00000051,-0.00001918,0.00003119,-0.00005069,0.00415626,-0.05
 353123,0.00404531,-0.00517332,0.00115146,-0.00345321,0.01337583,0.0023
 9441,0.02591796,-0.01095912,0.00296790,-0.02137763,-0.00025441,0.04748
 032,-0.00007520,0.00007876,0.00001972,0.00049535,-0.00035856,-0.000280
 56,-0.00055053,-0.00017235,0.00000777,-0.00009110,0.00007930,0.0000639
 7,0.00071101,0.00011765,0.00131627,-0.00001363,0.00005816,0.00010436,0
 .00001574,0.00001386,0.00001542,0.00000419,-0.00000359,0.00000417,-0.0
 0001792,-0.00000467,-0.00001640,0.00007262,0.00008705,0.00006998,0.000
 03472,-0.00001754,-0.00000733,-0.00000443,0.00000315,-0.00001890,-0.00
 000521,-0.00000240,-0.00000623,0.00001159,0.00000772,-0.00000222,-0.11
 572096,0.00386287,-0.29075029,0.00948595,-0.00058606,0.01299491,-0.004
 36738,-0.00156063,-0.00953176,-0.00695499,0.00261856,-0.01263324,0.117
 43407,-0.00427828,0.30012049,-0.00093185,0.00562532,0.00015865,0.01182
 093,-0.03375213,-0.00331931,-0.00805079,0.00223084,-0.00016903,-0.0171
 2887,0.00835975,-0.00326792,-0.00935606,0.01538622,0.02831776,-0.00208
 778,0.00590136,-0.00472915,0.00111234,0.00058884,0.00105440,-0.0001416
 5,-0.00026222,-0.00071801,-0.00040564,-0.00033119,-0.00025912,0.000851
 14,-0.00005323,-0.00034350,0.00194766,-0.00088121,0.00044239,0.0012615
 4,-0.00019095,-0.00034994,0.00097901,-0.00081257,-0.00046314,0.0005538
 6,0.00005072,0.00017921,-0.02285118,-0.00213936,-0.00891576,-0.0409790
 9,-0.01152036,0.00218783,0.00137927,-0.00038499,-0.00042703,0.00198412
 ,0.00080434,-0.00042009,0.00080502,-0.00004822,0.00044429,0.06680431,0
 .00075542,-0.00367461,0.00017432,-0.01685260,-0.00186551,-0.02143498,0
 .00065517,0.00005337,0.00188761,0.00410900,0.00126532,0.00786752,0.006
 43792,-0.04141158,-0.00277039,0.00078125,0.00020401,0.00085945,-0.0006
 1137,-0.00013614,-0.00074932,0.00013048,0.00011817,0.00020191,0.000108
 37,0.00011044,0.00012636,0.00032302,0.00049284,-0.00002539,0.00174008,
 -0.00104920,-0.00074915,0.00096842,-0.00078644,0.00018892,-0.00025276,
 0.00005811,-0.00027354,0.00023177,-0.00026665,0.00057086,0.00164373,0.
 00043718,-0.00430721,-0.01703549,-0.04262697,0.00039448,-0.00118634,-0
 .00031067,-0.00023236,0.00060415,-0.00011788,0.00052268,-0.00135534,-0
 .00029227,0.00026647,0.00467010,0.09105260,-0.00077625,0.00642024,-0.0
 0018930,0.00544775,-0.04053379,0.00029933,-0.00610747,0.00508410,-0.00
 017767,-0.00851534,0.01359150,0.01384726,0.01899101,0.00429567,-0.0123
 7840,-0.00105427,0.00699997,-0.00706038,0.00110318,0.00058200,0.001398
 31,-0.00020533,-0.00027066,-0.00085350,-0.00031223,-0.00049108,-0.0002
 2550,0.00119359,-0.00066562,-0.00121805,0.00536562,-0.00264534,-0.0009
 6421,0.00081307,-0.00109835,0.00029504,0.00321592,-0.00099081,-0.00016
 101,0.00034136,0.00000506,-0.00058857,-0.01556209,-0.00782578,0.019865
 53,-0.00443681,0.01343770,-0.07096398,0.00122232,0.00059443,-0.0000468
 9,0.00385191,0.00010062,0.00000347,0.00733989,0.00068775,-0.00194837,-
 0.01525185,-0.00389141,0.06782423,-0.00045781,-0.00069986,0.00062889,0
 .00270213,0.00347167,-0.00427485,-0.00155100,-0.00038743,0.00036817,0.
 00057459,-0.00005287,-0.00050870,-0.00440258,-0.00276018,-0.00357277,-
 0.00039334,-0.00018665,0.00328002,-0.00005567,-0.00004117,-0.00013625,
 0.00014265,0.00002888,0.00025333,-0.00009750,0.00002409,-0.00008726,-0
 .00008734,0.00001053,0.00004683,-0.00023698,0.00003564,0.00010649,0.00
 016342,-0.00000100,0.00004433,-0.00037201,0.00004331,-0.00008440,0.000
 22325,-0.00047468,0.00059453,-0.00698948,-0.03351275,0.01674761,-0.072
 07839,-0.06488532,0.01863991,-0.00685479,0.00069651,0.00032501,0.00092
 445,0.00022472,0.00089375,0.00073797,-0.00053715,-0.00090819,0.0124337
 1,0.01413503,0.00333601,0.07567472,-0.00028746,-0.00070975,0.00046158,
 0.00094079,0.00518063,-0.00200472,-0.00045201,-0.00107645,0.00064425,0
 .00015871,-0.00025436,-0.00028372,-0.00337618,-0.00184557,-0.00369326,
 0.00093018,-0.00281041,0.00305353,-0.00006450,-0.00006712,-0.00012861,
 0.00011064,0.00006984,0.00024579,-0.00000144,0.00005978,-0.00002257,0.
 00025336,0.00012443,0.00010363,-0.00012879,0.00005765,-0.00004586,0.00
 005957,-0.00017980,0.00009882,-0.00000335,0.00016467,0.00011559,-0.000
 76498,-0.00041116,-0.00055627,-0.00245787,0.00039270,-0.00184012,-0.08
 971098,-0.39164923,0.19191078,0.00080016,0.00133227,-0.00085954,0.0019
 4489,0.00112513,-0.00075179,0.00042165,0.00007020,-0.00020949,0.006758
 93,-0.00125412,0.00661382,0.08486867,0.39168068,0.00016871,-0.00034127
 ,0.00019502,-0.00270185,0.00108038,-0.00384094,0.00012642,0.00000446,0
 .00113937,-0.00091717,0.00037588,0.00011565,-0.00122151,-0.00287452,-0
 .00094448,0.00249136,0.00153582,0.00064301,-0.00004483,-0.00006141,-0.
 00007634,0.00003193,0.00001682,0.00006534,0.00003112,0.00001266,0.0000
 4161,0.00042816,0.00005889,-0.00006518,0.00014715,0.00000181,-0.000036
 27,0.00005581,-0.00004919,0.00006156,0.00004301,0.00007032,0.00007520,
 0.00005247,-0.00056840,0.00081777,0.00381367,0.00301472,-0.00076796,0.
 02900602,0.17055615,-0.10613289,-0.00003490,-0.00079239,0.00027753,-0.
 00031991,0.00047942,-0.00047690,-0.00131247,-0.00104148,0.00047821,0.0
 0584931,0.02137318,-0.00675735,-0.03569248,-0.19285184,0.11518803\\-0.
 00000411,-0.00000390,-0.00000712,0.00000994,-0.00000692,-0.00000820,-0
 .00000783,-0.00000374,0.00000185,0.00002311,-0.00000761,-0.00001173,-0
 .00003152,0.00002925,0.00001595,0.00000515,0.00000608,0.00000731,0.000
 00072,0.00000144,0.00000415,0.00000255,-0.00000022,0.00000330,0.000002
 43,0.00000131,0.00000090,0.00000156,0.00000584,-0.00000042,-0.00000148
 ,-0.00000223,0.00000056,-0.00000104,-0.00000245,0.00000158,-0.00000206
 ,0.00000200,0.00000016,-0.00000230,-0.00000045,-0.00000290,-0.00003589
 ,0.00000428,0.00000870,0.00000090,0.00000289,0.00000202,0.00000146,-0.
 00000443,-0.00000709,0.00000488,0.00000062,0.00000154,0.00000076,-0.00
 000074,-0.00000178,0.00002675,-0.00001303,-0.00001903,0.00000601,-0.00
 000799,0.00001026\\\@


 SUCCESS IS COUNTED SWEETEST
 BY THOSE WHO NE'ER SUCCEED.
 TO COMPREHEND NECTAR
 REQUIRES SOREST NEED.
           EMILY DICKINSON
 Job cpu time:       0 days  2 hours 12 minutes  6.7 seconds.
 Elapsed time:       0 days  0 hours  3 minutes 41.0 seconds.
 File lengths (MBytes):  RWF=    185 Int=      0 D2E=      0 Chk=     16 Scr=      1
 Normal termination of Gaussian 16 at Thu Sep  5 10:44:05 2019.
