 Entering Gaussian System, Link 0=g16
 Initial command:
 /opt/gaussian/16.B.01/g16/l1.exe "/oasis/scratch/comet/mayes/temp_project/Gau-26855.inp" -scrdir="/oasis/scratch/comet/mayes/temp_project/"
 Entering Link 1 = /opt/gaussian/16.B.01/g16/l1.exe PID=     26856.
  
 Copyright (c) 1988-2017, Gaussian, Inc.  All Rights Reserved.
  
 This is part of the Gaussian(R) 16 program.  It is based on
 the Gaussian(R) 09 system (copyright 2009, Gaussian, Inc.),
 the Gaussian(R) 03 system (copyright 2003, Gaussian, Inc.),
 the Gaussian(R) 98 system (copyright 1998, Gaussian, Inc.),
 the Gaussian(R) 94 system (copyright 1995, Gaussian, Inc.),
 the Gaussian 92(TM) system (copyright 1992, Gaussian, Inc.),
 the Gaussian 90(TM) system (copyright 1990, Gaussian, Inc.),
 the Gaussian 88(TM) system (copyright 1988, Gaussian, Inc.),
 the Gaussian 86(TM) system (copyright 1986, Carnegie Mellon
 University), and the Gaussian 82(TM) system (copyright 1983,
 Carnegie Mellon University). Gaussian is a federally registered
 trademark of Gaussian, Inc.
  
 This software contains proprietary and confidential information,
 including trade secrets, belonging to Gaussian, Inc.
  
 This software is provided under written license and may be
 used, copied, transmitted, or stored only in accord with that
 written license.
  
 The following legend is applicable only to US Government
 contracts under FAR:
  
                    RESTRICTED RIGHTS LEGEND
  
 Use, reproduction and disclosure by the US Government is
 subject to restrictions as set forth in subparagraphs (a)
 and (c) of the Commercial Computer Software - Restricted
 Rights clause in FAR 52.227-19.
  
 Gaussian, Inc.
 340 Quinnipiac St., Bldg. 40, Wallingford CT 06492
  
  
 ---------------------------------------------------------------
 Warning -- This program may not be used in any manner that
 competes with the business of Gaussian, Inc. or will provide
 assistance to any competitor of Gaussian, Inc.  The licensee
 of this program is prohibited from giving any competitor of
 Gaussian, Inc. access to this program.  By using this program,
 the user acknowledges that Gaussian, Inc. is engaged in the
 business of creating and licensing software in the field of
 computational chemistry and represents and warrants to the
 licensee that it is not a competitor of Gaussian, Inc. and that
 it will not use this program in any manner prohibited above.
 ---------------------------------------------------------------
  

 Cite this work as:
 Gaussian 16, Revision B.01,
 M. J. Frisch, G. W. Trucks, H. B. Schlegel, G. E. Scuseria, 
 M. A. Robb, J. R. Cheeseman, G. Scalmani, V. Barone, 
 G. A. Petersson, H. Nakatsuji, X. Li, M. Caricato, A. V. Marenich, 
 J. Bloino, B. G. Janesko, R. Gomperts, B. Mennucci, H. P. Hratchian, 
 J. V. Ortiz, A. F. Izmaylov, J. L. Sonnenberg, D. Williams-Young, 
 F. Ding, F. Lipparini, F. Egidi, J. Goings, B. Peng, A. Petrone, 
 T. Henderson, D. Ranasinghe, V. G. Zakrzewski, J. Gao, N. Rega, 
 G. Zheng, W. Liang, M. Hada, M. Ehara, K. Toyota, R. Fukuda, 
 J. Hasegawa, M. Ishida, T. Nakajima, Y. Honda, O. Kitao, H. Nakai, 
 T. Vreven, K. Throssell, J. A. Montgomery, Jr., J. E. Peralta, 
 F. Ogliaro, M. J. Bearpark, J. J. Heyd, E. N. Brothers, K. N. Kudin, 
 V. N. Staroverov, T. A. Keith, R. Kobayashi, J. Normand, 
 K. Raghavachari, A. P. Rendell, J. C. Burant, S. S. Iyengar, 
 J. Tomasi, M. Cossi, J. M. Millam, M. Klene, C. Adamo, R. Cammi, 
 J. W. Ochterski, R. L. Martin, K. Morokuma, O. Farkas, 
 J. B. Foresman, and D. J. Fox, Gaussian, Inc., Wallingford CT, 2016.
 
 ******************************************
 Gaussian 16:  ES64L-G16RevB.01 20-Dec-2017
                 6-Aug-2019 
 ******************************************
 %RWF=/oasis/scratch/comet/mayes/temp_project/water.rwf
 %NoSave
 %Chk=/oasis/scratch/comet/mayes/temp_project/water.chk
 %cpu=0-23
 SetSPE:  set environment variable "MP_BIND" = "yes"
 SetSPE:  set environment variable "MP_BLIST" = "0,1,2,3,4,5,6,7,8,9,10,11,12,13,14,15,16,17,18,19,20,21,22,23"
 Will use up to   24 processors via shared memory.
 %mem=100GB
 ----------------------------------------------------------------------
 # m062x/Def2TZVP nosymm scf=xqc opt freq=NoRaman SCRF=(Solvent=1,2-Eth
 aneDiol,Read) CPHF=Grid=Fine
 ----------------------------------------------------------------------
 1/18=20,19=15,26=3,38=1,40=2/1,3;
 2/9=110,12=2,15=1,17=6,18=5,40=1/2;
 3/5=44,7=101,11=2,25=1,30=1,70=2203,71=1,72=30,74=-55/1,2,3;
 4//1;
 5/5=2,8=3,13=1,38=5,53=30/2,8;
 6/7=2,8=2,9=2,10=2,28=1/1;
 7/30=1/1,2,3,16;
 1/18=20,19=15,26=3/3(2);
 2/9=110,15=1/2;
 99//99;
 2/9=110,15=1/2;
 3/5=44,7=101,11=2,25=1,30=1,70=2205,71=1,72=30,74=-55/1,2,3;
 4/5=5,16=3,69=1/1;
 5/5=2,8=3,13=1,38=5,53=30/2,8;
 7/30=1/1,2,3,16;
 1/18=20,19=15,26=3/3(-5);
 2/9=110,15=1/2;
 6/7=2,8=2,9=2,10=2,19=2,28=1/1;
 99/9=1/99;
 -----------------------------
 water at same level of theory
 -----------------------------
 Symbolic Z-matrix:
 Charge =  0 Multiplicity = 1
 O                    -2.54774   0.56664   0.2681 
 H                    -1.57774   0.56664   0.2681 
 H                    -2.87107   0.01706  -0.46287 
 

 GradGradGradGradGradGradGradGradGradGradGradGradGradGradGradGradGradGrad
 Berny optimization.
 Initialization pass.
                           ----------------------------
                           !    Initial Parameters    !
                           ! (Angstroms and Degrees)  !
 --------------------------                            --------------------------
 ! Name  Definition              Value          Derivative Info.                !
 --------------------------------------------------------------------------------
 ! R1    R(1,2)                  0.97           estimate D2E/DX2                !
 ! R2    R(1,3)                  0.97           estimate D2E/DX2                !
 ! A1    A(2,1,3)              109.471          estimate D2E/DX2                !
 --------------------------------------------------------------------------------
 Trust Radius=3.00D-01 FncErr=1.00D-07 GrdErr=1.00D-06 EigMax=2.50D+02 EigMin=1.00D-04
 Number of steps in this run=     20 maximum allowed number of steps=    100.
 GradGradGradGradGradGradGradGradGradGradGradGradGradGradGradGradGradGrad

                          Input orientation:                          
 ---------------------------------------------------------------------
 Center     Atomic      Atomic             Coordinates (Angstroms)
 Number     Number       Type             X           Y           Z
 ---------------------------------------------------------------------
      1          8           0       -2.547740    0.566640    0.268100
      2          1           0       -1.577740    0.566640    0.268100
      3          1           0       -2.871070    0.017060   -0.462870
 ---------------------------------------------------------------------
                    Distance matrix (angstroms):
                    1          2          3
     1  O    0.000000
     2  H    0.970000   0.000000
     3  H    0.969999   1.584001   0.000000
 Symmetry turned off by external request.
 Stoichiometry    H2O
 Framework group  CS[SG(H2O)]
 Deg. of freedom     3
 Full point group                 CS      NOp   2
 Rotational constants (GHZ):         900.1685603         399.7158640         276.8028043
 Standard basis: def2TZVP (5D, 7F)
    43 basis functions,    67 primitive gaussians,    48 cartesian basis functions
     5 alpha electrons        5 beta electrons
       nuclear repulsion energy         9.0627782162 Hartrees.
 NAtoms=    3 NActive=    3 NUniq=    3 SFac= 1.00D+00 NAtFMM=   60 NAOKFM=F Big=F
 Integral buffers will be    131072 words long.
 Raffenetti 2 integral format.
 Two-electron integral symmetry is turned off.
 Using the following non-standard input for PCM:
 PDENS=7.0
 --- end of non-standard input.
 ------------------------------------------------------------------------------
 Polarizable Continuum Model (PCM)
 =================================
 Model                : PCM.
 Atomic radii         : UFF (Universal Force Field).
 Polarization charges : Total charges.
 Charge compensation  : None.
 Solution method      : On-the-fly selection.
 Cavity type          : Scaled VdW (van der Waals Surface) (Alpha=1.100).
 Cavity algorithm     : GePol (No added spheres)
                        Default sphere list used, NSphG=    3.
                        Lebedev-Laikov grids with approx.  7.0 points / Ang**2.
                        Smoothing algorithm: York/Karplus (Gamma=1.0000).
                        Polarization charges: spherical gaussians, with
                                              point-specific exponents (IZeta= 3).
                        Self-potential: point-specific (ISelfS= 7).
                        Self-field    : sphere-specific E.n sum rule (ISelfD= 2).
 1st derivatives      : Analytical E(r).r(x)/FMM algorithm (CHGder, D1EAlg=3).
                        Cavity 1st derivative terms included.
 Solvent              : 1,2-EthaneDiol, Eps=  40.245000 Eps(inf)=   2.050051
 ------------------------------------------------------------------------------
 Spheres list:
 ISph  on   Nord     Re0    Alpha      Xe            Ye            Ze
    1   O      1    1.7500  1.100     -2.547740      0.566640      0.268100
    2   H      2    1.4430  1.100     -1.577740      0.566640      0.268100
    3   H      3    1.4430  1.100     -2.871070      0.017060     -0.462870
 ------------------------------------------------------------------------------
 One-electron integrals computed using PRISM.
   1 Symmetry operations used in ECPInt.
 ECPInt:  NShTT=     190 NPrTT=     556 LenC2=     191 LenP2D=     543.
 LDataN:  DoStor=T MaxTD1= 6 Len=  172
 NBasis=    43 RedAO= T EigKep=  8.80D-03  NBF=    43
 NBsUse=    43 1.00D-06 EigRej= -1.00D+00 NBFU=    43
 ExpMin= 1.03D-01 ExpMax= 2.70D+04 ExpMxC= 9.22D+02 IAcc=3 IRadAn=         5 AccDes= 0.00D+00
 Harris functional with IExCor= 1009 and IRadAn=       5 diagonalized for initial guess.
 HarFok:  IExCor= 1009 AccDes= 0.00D+00 IRadAn=         5 IDoV= 1 UseB2=F ITyADJ=14
 ICtDFT=  3500011 ScaDFX=  1.000000  1.000000  1.000000  1.000000
 FoFCou: FMM=F IPFlag=           0 FMFlag=      100000 FMFlg1=           0
         NFxFlg=           0 DoJE=T BraDBF=F KetDBF=T FulRan=T
         wScrn=  0.000000 ICntrl=       500 IOpCl=  0 I1Cent=   200000004 NGrid=           0
         NMat0=    1 NMatS0=      1 NMatT0=    0 NMatD0=    1 NMtDS0=    0 NMtDT0=    0
 Symmetry not used in FoFCou.
 Keep R1 ints in memory in canonical form, NReq=21408112.
 Requested convergence on RMS density matrix=1.00D-08 within  32 cycles.
 Requested convergence on MAX density matrix=1.00D-06.
 Requested convergence on             energy=1.00D-06.
 No special actions if energy rises.
 Inv3:  Mode=1 IEnd=     1105347.
 Iteration    1 A*A^-1 deviation from unit magnitude is 2.55D-15 for    101.
 Iteration    1 A*A^-1 deviation from orthogonality  is 1.44D-15 for    519    271.
 Iteration    1 A^-1*A deviation from unit magnitude is 2.55D-15 for    101.
 Iteration    1 A^-1*A deviation from orthogonality  is 1.67D-15 for    455      1.
 Error on total polarization charges =  0.00398
 SCF Done:  E(RM062X) =  -76.4328871905     A.U. after    9 cycles
            NFock=  9  Conv=0.97D-09     -V/T= 2.0046
 QCSCF skips out because SCF is already converged.

 **********************************************************************

            Population analysis using the SCF Density.

 **********************************************************************

 Alpha  occ. eigenvalues --  -19.62415  -1.12657  -0.61145  -0.46762  -0.40185
 Alpha virt. eigenvalues --    0.06419   0.13637   0.40885   0.44386   0.47236
 Alpha virt. eigenvalues --    0.48039   0.61865   0.63698   1.23120   1.25047
 Alpha virt. eigenvalues --    1.35805   1.57920   1.66997   1.77320   2.02648
 Alpha virt. eigenvalues --    2.06922   2.16356   2.32694   2.46677   2.62469
 Alpha virt. eigenvalues --    2.66185   2.67631   2.80470   3.61292   3.96727
 Alpha virt. eigenvalues --    5.12917   5.20294   5.39323   5.39597   5.51628
 Alpha virt. eigenvalues --    5.96506   6.19673   6.30158   6.38077   6.38378
 Alpha virt. eigenvalues --    6.92396   6.93311  43.41684
          Condensed to atoms (all electrons):
               1          2          3
     1  O    8.114115   0.309933   0.309936
     2  H    0.309933   0.344284  -0.021210
     3  H    0.309936  -0.021210   0.344282
 Mulliken charges:
               1
     1  O   -0.733985
     2  H    0.366993
     3  H    0.366992
 Sum of Mulliken charges =   0.00000
 Mulliken charges with hydrogens summed into heavy atoms:
               1
     1  O    0.000000
 Electronic spatial extent (au):  <R**2>=            256.6583
 Charge=             -0.0000 electrons
 Dipole moment (field-independent basis, Debye):
    X=              1.3069    Y=             -1.1107    Z=             -1.4773  Tot=              2.2637
 Quadrupole moment (field-independent basis, Debye-Ang):
   XX=            -11.2799   YY=             -8.0353   ZZ=             -6.9120
   XY=              4.1190   XZ=              4.8440   YZ=              0.0007
 Traceless Quadrupole moment (field-independent basis, Debye-Ang):
   XX=             -2.5375   YY=              0.7071   ZZ=              1.8304
   XY=              4.1190   XZ=              4.8440   YZ=              0.0007
 Octapole moment (field-independent basis, Debye-Ang**2):
  XXX=             61.9895  YYY=            -12.3422  ZZZ=             -5.2869  XYY=             21.0538
  XXY=            -16.3175  XXZ=            -16.2263  XZZ=             17.4678  YZZ=             -3.8314
  YYZ=             -1.5570  XYZ=              0.4665
 Hexadecapole moment (field-independent basis, Debye-Ang**3):
 XXXX=           -284.2428 YYYY=            -20.0033 ZZZZ=             -9.2733 XXXY=             63.5736
 XXXZ=             54.4572 YYYX=             31.5033 YYYZ=             -2.7732 ZZZX=             13.3919
 ZZZY=             -2.8086 XXYY=            -58.8705 XXZZ=            -46.7458 YYZZ=             -4.6629
 XXYZ=             -2.9595 YYXZ=              4.1876 ZZXY=              9.7949
 N-N= 9.062778216207D+00 E-N=-1.989595770377D+02  KE= 7.608500004900D+01
   1 Symmetry operations used in ECPInt.
 ECPInt:  NShTT=     190 NPrTT=     556 LenC2=     191 LenP2D=     543.
 LDataN:  DoStor=T MaxTD1= 7 Len=  274
 D1PCM: PCM CHGder 1st derivatives, ID1Alg=3 FixD1E=F DoIter=F DoCFld=F I1PDM=0.
 Calling FoFJK, ICntrl=      2127 FMM=F ISym2X=0 I1Cent= 0 IOpClX= 0 NMat=1 NMatS=1 NMatT=0.
 -------------------------------------------------------------------
 Center     Atomic                   Forces (Hartrees/Bohr)
 Number     Number              X              Y              Z
 -------------------------------------------------------------------
      1        8           0.000249357   -0.000217454   -0.000278969
      2        1          -0.010168400   -0.004166047   -0.005542663
      3        1           0.009919043    0.004383501    0.005821632
 -------------------------------------------------------------------
 Cartesian Forces:  Max     0.010168400 RMS     0.005803778

 GradGradGradGradGradGradGradGradGradGradGradGradGradGradGradGradGradGrad
 Berny optimization.
 FormGI is forming the generalized inverse of G from B-inverse, IUseBI=4.
 Internal  Forces:  Max     0.012699638 RMS     0.011079227
 Search for a local minimum.
 Step number   1 out of a maximum of   20
 All quantities printed in internal units (Hartrees-Bohrs-Radians)
 Mixed Optimization -- RFO/linear search
 Second derivative matrix not updated -- first step.
 The second derivative matrix:
                          R1        R2        A1
           R1           0.53377
           R2           0.00000   0.53377
           A1           0.00000   0.00000   0.16000
 ITU=  0
     Eigenvalues ---    0.16000   0.53377   0.53377
 RFO step:  Lambda=-1.38608902D-03 EMin= 1.60000000D-01
 Linear search not attempted -- first point.
 Iteration  1 RMS(Cart)=  0.05176052 RMS(Int)=  0.00124956
 Iteration  2 RMS(Cart)=  0.00091414 RMS(Int)=  0.00000031
 Iteration  3 RMS(Cart)=  0.00000034 RMS(Int)=  0.00000000
 Variable       Old X    -DE/DX   Delta X   Delta X   Delta X     New X
                                 (Linear)    (Quad)   (Total)
    R1        1.83303  -0.01017   0.00000  -0.01901  -0.01901   1.81403
    R2        1.83303  -0.01017   0.00000  -0.01901  -0.01901   1.81402
    A1        1.91063  -0.01270   0.00000  -0.07869  -0.07869   1.83194
         Item               Value     Threshold  Converged?
 Maximum Force            0.012700     0.000450     NO 
 RMS     Force            0.011079     0.000300     NO 
 Maximum Displacement     0.056191     0.001800     NO 
 RMS     Displacement     0.052078     0.001200     NO 
 Predicted change in Energy=-6.978366D-04
 GradGradGradGradGradGradGradGradGradGradGradGradGradGradGradGradGradGrad

                          Input orientation:                          
 ---------------------------------------------------------------------
 Center     Atomic      Atomic             Coordinates (Angstroms)
 Number     Number       Type             X           Y           Z
 ---------------------------------------------------------------------
      1          8           0       -2.557207    0.574685    0.278800
      2          1           0       -1.598007    0.551994    0.248619
      3          1           0       -2.841335    0.023662   -0.454089
 ---------------------------------------------------------------------
                    Distance matrix (angstroms):
                    1          2          3
     1  O    0.000000
     2  H    0.959943   0.000000
     3  H    0.959938   1.522760   0.000000
 Symmetry turned off by external request.
 Stoichiometry    H2O
 Framework group  CS[SG(H2O)]
 Deg. of freedom     3
 Full point group                 CS      NOp   2
 Rotational constants (GHZ):         826.0249070         432.5129991         283.8742545
 Standard basis: def2TZVP (5D, 7F)
    43 basis functions,    67 primitive gaussians,    48 cartesian basis functions
     5 alpha electrons        5 beta electrons
       nuclear repulsion energy         9.1676800097 Hartrees.
 NAtoms=    3 NActive=    3 NUniq=    3 SFac= 1.00D+00 NAtFMM=   60 NAOKFM=F Big=F
 Integral buffers will be    131072 words long.
 Raffenetti 2 integral format.
 Two-electron integral symmetry is turned off.
 ------------------------------------------------------------------------------
 Polarizable Continuum Model (PCM)
 =================================
 Model                : PCM.
 Atomic radii         : UFF (Universal Force Field).
 Polarization charges : Total charges.
 Charge compensation  : None.
 Solution method      : On-the-fly selection.
 Cavity type          : Scaled VdW (van der Waals Surface) (Alpha=1.100).
 Cavity algorithm     : GePol (No added spheres)
                        Default sphere list used, NSphG=    3.
                        Lebedev-Laikov grids with approx.  7.0 points / Ang**2.
                        Smoothing algorithm: York/Karplus (Gamma=1.0000).
                        Polarization charges: spherical gaussians, with
                                              point-specific exponents (IZeta= 3).
                        Self-potential: point-specific (ISelfS= 7).
                        Self-field    : sphere-specific E.n sum rule (ISelfD= 2).
 1st derivatives      : Analytical E(r).r(x)/FMM algorithm (CHGder, D1EAlg=3).
                        Cavity 1st derivative terms included.
 Solvent              : 1,2-EthaneDiol, Eps=  40.245000 Eps(inf)=   2.050051
 ------------------------------------------------------------------------------
 Spheres list:
 ISph  on   Nord     Re0    Alpha      Xe            Ye            Ze
    1   O      1    1.7500  1.100     -2.557207      0.574685      0.278800
    2   H      2    1.4430  1.100     -1.598007      0.551994      0.248619
    3   H      3    1.4430  1.100     -2.841335      0.023662     -0.454089
 ------------------------------------------------------------------------------
 One-electron integrals computed using PRISM.
   1 Symmetry operations used in ECPInt.
 ECPInt:  NShTT=     190 NPrTT=     556 LenC2=     191 LenP2D=     543.
 LDataN:  DoStor=T MaxTD1= 6 Len=  172
 NBasis=    43 RedAO= T EigKep=  8.40D-03  NBF=    43
 NBsUse=    43 1.00D-06 EigRej= -1.00D+00 NBFU=    43
 Initial guess from the checkpoint file:  "/oasis/scratch/comet/mayes/temp_project/water.chk"
 B after Tr=    -0.012523    0.010643    0.014156
         Rot=    1.000000   -0.000000    0.000000   -0.000000 Ang=   0.00 deg.
 ExpMin= 1.03D-01 ExpMax= 2.70D+04 ExpMxC= 9.22D+02 IAcc=3 IRadAn=         5 AccDes= 0.00D+00
 Harris functional with IExCor= 1009 and IRadAn=       5 diagonalized for initial guess.
 HarFok:  IExCor= 1009 AccDes= 0.00D+00 IRadAn=         5 IDoV= 1 UseB2=F ITyADJ=14
 ICtDFT=  3500011 ScaDFX=  1.000000  1.000000  1.000000  1.000000
 FoFCou: FMM=F IPFlag=           0 FMFlag=      100000 FMFlg1=           0
         NFxFlg=           0 DoJE=T BraDBF=F KetDBF=T FulRan=T
         wScrn=  0.000000 ICntrl=       500 IOpCl=  0 I1Cent=   200000004 NGrid=           0
         NMat0=    1 NMatS0=      1 NMatT0=    0 NMatD0=    1 NMtDS0=    0 NMtDT0=    0
 Symmetry not used in FoFCou.
 Keep R1 ints in memory in canonical form, NReq=21408112.
 Requested convergence on RMS density matrix=1.00D-08 within  32 cycles.
 Requested convergence on MAX density matrix=1.00D-06.
 Requested convergence on             energy=1.00D-06.
 No special actions if energy rises.
 Inv3:  Mode=1 IEnd=     1090827.
 Iteration    1 A*A^-1 deviation from unit magnitude is 3.11D-15 for    111.
 Iteration    1 A*A^-1 deviation from orthogonality  is 2.11D-15 for    407    229.
 Iteration    1 A^-1*A deviation from unit magnitude is 2.66D-15 for     69.
 Iteration    1 A^-1*A deviation from orthogonality  is 1.55D-15 for    452      2.
 Error on total polarization charges =  0.00393
 SCF Done:  E(RM062X) =  -76.4335605472     A.U. after    8 cycles
            NFock=  8  Conv=0.18D-08     -V/T= 2.0040
 QCSCF skips out because SCF is already converged.
   1 Symmetry operations used in ECPInt.
 ECPInt:  NShTT=     190 NPrTT=     556 LenC2=     191 LenP2D=     543.
 LDataN:  DoStor=T MaxTD1= 7 Len=  274
 D1PCM: PCM CHGder 1st derivatives, ID1Alg=3 FixD1E=F DoIter=F DoCFld=F I1PDM=0.
 Calling FoFJK, ICntrl=      2127 FMM=F ISym2X=0 I1Cent= 0 IOpClX= 0 NMat=1 NMatS=1 NMatT=0.
 -------------------------------------------------------------------
 Center     Atomic                   Forces (Hartrees/Bohr)
 Number     Number              X              Y              Z
 -------------------------------------------------------------------
      1        8          -0.001463500    0.001251979    0.001680268
      2        1           0.001969189   -0.000110126   -0.000149598
      3        1          -0.000505688   -0.001141853   -0.001530670
 -------------------------------------------------------------------
 Cartesian Forces:  Max     0.001969189 RMS     0.001262594

 GradGradGradGradGradGradGradGradGradGradGradGradGradGradGradGradGradGrad
 Berny optimization.
 Using GEDIIS/GDIIS optimizer.
 FormGI is forming the generalized inverse of G from B-inverse, IUseBI=4.
 Internal  Forces:  Max     0.001979303 RMS     0.001615143
 Search for a local minimum.
 Step number   2 out of a maximum of   20
 All quantities printed in internal units (Hartrees-Bohrs-Radians)
 Mixed Optimization -- RFO/linear search
 Update second derivatives using D2CorX and points    1    2
 DE= -6.73D-04 DEPred=-6.98D-04 R= 9.65D-01
 TightC=F SS=  1.41D+00  RLast= 8.32D-02 DXNew= 5.0454D-01 2.4947D-01
 Trust test= 9.65D-01 RLast= 8.32D-02 DXMaxT set to 3.00D-01
 The second derivative matrix:
                          R1        R2        A1
           R1           0.56082
           R2           0.02714   0.56100
           A1           0.01227   0.01235   0.15324
 ITU=  1  0
 Use linear search instead of GDIIS.
     Eigenvalues ---    0.15255   0.53377   0.58875
 RFO step:  Lambda=-1.12982079D-05 EMin= 1.52547447D-01
 Quartic linear search produced a step of -0.04067.
 Iteration  1 RMS(Cart)=  0.00209694 RMS(Int)=  0.00000210
 Iteration  2 RMS(Cart)=  0.00000229 RMS(Int)=  0.00000000
 Iteration  3 RMS(Cart)=  0.00000000 RMS(Int)=  0.00000000
 Variable       Old X    -DE/DX   Delta X   Delta X   Delta X     New X
                                 (Linear)    (Quad)   (Total)
    R1        1.81403   0.00197   0.00077   0.00260   0.00338   1.81740
    R2        1.81402   0.00198   0.00077   0.00262   0.00339   1.81741
    A1        1.83194  -0.00017   0.00320  -0.00506  -0.00186   1.83008
         Item               Value     Threshold  Converged?
 Maximum Force            0.001979     0.000450     NO 
 RMS     Force            0.001615     0.000300     NO 
 Maximum Displacement     0.002000     0.001800     NO 
 RMS     Displacement     0.002096     0.001200     NO 
 Predicted change in Energy=-6.839402D-06
 GradGradGradGradGradGradGradGradGradGradGradGradGradGradGradGradGradGrad

                          Input orientation:                          
 ---------------------------------------------------------------------
 Center     Atomic      Atomic             Coordinates (Angstroms)
 Number     Number       Type             X           Y           Z
 ---------------------------------------------------------------------
      1          8           0       -2.557898    0.575275    0.279585
      2          1           0       -1.596949    0.552002    0.248631
      3          1           0       -2.841703    0.023063   -0.454886
 ---------------------------------------------------------------------
                    Distance matrix (angstroms):
                    1          2          3
     1  O    0.000000
     2  H    0.961729   0.000000
     3  H    0.961733   1.524509   0.000000
 Symmetry turned off by external request.
 Stoichiometry    H2O
 Framework group  CS[SG(H2O)]
 Deg. of freedom     3
 Full point group                 CS      NOp   2
 Rotational constants (GHZ):         820.9585575         431.5213203         282.8477542
 Standard basis: def2TZVP (5D, 7F)
    43 basis functions,    67 primitive gaussians,    48 cartesian basis functions
     5 alpha electrons        5 beta electrons
       nuclear repulsion energy         9.1508571054 Hartrees.
 NAtoms=    3 NActive=    3 NUniq=    3 SFac= 1.00D+00 NAtFMM=   60 NAOKFM=F Big=F
 Integral buffers will be    131072 words long.
 Raffenetti 2 integral format.
 Two-electron integral symmetry is turned off.
 ------------------------------------------------------------------------------
 Polarizable Continuum Model (PCM)
 =================================
 Model                : PCM.
 Atomic radii         : UFF (Universal Force Field).
 Polarization charges : Total charges.
 Charge compensation  : None.
 Solution method      : On-the-fly selection.
 Cavity type          : Scaled VdW (van der Waals Surface) (Alpha=1.100).
 Cavity algorithm     : GePol (No added spheres)
                        Default sphere list used, NSphG=    3.
                        Lebedev-Laikov grids with approx.  7.0 points / Ang**2.
                        Smoothing algorithm: York/Karplus (Gamma=1.0000).
                        Polarization charges: spherical gaussians, with
                                              point-specific exponents (IZeta= 3).
                        Self-potential: point-specific (ISelfS= 7).
                        Self-field    : sphere-specific E.n sum rule (ISelfD= 2).
 1st derivatives      : Analytical E(r).r(x)/FMM algorithm (CHGder, D1EAlg=3).
                        Cavity 1st derivative terms included.
 Solvent              : 1,2-EthaneDiol, Eps=  40.245000 Eps(inf)=   2.050051
 ------------------------------------------------------------------------------
 Spheres list:
 ISph  on   Nord     Re0    Alpha      Xe            Ye            Ze
    1   O      1    1.7500  1.100     -2.557898      0.575275      0.279585
    2   H      2    1.4430  1.100     -1.596949      0.552002      0.248631
    3   H      3    1.4430  1.100     -2.841703      0.023063     -0.454886
 ------------------------------------------------------------------------------
 One-electron integrals computed using PRISM.
   1 Symmetry operations used in ECPInt.
 ECPInt:  NShTT=     190 NPrTT=     556 LenC2=     191 LenP2D=     543.
 LDataN:  DoStor=T MaxTD1= 6 Len=  172
 NBasis=    43 RedAO= T EigKep=  8.46D-03  NBF=    43
 NBsUse=    43 1.00D-06 EigRej= -1.00D+00 NBFU=    43
 Initial guess from the checkpoint file:  "/oasis/scratch/comet/mayes/temp_project/water.chk"
 B after Tr=    -0.000915    0.000776    0.001033
         Rot=    1.000000    0.000000   -0.000001    0.000000 Ang=  -0.00 deg.
 Keep R1 ints in memory in canonical form, NReq=21408112.
 Requested convergence on RMS density matrix=1.00D-08 within  32 cycles.
 Requested convergence on MAX density matrix=1.00D-06.
 Requested convergence on             energy=1.00D-06.
 No special actions if energy rises.
 Inv3:  Mode=1 IEnd=     1094448.
 Iteration    1 A*A^-1 deviation from unit magnitude is 3.77D-15 for    251.
 Iteration    1 A*A^-1 deviation from orthogonality  is 1.58D-15 for    330     71.
 Iteration    1 A^-1*A deviation from unit magnitude is 3.77D-15 for    251.
 Iteration    1 A^-1*A deviation from orthogonality  is 1.22D-15 for    376    103.
 Error on total polarization charges =  0.00394
 SCF Done:  E(RM062X) =  -76.4335680613     A.U. after    7 cycles
            NFock=  7  Conv=0.35D-08     -V/T= 2.0041
 QCSCF skips out because SCF is already converged.
   1 Symmetry operations used in ECPInt.
 ECPInt:  NShTT=     190 NPrTT=     556 LenC2=     191 LenP2D=     543.
 LDataN:  DoStor=T MaxTD1= 7 Len=  274
 D1PCM: PCM CHGder 1st derivatives, ID1Alg=3 FixD1E=F DoIter=F DoCFld=F I1PDM=0.
 Calling FoFJK, ICntrl=      2127 FMM=F ISym2X=0 I1Cent= 0 IOpClX= 0 NMat=1 NMatS=1 NMatT=0.
 -------------------------------------------------------------------
 Center     Atomic                   Forces (Hartrees/Bohr)
 Number     Number              X              Y              Z
 -------------------------------------------------------------------
      1        8          -0.000161717    0.000136612    0.000196058
      2        1           0.000183648   -0.000036201   -0.000051210
      3        1          -0.000021931   -0.000100412   -0.000144848
 -------------------------------------------------------------------
 Cartesian Forces:  Max     0.000196058 RMS     0.000130153

 GradGradGradGradGradGradGradGradGradGradGradGradGradGradGradGradGradGrad
 Berny optimization.
 Using GEDIIS/GDIIS optimizer.
 FormGI is forming the generalized inverse of G from B-inverse, IUseBI=4.
 Internal  Forces:  Max     0.000180835 RMS     0.000154080
 Search for a local minimum.
 Step number   3 out of a maximum of   20
 All quantities printed in internal units (Hartrees-Bohrs-Radians)
 Mixed Optimization -- En-DIIS/RFO-DIIS
 Update second derivatives using D2CorX and points    1    2    3
 DE= -7.51D-06 DEPred=-6.84D-06 R= 1.10D+00
 TightC=F SS=  1.41D+00  RLast= 5.14D-03 DXNew= 5.0454D-01 1.5408D-02
 Trust test= 1.10D+00 RLast= 5.14D-03 DXMaxT set to 3.00D-01
 The second derivative matrix:
                          R1        R2        A1
           R1           0.53920
           R2           0.00566   0.53967
           A1           0.02718   0.02731   0.14955
 ITU=  1  1  0
 Use linear search instead of GDIIS.
     Eigenvalues ---    0.14583   0.53377   0.54882
 RFO step:  Lambda=-3.15193983D-08 EMin= 1.45829527D-01
 Quartic linear search produced a step of  0.11170.
 Iteration  1 RMS(Cart)=  0.00033578 RMS(Int)=  0.00000011
 Iteration  2 RMS(Cart)=  0.00000013 RMS(Int)=  0.00000000
 Variable       Old X    -DE/DX   Delta X   Delta X   Delta X     New X
                                 (Linear)    (Quad)   (Total)
    R1        1.81740   0.00018   0.00038  -0.00001   0.00037   1.81777
    R2        1.81741   0.00018   0.00038  -0.00001   0.00037   1.81778
    A1        1.83008  -0.00008  -0.00021  -0.00045  -0.00066   1.82941
         Item               Value     Threshold  Converged?
 Maximum Force            0.000181     0.000450     YES
 RMS     Force            0.000154     0.000300     YES
 Maximum Displacement     0.000304     0.001800     YES
 RMS     Displacement     0.000336     0.001200     YES
 Predicted change in Energy=-9.134624D-08
 Optimization completed.
    -- Stationary point found.
                           ----------------------------
                           !   Optimized Parameters   !
                           ! (Angstroms and Degrees)  !
 --------------------------                            --------------------------
 ! Name  Definition              Value          Derivative Info.                !
 --------------------------------------------------------------------------------
 ! R1    R(1,2)                  0.9617         -DE/DX =    0.0002              !
 ! R2    R(1,3)                  0.9617         -DE/DX =    0.0002              !
 ! A1    A(2,1,3)              104.8556         -DE/DX =   -0.0001              !
 --------------------------------------------------------------------------------
 GradGradGradGradGradGradGradGradGradGradGradGradGradGradGradGradGradGrad

                          Input orientation:                          
 ---------------------------------------------------------------------
 Center     Atomic      Atomic             Coordinates (Angstroms)
 Number     Number       Type             X           Y           Z
 ---------------------------------------------------------------------
      1          8           0       -2.557898    0.575275    0.279585
      2          1           0       -1.596949    0.552002    0.248631
      3          1           0       -2.841703    0.023063   -0.454886
 ---------------------------------------------------------------------
                    Distance matrix (angstroms):
                    1          2          3
     1  O    0.000000
     2  H    0.961729   0.000000
     3  H    0.961733   1.524509   0.000000
 Symmetry turned off by external request.
 Stoichiometry    H2O
 Framework group  CS[SG(H2O)]
 Deg. of freedom     3
 Full point group                 CS      NOp   2
 Rotational constants (GHZ):         820.9585575         431.5213203         282.8477542

 **********************************************************************

            Population analysis using the SCF Density.

 **********************************************************************

 Alpha  occ. eigenvalues --  -19.62449  -1.13308  -0.60707  -0.47684  -0.40347
 Alpha virt. eigenvalues --    0.06562   0.13837   0.40342   0.45067   0.47212
 Alpha virt. eigenvalues --    0.49115   0.62113   0.63987   1.21754   1.24232
 Alpha virt. eigenvalues --    1.34562   1.57357   1.68368   1.80469   2.02985
 Alpha virt. eigenvalues --    2.10116   2.14735   2.33326   2.42309   2.65079
 Alpha virt. eigenvalues --    2.67307   2.68147   2.80576   3.66379   3.95919
 Alpha virt. eigenvalues --    5.12080   5.21989   5.39196   5.41083   5.47332
 Alpha virt. eigenvalues --    6.02694   6.20828   6.31119   6.37605   6.41607
 Alpha virt. eigenvalues --    6.89089   6.97960  43.40669
          Condensed to atoms (all electrons):
               1          2          3
     1  O    8.097438   0.310787   0.310787
     2  H    0.310787   0.352002  -0.022296
     3  H    0.310787  -0.022296   0.352002
 Mulliken charges:
               1
     1  O   -0.719013
     2  H    0.359506
     3  H    0.359506
 Sum of Mulliken charges =   0.00000
 Mulliken charges with hydrogens summed into heavy atoms:
               1
     1  O    0.000000
 Electronic spatial extent (au):  <R**2>=            258.4033
 Charge=              0.0000 electrons
 Dipole moment (field-independent basis, Debye):
    X=              1.3526    Y=             -1.1495    Z=             -1.5289  Tot=              2.3427
 Quadrupole moment (field-independent basis, Debye-Ang):
   XX=            -11.6338   YY=             -8.0654   ZZ=             -6.9354
   XY=              4.1475   XZ=              4.8598   YZ=             -0.0554
 Traceless Quadrupole moment (field-independent basis, Debye-Ang):
   XX=             -2.7556   YY=              0.8128   ZZ=              1.9428
   XY=              4.1475   XZ=              4.8598   YZ=             -0.0554
 Octapole moment (field-independent basis, Debye-Ang**2):
  XXX=             63.8648  YYY=            -12.5089  ZZZ=             -5.4769  XYY=             21.1337
  XXY=            -16.3405  XXZ=            -16.0851  XZZ=             17.5820  YZZ=             -3.8776
  YYZ=             -1.6499  XYZ=              0.5572
 Hexadecapole moment (field-independent basis, Debye-Ang**3):
 XXXX=           -292.6399 YYYY=            -20.2951 ZZZZ=             -9.4175 XXXY=             63.8333
 XXXZ=             53.8920 YYYX=             32.0094 YYYZ=             -2.9249 ZZZX=             13.9262
 ZZZY=             -2.9453 XXYY=            -59.1715 XXZZ=            -47.2211 YYZZ=             -4.7257
 XXYZ=             -3.1568 YYXZ=              4.4113 ZZXY=              9.9306
 N-N= 9.150857105429D+00 E-N=-1.991430714178D+02  KE= 7.612370027744D+01
 1\1\GINC-COMET-14-08\FOpt\RM062X\def2TZVP\H2O1\MAYES\06-Aug-2019\0\\# 
 m062x/Def2TZVP nosymm scf=xqc opt freq=NoRaman SCRF=(Solvent=1,2-Ethan
 eDiol,Read) CPHF=Grid=Fine\\water at same level of theory\\0,1\O,-2.55
 78980177,0.5752748625,0.2795848165\H,-1.5969488807,0.5520023784,0.2486
 312015\H,-2.8417031016,0.0230627591,-0.454886018\\Version=ES64L-G16Rev
 B.01\HF=-76.4335681\RMSD=3.478e-09\RMSF=1.302e-04\Dipole=0.5321432,-0.
 4522441,-0.6015279\Quadrupole=-2.0487,0.6042866,1.4444134,3.0835765,3.
 6131188,-0.0411783\PG=CS [SG(H2O1)]\\@


 ORIGINALITY CONSISTS NOT IN SAYING WHAT NO ONE HAS EVER SAID BEFORE, 
 BUT IN SAYING WHAT YOU THINK YOUR SELF.

                                    -- JAMES F. STEPHEN
 Job cpu time:       0 days  0 hours  4 minutes  7.7 seconds.
 Elapsed time:       0 days  0 hours  0 minutes 11.5 seconds.
 File lengths (MBytes):  RWF=     15 Int=      0 D2E=      0 Chk=      2 Scr=      1
 Normal termination of Gaussian 16 at Tue Aug  6 16:21:11 2019.
 Link1:  Proceeding to internal job step number  2.
 --------------------------------------------------------------------
 #N Geom=AllCheck Guess=TCheck SCRF=Check GenChk RM062X/def2TZVP Freq
 --------------------------------------------------------------------
 1/10=4,29=7,30=1,38=1,40=1/1,3;
 2/12=2,15=1,40=1/2;
 3/5=44,7=101,11=2,14=-4,25=1,30=1,70=2,71=2,74=-55,116=1,140=1/1,2,3;
 4/5=101/1;
 5/5=2,8=3,13=1,38=6,98=1/2,8;
 8/6=4,10=90,11=11/1;
 11/6=1,8=1,9=11,15=111,16=1,31=1/1,2,10;
 10/6=1,31=1,60=4/2;
 6/7=2,8=2,9=2,10=2,28=1/1;
 7/8=1,10=1,25=1,30=1/1,2,3,16;
 1/10=4,30=1/3;
 99//99;
 Structure from the checkpoint file:  "/oasis/scratch/comet/mayes/temp_project/water.chk"
 -----------------------------
 water at same level of theory
 -----------------------------
 Charge =  0 Multiplicity = 1
 Redundant internal coordinates found in file.  (old form).
 O,0,-2.5578980177,0.5752748625,0.2795848165
 H,0,-1.5969488807,0.5520023784,0.2486312015
 H,0,-2.8417031016,0.0230627591,-0.454886018
 Recover connectivity data from disk.

 GradGradGradGradGradGradGradGradGradGradGradGradGradGradGradGradGradGrad
 Berny optimization.
 Initialization pass.
                           ----------------------------
                           !    Initial Parameters    !
                           ! (Angstroms and Degrees)  !
 --------------------------                            --------------------------
 ! Name  Definition              Value          Derivative Info.                !
 --------------------------------------------------------------------------------
 ! R1    R(1,2)                  0.9617         calculate D2E/DX2 analytically  !
 ! R2    R(1,3)                  0.9617         calculate D2E/DX2 analytically  !
 ! A1    A(2,1,3)              104.8556         calculate D2E/DX2 analytically  !
 --------------------------------------------------------------------------------
 Trust Radius=3.00D-01 FncErr=1.00D-07 GrdErr=1.00D-07 EigMax=2.50D+02 EigMin=1.00D-04
 Number of steps in this run=      2 maximum allowed number of steps=      2.
 GradGradGradGradGradGradGradGradGradGradGradGradGradGradGradGradGradGrad

                          Input orientation:                          
 ---------------------------------------------------------------------
 Center     Atomic      Atomic             Coordinates (Angstroms)
 Number     Number       Type             X           Y           Z
 ---------------------------------------------------------------------
      1          8           0       -2.557898    0.575275    0.279585
      2          1           0       -1.596949    0.552002    0.248631
      3          1           0       -2.841703    0.023063   -0.454886
 ---------------------------------------------------------------------
                    Distance matrix (angstroms):
                    1          2          3
     1  O    0.000000
     2  H    0.961729   0.000000
     3  H    0.961733   1.524509   0.000000
 Symmetry turned off by external request.
 Stoichiometry    H2O
 Framework group  CS[SG(H2O)]
 Deg. of freedom     3
 Full point group                 CS      NOp   2
 Rotational constants (GHZ):         820.9585575         431.5213203         282.8477542
 Standard basis: def2TZVP (5D, 7F)
    43 basis functions,    67 primitive gaussians,    48 cartesian basis functions
     5 alpha electrons        5 beta electrons
       nuclear repulsion energy         9.1508571054 Hartrees.
 NAtoms=    3 NActive=    3 NUniq=    3 SFac= 1.00D+00 NAtFMM=   60 NAOKFM=F Big=F
 Integral buffers will be    131072 words long.
 Raffenetti 2 integral format.
 Two-electron integral symmetry is turned off.
 Force inversion solution in PCM.
 ------------------------------------------------------------------------------
 Polarizable Continuum Model (PCM)
 =================================
 Model                : PCM.
 Atomic radii         : UFF (Universal Force Field).
 Polarization charges : Total charges.
 Charge compensation  : None.
 Solution method      : Matrix inversion.
 Cavity type          : Scaled VdW (van der Waals Surface) (Alpha=1.100).
 Cavity algorithm     : GePol (No added spheres)
                        Default sphere list used, NSphG=    3.
                        Lebedev-Laikov grids with approx.  7.0 points / Ang**2.
                        Smoothing algorithm: York/Karplus (Gamma=1.0000).
                        Polarization charges: spherical gaussians, with
                                              point-specific exponents (IZeta= 3).
                        Self-potential: point-specific (ISelfS= 7).
                        Self-field    : sphere-specific E.n sum rule (ISelfD= 2).
 1st derivatives      : Analytical E(r).r(x)/FMM algorithm (CHGder, D1EAlg=3).
                        Cavity 1st derivative terms included.
 2nd derivatives      : Analytical E(r).r(xy)/FMM algorithm (CHGder, D2EAlg=3).
                        Cavity 2nd derivative terms included.
 Solvent              : 1,2-EthaneDiol, Eps=  40.245000 Eps(inf)=   2.050051
 ------------------------------------------------------------------------------
 Spheres list:
 ISph  on   Nord     Re0    Alpha      Xe            Ye            Ze
    1   O      1    1.7500  1.100     -2.557898      0.575275      0.279585
    2   H      2    1.4430  1.100     -1.596949      0.552002      0.248631
    3   H      3    1.4430  1.100     -2.841703      0.023063     -0.454886
 ------------------------------------------------------------------------------
 One-electron integrals computed using PRISM.
   1 Symmetry operations used in ECPInt.
 ECPInt:  NShTT=     190 NPrTT=     556 LenC2=     191 LenP2D=     543.
 LDataN:  DoStor=T MaxTD1= 6 Len=  172
 NBasis=    43 RedAO= T EigKep=  8.46D-03  NBF=    43
 NBsUse=    43 1.00D-06 EigRej= -1.00D+00 NBFU=    43
 Initial guess from the checkpoint file:  "/oasis/scratch/comet/mayes/temp_project/water.chk"
 B after Tr=     0.000000    0.000000    0.000000
         Rot=    1.000000    0.000000    0.000000    0.000000 Ang=   0.00 deg.
 Keep R1 ints in memory in canonical form, NReq=21408112.
 Requested convergence on RMS density matrix=1.00D-08 within  32 cycles.
 Requested convergence on MAX density matrix=1.00D-06.
 Requested convergence on             energy=1.00D-06.
 No special actions if energy rises.
 Inv3:  Mode=1 IEnd=     1094448.
 Iteration    1 A*A^-1 deviation from unit magnitude is 3.33D-15 for    251.
 Iteration    1 A*A^-1 deviation from orthogonality  is 1.68D-15 for    330     71.
 Iteration    1 A^-1*A deviation from unit magnitude is 3.77D-15 for    251.
 Iteration    1 A^-1*A deviation from orthogonality  is 1.55D-15 for    376    103.
 Error on total polarization charges =  0.00394
 SCF Done:  E(RM062X) =  -76.4335680613     A.U. after    1 cycles
            NFock=  1  Conv=0.27D-09     -V/T= 2.0041
 QCSCF skips out because SCF is already converged.
 DoSCS=F DFT=T ScalE2(SS,OS)=  1.000000  1.000000
 Range of M.O.s used for correlation:     1    43
 NBasis=    43 NAE=     5 NBE=     5 NFC=     0 NFV=     0
 NROrb=     43 NOA=     5 NOB=     5 NVA=    38 NVB=    38
   1 Symmetry operations used in ECPInt.
 ECPInt:  NShTT=     190 NPrTT=     556 LenC2=     191 LenP2D=     543.
 LDataN:  DoStor=T MaxTD1= 7 Len=  274
 Symmetrizing basis deriv contribution to polar:
 IMax=3 JMax=2 DiffMx= 0.00D+00
 G2DrvN: will do     4 centers at a time, making    1 passes.
 Calling FoFCou, ICntrl=  3107 FMM=F I1Cent=   0 AccDes= 0.00D+00.
 NEqPCM:  Using equilibrium solvation (IEInf=0, Eps=  40.2450, EpsInf=   2.0501)
 G2PCM: DoFxE=T DoFxN=T DoGrad=T DoDP/DQ/DG/TGxP=FFFF NFrqRd=   0 IEInf=0 SqF1=F DoCFld=F IF1Alg=4.
 End of G2Drv F.D. properties file   721 does not exist.
 End of G2Drv F.D. properties file   722 does not exist.
 End of G2Drv F.D. properties file   788 does not exist.
          IDoAtm=111
 NEqPCM:  Using equilibrium solvation (IEInf=0, Eps=  40.2450, EpsInf=   2.0501)
          Differentiating once with respect to electric field.
                with respect to dipole field.
          Differentiating once with respect to nuclear coordinates.
 Keep R1 ints in memory in canonical form, NReq=21352155.
          There are    12 degrees of freedom in the 1st order CPHF.  IDoFFX=6 NUNeed=     3.
      9 vectors produced by pass  0 Test12= 1.58D-15 8.33D-09 XBig12= 2.16D+00 7.51D-01.
 AX will form     9 AO Fock derivatives at one time.
      9 vectors produced by pass  1 Test12= 1.58D-15 8.33D-09 XBig12= 1.01D-01 1.12D-01.
      9 vectors produced by pass  2 Test12= 1.58D-15 8.33D-09 XBig12= 1.36D-03 1.33D-02.
      9 vectors produced by pass  3 Test12= 1.58D-15 8.33D-09 XBig12= 1.21D-05 1.11D-03.
      9 vectors produced by pass  4 Test12= 1.58D-15 8.33D-09 XBig12= 3.80D-08 8.79D-05.
      8 vectors produced by pass  5 Test12= 1.58D-15 8.33D-09 XBig12= 1.01D-10 3.77D-06.
      4 vectors produced by pass  6 Test12= 1.58D-15 8.33D-09 XBig12= 2.16D-13 1.69D-07.
      1 vectors produced by pass  7 Test12= 1.58D-15 8.33D-09 XBig12= 6.48D-16 1.18D-08.
 InvSVY:  IOpt=1 It=  1 EMax= 4.44D-16
 Solved reduced A of dimension    58 with     9 vectors.
 Isotropic polarizability for W=    0.000000        7.18 Bohr**3.
 End of Minotr F.D. properties file   721 does not exist.
 End of Minotr F.D. properties file   722 does not exist.
 End of Minotr F.D. properties file   788 does not exist.

 **********************************************************************

            Population analysis using the SCF Density.

 **********************************************************************

 Alpha  occ. eigenvalues --  -19.62449  -1.13308  -0.60707  -0.47684  -0.40347
 Alpha virt. eigenvalues --    0.06562   0.13837   0.40342   0.45067   0.47212
 Alpha virt. eigenvalues --    0.49115   0.62113   0.63987   1.21754   1.24232
 Alpha virt. eigenvalues --    1.34562   1.57357   1.68368   1.80469   2.02985
 Alpha virt. eigenvalues --    2.10116   2.14735   2.33326   2.42309   2.65079
 Alpha virt. eigenvalues --    2.67307   2.68147   2.80576   3.66379   3.95919
 Alpha virt. eigenvalues --    5.12080   5.21989   5.39196   5.41083   5.47332
 Alpha virt. eigenvalues --    6.02694   6.20828   6.31119   6.37605   6.41607
 Alpha virt. eigenvalues --    6.89089   6.97960  43.40669
          Condensed to atoms (all electrons):
               1          2          3
     1  O    8.097438   0.310787   0.310787
     2  H    0.310787   0.352002  -0.022296
     3  H    0.310787  -0.022296   0.352002
 Mulliken charges:
               1
     1  O   -0.719013
     2  H    0.359506
     3  H    0.359506
 Sum of Mulliken charges =  -0.00000
 Mulliken charges with hydrogens summed into heavy atoms:
               1
     1  O   -0.000000
 APT charges:
               1
     1  O   -0.668461
     2  H    0.334308
     3  H    0.334153
 Sum of APT charges =   0.00000
 APT charges with hydrogens summed into heavy atoms:
               1
     1  O    0.000000
 Electronic spatial extent (au):  <R**2>=            258.4033
 Charge=              0.0000 electrons
 Dipole moment (field-independent basis, Debye):
    X=              1.3526    Y=             -1.1495    Z=             -1.5289  Tot=              2.3427
 Quadrupole moment (field-independent basis, Debye-Ang):
   XX=            -11.6338   YY=             -8.0654   ZZ=             -6.9354
   XY=              4.1475   XZ=              4.8598   YZ=             -0.0554
 Traceless Quadrupole moment (field-independent basis, Debye-Ang):
   XX=             -2.7556   YY=              0.8128   ZZ=              1.9428
   XY=              4.1475   XZ=              4.8598   YZ=             -0.0554
 Octapole moment (field-independent basis, Debye-Ang**2):
  XXX=             63.8648  YYY=            -12.5089  ZZZ=             -5.4769  XYY=             21.1337
  XXY=            -16.3405  XXZ=            -16.0851  XZZ=             17.5820  YZZ=             -3.8776
  YYZ=             -1.6499  XYZ=              0.5572
 Hexadecapole moment (field-independent basis, Debye-Ang**3):
 XXXX=           -292.6399 YYYY=            -20.2951 ZZZZ=             -9.4175 XXXY=             63.8333
 XXXZ=             53.8920 YYYX=             32.0094 YYYZ=             -2.9249 ZZZX=             13.9262
 ZZZY=             -2.9453 XXYY=            -59.1715 XXZZ=            -47.2211 YYZZ=             -4.7257
 XXYZ=             -3.1568 YYXZ=              4.4113 ZZXY=              9.9306
 N-N= 9.150857105429D+00 E-N=-1.991430713699D+02  KE= 7.612370025130D+01
  Exact polarizability:   8.140   0.445   6.438   0.592   0.886   6.951
 Approx polarizability:   7.603   0.469   5.697   0.624   1.018   6.286
   1 Symmetry operations used in ECPInt.
 ECPInt:  NShTT=     190 NPrTT=     556 LenC2=     191 LenP2D=     543.
 LDataN:  DoStor=T MaxTD1= 8 Len=  415
 D2PCM: PCM CHGder 2nd derivatives, FixD1E=F FixD2E=F DoIter=F DoCFld=F I1PDM=0
 Calling FoFJK, ICntrl=    100127 FMM=F ISym2X=0 I1Cent= 0 IOpClX= 0 NMat=1 NMatS=1 NMatT=0.
 Full mass-weighted force constant matrix:
 Low frequencies ---  -69.5643  -63.8220   -0.0011    0.0012    0.0013   45.1042
 Low frequencies --- 1602.9753 3852.1654 3944.5753
 Diagonal vibrational polarizability:
        0.5591172       0.3319324       0.5866476
 Harmonic frequencies (cm**-1), IR intensities (KM/Mole), Raman scattering
 activities (A**4/AMU), depolarization ratios for plane and unpolarized
 incident light, reduced masses (AMU), force constants (mDyne/A),
 and normal coordinates:
                      1                      2                      3
                      A                      A                      A
 Frequencies --   1602.9747              3852.1650              3944.5752
 Red. masses --      1.0823                 1.0455                 1.0822
 Frc consts  --      1.6385                 9.1409                 9.9211
 IR Inten    --    116.6844                30.9655               115.3367
  Atom  AN      X      Y      Z        X      Y      Z        X      Y      Z
     1   8    -0.04   0.03   0.05    -0.03   0.02   0.03    -0.06  -0.02  -0.03
     2   1    -0.03  -0.42  -0.56     0.71   0.01   0.01     0.70  -0.02  -0.02
     3   1     0.67  -0.13  -0.17    -0.25  -0.40  -0.53     0.21   0.41   0.54

 -------------------
 - Thermochemistry -
 -------------------
 Temperature   298.150 Kelvin.  Pressure   1.00000 Atm.
 Atom     1 has atomic number  8 and mass  15.99491
 Atom     2 has atomic number  1 and mass   1.00783
 Atom     3 has atomic number  1 and mass   1.00783
 Molecular mass:    18.01056 amu.
 Principal axes and moments of inertia in atomic units:
                           1         2         3
     Eigenvalues --     2.19833   4.18228   6.38061
           X            0.81649  -0.57736   0.00000
           Y            0.34696   0.49067   0.79929
           Z            0.46147   0.65261  -0.60095
 This molecule is an asymmetric top.
 Rotational symmetry number  1.
 Rotational temperatures (Kelvin)     39.39980    20.70976    13.57455
 Rotational constants (GHZ):         820.95856   431.52132   282.84775
 Zero-point vibrational energy      56222.8 (Joules/Mol)
                                   13.43757 (Kcal/Mol)
 Vibrational temperatures:   2306.32  5542.41  5675.36
          (Kelvin)
 
 Zero-point correction=                           0.021414 (Hartree/Particle)
 Thermal correction to Energy=                    0.024250
 Thermal correction to Enthalpy=                  0.025194
 Thermal correction to Gibbs Free Energy=         0.003117
 Sum of electronic and zero-point Energies=            -76.412154
 Sum of electronic and thermal Energies=               -76.409318
 Sum of electronic and thermal Enthalpies=             -76.408374
 Sum of electronic and thermal Free Energies=          -76.430451
 
                     E (Thermal)             CV                S
                      KCal/Mol        Cal/Mol-Kelvin    Cal/Mol-Kelvin
 Total                   15.217              6.014             46.465
 Electronic               0.000              0.000              0.000
 Translational            0.889              2.981             34.608
 Rotational               0.889              2.981             11.849
 Vibrational             13.440              0.052              0.008
                       Q            Log10(Q)             Ln(Q)
 Total Bot       0.368264D-01         -1.433841         -3.301541
 Total V=0       0.260594D+09          8.415965         19.378475
 Vib (Bot)       0.141379D-09         -9.849616        -22.679578
 Vib (V=0)       0.100044D+01          0.000190          0.000437
 Electronic      0.100000D+01          0.000000          0.000000
 Translational   0.300431D+07          6.477745         14.915559
 Rotational      0.867022D+02          1.938030          4.462479
 -------------------------------------------------------------------
 Center     Atomic                   Forces (Hartrees/Bohr)
 Number     Number              X              Y              Z
 -------------------------------------------------------------------
      1        8          -0.000161718    0.000136612    0.000196058
      2        1           0.000183648   -0.000036201   -0.000051210
      3        1          -0.000021931   -0.000100411   -0.000144847
 -------------------------------------------------------------------
 Cartesian Forces:  Max     0.000196058 RMS     0.000130153
 FormGI is forming the generalized inverse of G from B-inverse, IUseBI=4.

 GradGradGradGradGradGradGradGradGradGradGradGradGradGradGradGradGradGrad
 Berny optimization.
 Internal  Forces:  Max     0.000180835 RMS     0.000154079
 Search for a local minimum.
 Step number   1 out of a maximum of    2
 All quantities printed in internal units (Hartrees-Bohrs-Radians)
 Second derivative matrix not updated -- analytic derivatives used.
 The second derivative matrix:
                          R1        R2        A1
           R1           0.54597
           R2          -0.00374   0.54634
           A1           0.02809   0.02822   0.15306
 ITU=  0
     Eigenvalues ---    0.14903   0.54643   0.54991
 Angle between quadratic step and forces=  34.24 degrees.
 Linear search not attempted -- first point.
 Iteration  1 RMS(Cart)=  0.00032959 RMS(Int)=  0.00000011
 Iteration  2 RMS(Cart)=  0.00000012 RMS(Int)=  0.00000000
 Variable       Old X    -DE/DX   Delta X   Delta X   Delta X     New X
                                 (Linear)    (Quad)   (Total)
    R1        1.81740   0.00018   0.00000   0.00037   0.00037   1.81777
    R2        1.81741   0.00018   0.00000   0.00037   0.00037   1.81778
    A1        1.83008  -0.00008   0.00000  -0.00065  -0.00065   1.82943
         Item               Value     Threshold  Converged?
 Maximum Force            0.000181     0.000450     YES
 RMS     Force            0.000154     0.000300     YES
 Maximum Displacement     0.000300     0.001800     YES
 RMS     Displacement     0.000330     0.001200     YES
 Predicted change in Energy=-9.139628D-08
 Optimization completed.
    -- Stationary point found.
                           ----------------------------
                           !   Optimized Parameters   !
                           ! (Angstroms and Degrees)  !
 --------------------------                            --------------------------
 ! Name  Definition              Value          Derivative Info.                !
 --------------------------------------------------------------------------------
 ! R1    R(1,2)                  0.9617         -DE/DX =    0.0002              !
 ! R2    R(1,3)                  0.9617         -DE/DX =    0.0002              !
 ! A1    A(2,1,3)              104.8556         -DE/DX =   -0.0001              !
 --------------------------------------------------------------------------------
 GradGradGradGradGradGradGradGradGradGradGradGradGradGradGradGradGradGrad


 ----------------------------------------------------------------------

 Electric dipole moment (input orientation):
 (Debye = 10**-18 statcoulomb cm , SI units = C m)
                  (au)            (Debye)         (10**-30 SI)
   Tot        0.921703D+00      0.234274D+01      0.781453D+01
   x          0.532143D+00      0.135257D+01      0.451170D+01
   y         -0.452244D+00     -0.114949D+01     -0.383429D+01
   z         -0.601528D+00     -0.152893D+01     -0.509997D+01

 Dipole polarizability, Alpha (input orientation).
 (esu units = cm**3 , SI units = C**2 m**2 J**-1)
 Alpha(0;0):
               (au)            (10**-24 esu)      (10**-40 SI)
   iso        0.717627D+01      0.106341D+01      0.118321D+01
   aniso      0.250719D+01      0.371527D+00      0.413379D+00
   xx         0.813987D+01      0.120620D+01      0.134208D+01
   yx         0.444507D+00      0.658691D-01      0.732893D-01
   yy         0.643770D+01      0.953968D+00      0.106143D+01
   zx         0.591590D+00      0.876645D-01      0.975400D-01
   zy         0.886246D+00      0.131328D+00      0.146122D+00
   zz         0.695124D+01      0.103007D+01      0.114610D+01

 ----------------------------------------------------------------------

 Dipole orientation:
     8         -3.36739650          0.15905481         -3.66895223
     1         -1.95904395         -0.14334852         -2.56077569
     1         -4.77574107          0.46148558         -2.56076022

 Electric dipole moment (dipole orientation):
 (Debye = 10**-18 statcoulomb cm , SI units = C m)
                  (au)            (Debye)         (10**-30 SI)
   Tot        0.921703D+00      0.234274D+01      0.781453D+01
   x          0.000000D+00      0.000000D+00      0.000000D+00
   y          0.000000D+00      0.000000D+00      0.000000D+00
   z          0.921703D+00      0.234274D+01      0.781453D+01

 Dipole polarizability, Alpha (dipole orientation).
 (esu units = cm**3 , SI units = C**2 m**2 J**-1)
 Alpha(0;0):
               (au)            (10**-24 esu)      (10**-40 SI)
   iso        0.717627D+01      0.106341D+01      0.118321D+01
   aniso      0.250719D+01      0.371527D+00      0.413379D+00
   xx         0.853604D+01      0.126491D+01      0.140740D+01
   yx        -0.593084D+00     -0.878860D-01     -0.977864D-01
   yy         0.589902D+01      0.874145D+00      0.972617D+00
   zx        -0.309899D-03     -0.459223D-04     -0.510954D-04
   zy        -0.231094D-03     -0.342445D-04     -0.381022D-04
   zz         0.709374D+01      0.105118D+01      0.116960D+01

 ----------------------------------------------------------------------
 1\1\GINC-COMET-14-08\Freq\RM062X\def2TZVP\H2O1\MAYES\06-Aug-2019\0\\#N
  Geom=AllCheck Guess=TCheck SCRF=Check GenChk RM062X/def2TZVP Freq\\wa
 ter at same level of theory\\0,1\O,-2.5578980177,0.5752748625,0.279584
 8165\H,-1.5969488807,0.5520023784,0.2486312015\H,-2.8417031016,0.02306
 27591,-0.454886018\\Version=ES64L-G16RevB.01\HF=-76.4335681\RMSD=2.673
 e-10\RMSF=1.302e-04\ZeroPoint=0.0214141\Thermal=0.0242499\Dipole=0.532
 1432,-0.4522441,-0.6015279\DipoleDeriv=-0.61103,-0.040806,-0.0543516,-
 0.0409011,-0.7346171,0.1291194,-0.0542698,0.1290913,-0.6597359,0.25479
 43,0.0237388,0.0315656,0.0386309,0.3856604,-0.0400425,0.0513697,-0.040
 1199,0.36247,0.3562357,0.0170672,0.0227859,0.0022702,0.3489567,-0.0890
 769,0.0029001,-0.0889714,0.2972658\Polar=8.1398734,0.4445068,6.4376954
 ,0.5915897,0.8862456,6.951239\Quadrupole=-2.0487,0.6042866,1.4444134,3
 .0835765,3.6131188,-0.0411784\PG=CS [SG(H2O1)]\NImag=0\\0.61357063,0.0
 6546315,0.19366850,0.08705905,0.25801913,0.34304456,-0.53077234,-0.001
 96769,-0.00261056,0.54649466,0.03190702,-0.01595146,-0.02143142,-0.002
 90194,0.01645246,0.04245724,-0.02145538,-0.02835109,-0.00389676,0.0220
 6272,0.02931671,-0.08279829,-0.06349547,-0.08444849,-0.01572232,-0.029
 00508,-0.03856047,0.09852062,-0.09737017,-0.17771704,-0.23658772,0.004
 86963,-0.00050101,-0.00060734,0.09250054,0.17821805,-0.12951629,-0.236
 56375,-0.31469347,0.00650732,-0.00063130,-0.00096561,0.12300897,0.2371
 9506,0.31565908\\0.00016172,-0.00013661,-0.00019606,-0.00018365,0.0000
 3620,0.00005121,0.00002193,0.00010041,0.00014485\\\@


 TELEVISION IS CALLED A MEDIUM BECAUSE IT ISN'T
 RARE, AND IT ISN'T WELL DONE.
 Job cpu time:       0 days  0 hours  3 minutes 40.3 seconds.
 Elapsed time:       0 days  0 hours  0 minutes  9.8 seconds.
 File lengths (MBytes):  RWF=     15 Int=      0 D2E=      0 Chk=      3 Scr=      1
 Normal termination of Gaussian 16 at Tue Aug  6 16:21:22 2019.
