 Entering Gaussian System, Link 0=g16
 Initial command:
 /nopt/nrel/apps/gaussian/g16B/g16/l1.exe "/dev/shm/Gau-48919.inp" -scrdir="/dev/shm/"
 Default is to use a total of  36 processors:
                               36 via shared-memory
                                1 via Linda
 Entering Link 1 = /nopt/nrel/apps/gaussian/g16B/g16/l1.exe PID=     48921.
  
 Copyright (c) 1988-2017, Gaussian, Inc.  All Rights Reserved.
  
 This is part of the Gaussian(R) 16 program.  It is based on
 the Gaussian(R) 09 system (copyright 2009, Gaussian, Inc.),
 the Gaussian(R) 03 system (copyright 2003, Gaussian, Inc.),
 the Gaussian(R) 98 system (copyright 1998, Gaussian, Inc.),
 the Gaussian(R) 94 system (copyright 1995, Gaussian, Inc.),
 the Gaussian 92(TM) system (copyright 1992, Gaussian, Inc.),
 the Gaussian 90(TM) system (copyright 1990, Gaussian, Inc.),
 the Gaussian 88(TM) system (copyright 1988, Gaussian, Inc.),
 the Gaussian 86(TM) system (copyright 1986, Carnegie Mellon
 University), and the Gaussian 82(TM) system (copyright 1983,
 Carnegie Mellon University). Gaussian is a federally registered
 trademark of Gaussian, Inc.
  
 This software contains proprietary and confidential information,
 including trade secrets, belonging to Gaussian, Inc.
  
 This software is provided under written license and may be
 used, copied, transmitted, or stored only in accord with that
 written license.
  
 The following legend is applicable only to US Government
 contracts under FAR:
  
                    RESTRICTED RIGHTS LEGEND
  
 Use, reproduction and disclosure by the US Government is
 subject to restrictions as set forth in subparagraphs (a)
 and (c) of the Commercial Computer Software - Restricted
 Rights clause in FAR 52.227-19.
  
 Gaussian, Inc.
 340 Quinnipiac St., Bldg. 40, Wallingford CT 06492
  
  
 ---------------------------------------------------------------
 Warning -- This program may not be used in any manner that
 competes with the business of Gaussian, Inc. or will provide
 assistance to any competitor of Gaussian, Inc.  The licensee
 of this program is prohibited from giving any competitor of
 Gaussian, Inc. access to this program.  By using this program,
 the user acknowledges that Gaussian, Inc. is engaged in the
 business of creating and licensing software in the field of
 computational chemistry and represents and warrants to the
 licensee that it is not a competitor of Gaussian, Inc. and that
 it will not use this program in any manner prohibited above.
 ---------------------------------------------------------------
  

 Cite this work as:
 Gaussian 16, Revision B.01,
 M. J. Frisch, G. W. Trucks, H. B. Schlegel, G. E. Scuseria, 
 M. A. Robb, J. R. Cheeseman, G. Scalmani, V. Barone, 
 G. A. Petersson, H. Nakatsuji, X. Li, M. Caricato, A. V. Marenich, 
 J. Bloino, B. G. Janesko, R. Gomperts, B. Mennucci, H. P. Hratchian, 
 J. V. Ortiz, A. F. Izmaylov, J. L. Sonnenberg, D. Williams-Young, 
 F. Ding, F. Lipparini, F. Egidi, J. Goings, B. Peng, A. Petrone, 
 T. Henderson, D. Ranasinghe, V. G. Zakrzewski, J. Gao, N. Rega, 
 G. Zheng, W. Liang, M. Hada, M. Ehara, K. Toyota, R. Fukuda, 
 J. Hasegawa, M. Ishida, T. Nakajima, Y. Honda, O. Kitao, H. Nakai, 
 T. Vreven, K. Throssell, J. A. Montgomery, Jr., J. E. Peralta, 
 F. Ogliaro, M. J. Bearpark, J. J. Heyd, E. N. Brothers, K. N. Kudin, 
 V. N. Staroverov, T. A. Keith, R. Kobayashi, J. Normand, 
 K. Raghavachari, A. P. Rendell, J. C. Burant, S. S. Iyengar, 
 J. Tomasi, M. Cossi, J. M. Millam, M. Klene, C. Adamo, R. Cammi, 
 J. W. Ochterski, R. L. Martin, K. Morokuma, O. Farkas, 
 J. B. Foresman, and D. J. Fox, Gaussian, Inc., Wallingford CT, 2016.
 
 ******************************************
 Gaussian 16:  ES64L-G16RevB.01 20-Dec-2017
                21-Sep-2019 
 ******************************************
 %RWF=/dev/shm/,5GB,/tmp/scratch/1419331/,-1
 %NoSave
 %OldChk=2011shi_fig5cts_origts_ircf.chk
 %Chk=/dev/shm/2011shi_fig5cts_origts_ircf_opt.chk
 Copying data from "2011shi_fig5cts_origts_ircf.chk" to current chk file "/dev/shm/2011shi_fig5cts_origts_ircf_opt.chk"
 IOpt=  2 FromEx=T IUOpen= 4 IOptOp= 5 NList=   0 IFRang= 0 IUIn= 4 IUOut= 2.
 Default route: CacheSize=180224 MaxDisk=256GB
 ----------------------------------------------------------------------
 # b3lyp//GEN pseudo=read nosymm scf=(xqc,maxconventionalcycles=400) op
 t freq=NoRaman CPHF=Grid=Fine guess=read geom=allcheck
 ----------------------------------------------------------------------
 1/4=180224,18=20,19=15,26=3,29=7,38=1/1,3;
 2/4=180224,9=110,12=2,15=1,40=1/2;
 3/4=180224,5=7,11=2,14=-4,16=1,17=8,25=1,30=1,71=1,74=-5,116=-2/1,2,3;
 4/4=180224,5=1/1;
 5/4=180224,5=2,8=3,13=1,38=6,85=400/2,8;
 6/4=180224,7=2,8=2,9=2,10=2,28=1/1;
 7/4=180224,30=1/1,2,3,16;
 1/4=180224,18=20,19=15,26=3/3(2);
 2/4=180224,9=110,15=1/2;
 99/4=180224/99;
 2/4=180224,9=110,15=1/2;
 3/4=180224,5=7,6=1,11=2,14=-2,16=1,17=8,25=1,30=1,71=1,74=-5,82=7/1,2,3;
 4/4=180224,5=5,16=3,69=1/1;
 5/4=180224,5=2,8=3,13=1,38=5,85=400/2,8;
 7/4=180224,30=1/1,2,3,16;
 1/4=180224,18=20,19=15,26=3/3(-5);
 2/4=180224,9=110,15=1/2;
 6/4=180224,7=2,8=2,9=2,10=2,19=2,28=1/1;
 99/4=180224,9=1/99;
 Structure from the checkpoint file:  "/dev/shm/2011shi_fig5cts_origts_ircf_opt.chk"
 ----------------------------------------------------------
 From SI of http://dx.doi.org/10.1016/j.polymer.2011.05.055
 ----------------------------------------------------------
 Charge =  0 Multiplicity = 1
 No Z-Matrix found in chk file; cartesian coordinates used.
  C                                                -5.210101915366      0.842470854501      0.179436855047
  O                                                -6.207449420166     -0.063690870368      0.192505192475
  C                                                -7.552113003344      0.462985025257      0.197845684814
  C                                                -8.506723391909     -0.709110874471      0.214219197958
  O                                                -5.401203993215      2.035562009966      0.167627446468
  H                                                -7.686245067587      1.087412823052     -0.686845174607
  H                                                -7.673508340973      1.101491400881      1.074281185726
  H                                                -8.357714999692     -1.324114598675      1.102786503794
  H                                                -8.372072232122     -1.337311452625     -0.667389164906
  H                                                -9.535345791535     -0.343827968965      0.219870009212
  O                                                 0.188822123873     -2.755568629765      0.056764197867
  C                                                 0.031455798706     -1.575672744557     -0.113962786469
  C                                                -1.293439730852     -0.886318748067      0.074356276422
  C                                                -2.411139746568     -1.714228078530      0.156867164310
  C                                                -3.687991235810     -1.174871579954      0.195173067709
  C                                                -3.861715825167      0.208277776860      0.173590082431
  C                                                -2.739286087212      1.039944291986      0.132363789213
  C                                                -1.465156518658      0.499668062574      0.077161175354
  H                                                -0.604777543403      1.151302307160      0.025018926756
  H                                                -2.887623883130      2.111264613573      0.128801141445
  H                                                -4.550622087331     -1.824103658927      0.233883685205
  H                                                -2.262672188335     -2.785254107396      0.163131374417
  O                                                 1.108872756251     -0.616378358501      1.148445967070
  C                                                 0.941288001079     -0.977956186525      2.504068569734
  C                                                 1.848656117892     -2.124180498346      2.923514282541
  H                                                 1.122153742786     -0.096392140849      3.127685482335
  H                                                -0.108319174221     -1.260766594065      2.642552318275
  H                                                 1.644685886467     -3.011995123482      2.325877667420
  H                                                 2.896967736908     -1.847958377421      2.797321974170
  H                                                 1.682588878697     -2.365486963947      3.976799175285
  Ti                                                2.393943882793      0.263978630669     -0.007945330953
  O                                                 0.861129628623     -0.880215354812     -1.122404606355
  C                                                 1.026236287319     -1.592344242915     -2.366156618529
  C                                                -0.031693405676     -1.184931171870     -3.372693025915
  H                                                 0.123598268592     -1.728243990278     -4.307897913659
  H                                                 0.020638939614     -0.116198095473     -3.586185298649
  H                                                -1.035532493762     -1.413739104099     -3.012621818361
  H                                                 0.991476404816     -2.659387492786     -2.146187924264
  H                                                 2.028416362114     -1.347809185206     -2.711942976658
  O                                                 1.852710870191      1.846495288196     -0.675562209571
  C                                                 1.723701438122      2.639911088773     -1.833677061655
  C                                                 1.700175418507      4.119578022798     -1.486202513103
  H                                                 2.634225169393      4.421209390975     -1.009542094534
  H                                                 0.877745826440      4.342019054245     -0.804675428096
  H                                                 1.567295347635      4.714960866575     -2.392603921967
  H                                                 0.793796755451      2.360765374882     -2.343085959136
  H                                                 2.551552598590      2.423462143346     -2.518640699169
  O                                                 3.401886471355      0.759094705064      1.386913279980
  C                                                 3.638750554084      1.785908844178      2.313912877093
  C                                                 5.130669563775      1.965576007049      2.531619721412
  H                                                 5.624185512540      2.238154563174      1.597351161884
  H                                                 5.577246259616      1.040858668640      2.900410073138
  H                                                 5.316769123781      2.755179539434      3.263354720000
  H                                                 3.148148368912      1.529482110250      3.260199250863
  H                                                 3.186867834409      2.715583109442      1.947743123222
  O                                                 3.658629290215     -0.471141377116     -1.075982912771
  C                                                 5.062442460190     -0.637389458538     -1.095881549165
  C                                                 5.439776610419     -2.088546969873     -1.341949287235
  H                                                 5.044631963492     -2.435255533869     -2.298185961507
  H                                                 5.041892700688     -2.729448376879     -0.553697088966
  H                                                 6.527018461766     -2.197037835456     -1.359690481542
  H                                                 5.478571603737     -0.289441645934     -0.143764637528
  H                                                 5.471696723843     -0.001954764588     -1.889571567075
 Recover connectivity data from disk.

 GradGradGradGradGradGradGradGradGradGradGradGradGradGradGradGradGradGrad
 Berny optimization.
 Initialization pass.
                           ----------------------------
                           !    Initial Parameters    !
                           ! (Angstroms and Degrees)  !
 --------------------------                            --------------------------
 ! Name  Definition              Value          Derivative Info.                !
 --------------------------------------------------------------------------------
 ! R1    R(1,2)                  1.3476         estimate D2E/DX2                !
 ! R2    R(1,5)                  1.2084         estimate D2E/DX2                !
 ! R3    R(1,16)                 1.4901         estimate D2E/DX2                !
 ! R4    R(2,3)                  1.4441         estimate D2E/DX2                !
 ! R5    R(3,4)                  1.5117         estimate D2E/DX2                !
 ! R6    R(3,6)                  1.0911         estimate D2E/DX2                !
 ! R7    R(3,7)                  1.0911         estimate D2E/DX2                !
 ! R8    R(4,8)                  1.0909         estimate D2E/DX2                !
 ! R9    R(4,9)                  1.0909         estimate D2E/DX2                !
 ! R10   R(4,10)                 1.0916         estimate D2E/DX2                !
 ! R11   R(11,12)                1.2025         estimate D2E/DX2                !
 ! R12   R(12,13)                1.5053         estimate D2E/DX2                !
 ! R13   R(12,23)                1.917          estimate D2E/DX2                !
 ! R14   R(13,14)                1.3934         estimate D2E/DX2                !
 ! R15   R(13,18)                1.3966         estimate D2E/DX2                !
 ! R16   R(14,15)                1.3866         estimate D2E/DX2                !
 ! R17   R(14,22)                1.0813         estimate D2E/DX2                !
 ! R18   R(15,16)                1.3942         estimate D2E/DX2                !
 ! R19   R(15,21)                1.0803         estimate D2E/DX2                !
 ! R20   R(16,17)                1.3976         estimate D2E/DX2                !
 ! R21   R(17,18)                1.385          estimate D2E/DX2                !
 ! R22   R(17,20)                1.0815         estimate D2E/DX2                !
 ! R23   R(18,19)                1.0806         estimate D2E/DX2                !
 ! R24   R(23,24)                1.413          estimate D2E/DX2                !
 ! R25   R(23,31)                1.94           estimate D2E/DX2                !
 ! R26   R(24,25)                1.5209         estimate D2E/DX2                !
 ! R27   R(24,26)                1.0949         estimate D2E/DX2                !
 ! R28   R(24,27)                1.0958         estimate D2E/DX2                !
 ! R29   R(25,28)                1.0895         estimate D2E/DX2                !
 ! R30   R(25,29)                1.0914         estimate D2E/DX2                !
 ! R31   R(25,30)                1.0933         estimate D2E/DX2                !
 ! R32   R(31,32)                2.2138         estimate D2E/DX2                !
 ! R33   R(31,40)                1.8008         estimate D2E/DX2                !
 ! R34   R(31,48)                1.7907         estimate D2E/DX2                !
 ! R35   R(31,56)                1.8112         estimate D2E/DX2                !
 ! R36   R(32,33)                1.4427         estimate D2E/DX2                !
 ! R37   R(33,34)                1.516          estimate D2E/DX2                !
 ! R38   R(33,38)                1.09           estimate D2E/DX2                !
 ! R39   R(33,39)                1.088          estimate D2E/DX2                !
 ! R40   R(34,35)                1.0927         estimate D2E/DX2                !
 ! R41   R(34,36)                1.0911         estimate D2E/DX2                !
 ! R42   R(34,37)                1.0907         estimate D2E/DX2                !
 ! R43   R(40,41)                1.4097         estimate D2E/DX2                !
 ! R44   R(41,42)                1.5201         estimate D2E/DX2                !
 ! R45   R(41,46)                1.0964         estimate D2E/DX2                !
 ! R46   R(41,47)                1.0961         estimate D2E/DX2                !
 ! R47   R(42,43)                1.0912         estimate D2E/DX2                !
 ! R48   R(42,44)                1.091          estimate D2E/DX2                !
 ! R49   R(42,45)                1.0926         estimate D2E/DX2                !
 ! R50   R(48,49)                1.4035         estimate D2E/DX2                !
 ! R51   R(49,50)                1.5184         estimate D2E/DX2                !
 ! R52   R(49,54)                1.0963         estimate D2E/DX2                !
 ! R53   R(49,55)                1.0966         estimate D2E/DX2                !
 ! R54   R(50,51)                1.0912         estimate D2E/DX2                !
 ! R55   R(50,52)                1.0911         estimate D2E/DX2                !
 ! R56   R(50,53)                1.0925         estimate D2E/DX2                !
 ! R57   R(56,57)                1.4138         estimate D2E/DX2                !
 ! R58   R(57,58)                1.5195         estimate D2E/DX2                !
 ! R59   R(57,62)                1.0958         estimate D2E/DX2                !
 ! R60   R(57,63)                1.096          estimate D2E/DX2                !
 ! R61   R(58,59)                1.0912         estimate D2E/DX2                !
 ! R62   R(58,60)                1.0911         estimate D2E/DX2                !
 ! R63   R(58,61)                1.0928         estimate D2E/DX2                !
 ! A1    A(2,1,5)              123.1603         estimate D2E/DX2                !
 ! A2    A(2,1,16)             112.5544         estimate D2E/DX2                !
 ! A3    A(5,1,16)             124.2844         estimate D2E/DX2                !
 ! A4    A(1,2,3)              116.3542         estimate D2E/DX2                !
 ! A5    A(2,3,4)              107.773          estimate D2E/DX2                !
 ! A6    A(2,3,6)              108.6732         estimate D2E/DX2                !
 ! A7    A(2,3,7)              108.6616         estimate D2E/DX2                !
 ! A8    A(4,3,6)              112.0154         estimate D2E/DX2                !
 ! A9    A(4,3,7)              112.009          estimate D2E/DX2                !
 ! A10   A(6,3,7)              107.62           estimate D2E/DX2                !
 ! A11   A(3,4,8)              111.0805         estimate D2E/DX2                !
 ! A12   A(3,4,9)              111.0874         estimate D2E/DX2                !
 ! A13   A(3,4,10)             109.612          estimate D2E/DX2                !
 ! A14   A(8,4,9)              108.4679         estimate D2E/DX2                !
 ! A15   A(8,4,10)             108.25           estimate D2E/DX2                !
 ! A16   A(9,4,10)             108.2527         estimate D2E/DX2                !
 ! A17   A(11,12,13)           123.1437         estimate D2E/DX2                !
 ! A18   A(11,12,23)           108.9026         estimate D2E/DX2                !
 ! A19   A(13,12,23)           100.5518         estimate D2E/DX2                !
 ! A20   A(12,13,14)           116.1877         estimate D2E/DX2                !
 ! A21   A(12,13,18)           124.259          estimate D2E/DX2                !
 ! A22   A(14,13,18)           119.401          estimate D2E/DX2                !
 ! A23   A(13,14,15)           120.6085         estimate D2E/DX2                !
 ! A24   A(13,14,22)           118.6031         estimate D2E/DX2                !
 ! A25   A(15,14,22)           120.7676         estimate D2E/DX2                !
 ! A26   A(14,15,16)           120.0137         estimate D2E/DX2                !
 ! A27   A(14,15,21)           120.166          estimate D2E/DX2                !
 ! A28   A(16,15,21)           119.8185         estimate D2E/DX2                !
 ! A29   A(1,16,15)            122.3394         estimate D2E/DX2                !
 ! A30   A(1,16,17)            118.268          estimate D2E/DX2                !
 ! A31   A(15,16,17)           119.3899         estimate D2E/DX2                !
 ! A32   A(16,17,18)           120.5214         estimate D2E/DX2                !
 ! A33   A(16,17,20)           118.646          estimate D2E/DX2                !
 ! A34   A(18,17,20)           120.8257         estimate D2E/DX2                !
 ! A35   A(13,18,17)           120.0202         estimate D2E/DX2                !
 ! A36   A(13,18,19)           120.0318         estimate D2E/DX2                !
 ! A37   A(17,18,19)           119.9444         estimate D2E/DX2                !
 ! A38   A(12,23,24)           115.9186         estimate D2E/DX2                !
 ! A39   A(12,23,31)           101.9374         estimate D2E/DX2                !
 ! A40   A(24,23,31)           140.0457         estimate D2E/DX2                !
 ! A41   A(23,24,25)           112.7489         estimate D2E/DX2                !
 ! A42   A(23,24,26)           108.7125         estimate D2E/DX2                !
 ! A43   A(23,24,27)           107.5108         estimate D2E/DX2                !
 ! A44   A(25,24,26)           110.5597         estimate D2E/DX2                !
 ! A45   A(25,24,27)           110.0041         estimate D2E/DX2                !
 ! A46   A(26,24,27)           107.1002         estimate D2E/DX2                !
 ! A47   A(24,25,28)           110.5589         estimate D2E/DX2                !
 ! A48   A(24,25,29)           110.5129         estimate D2E/DX2                !
 ! A49   A(24,25,30)           109.9641         estimate D2E/DX2                !
 ! A50   A(28,25,29)           108.8224         estimate D2E/DX2                !
 ! A51   A(28,25,30)           108.6742         estimate D2E/DX2                !
 ! A52   A(29,25,30)           108.2497         estimate D2E/DX2                !
 ! A53   A(23,31,32)            66.8515         estimate D2E/DX2                !
 ! A54   A(23,31,40)           114.877          estimate D2E/DX2                !
 ! A55   A(23,31,48)            91.949          estimate D2E/DX2                !
 ! A56   A(23,31,56)           129.0377         estimate D2E/DX2                !
 ! A57   A(32,31,40)            93.4091         estimate D2E/DX2                !
 ! A58   A(32,31,48)           157.6336         estimate D2E/DX2                !
 ! A59   A(32,31,56)            88.6727         estimate D2E/DX2                !
 ! A60   A(40,31,48)           102.4137         estimate D2E/DX2                !
 ! A61   A(40,31,56)           110.3596         estimate D2E/DX2                !
 ! A62   A(48,31,56)           100.2833         estimate D2E/DX2                !
 ! A63   A(31,32,33)           127.5821         estimate D2E/DX2                !
 ! A64   A(32,33,34)           111.0922         estimate D2E/DX2                !
 ! A65   A(32,33,38)           107.7932         estimate D2E/DX2                !
 ! A66   A(32,33,39)           105.5733         estimate D2E/DX2                !
 ! A67   A(34,33,38)           112.0119         estimate D2E/DX2                !
 ! A68   A(34,33,39)           111.8008         estimate D2E/DX2                !
 ! A69   A(38,33,39)           108.2719         estimate D2E/DX2                !
 ! A70   A(33,34,35)           109.6001         estimate D2E/DX2                !
 ! A71   A(33,34,36)           111.0798         estimate D2E/DX2                !
 ! A72   A(33,34,37)           111.5116         estimate D2E/DX2                !
 ! A73   A(35,34,36)           108.2254         estimate D2E/DX2                !
 ! A74   A(35,34,37)           108.0013         estimate D2E/DX2                !
 ! A75   A(36,34,37)           108.313          estimate D2E/DX2                !
 ! A76   A(31,40,41)           145.7547         estimate D2E/DX2                !
 ! A77   A(40,41,42)           111.1904         estimate D2E/DX2                !
 ! A78   A(40,41,46)           108.4215         estimate D2E/DX2                !
 ! A79   A(40,41,47)           109.4584         estimate D2E/DX2                !
 ! A80   A(42,41,46)           109.9318         estimate D2E/DX2                !
 ! A81   A(42,41,47)           110.2896         estimate D2E/DX2                !
 ! A82   A(46,41,47)           107.4551         estimate D2E/DX2                !
 ! A83   A(41,42,43)           110.8354         estimate D2E/DX2                !
 ! A84   A(41,42,44)           110.6657         estimate D2E/DX2                !
 ! A85   A(41,42,45)           110.0408         estimate D2E/DX2                !
 ! A86   A(43,42,44)           108.4233         estimate D2E/DX2                !
 ! A87   A(43,42,45)           108.4137         estimate D2E/DX2                !
 ! A88   A(44,42,45)           108.3875         estimate D2E/DX2                !
 ! A89   A(31,48,49)           144.2682         estimate D2E/DX2                !
 ! A90   A(48,49,50)           110.31           estimate D2E/DX2                !
 ! A91   A(48,49,54)           108.8724         estimate D2E/DX2                !
 ! A92   A(48,49,55)           109.2778         estimate D2E/DX2                !
 ! A93   A(50,49,54)           110.0975         estimate D2E/DX2                !
 ! A94   A(50,49,55)           110.6371         estimate D2E/DX2                !
 ! A95   A(54,49,55)           107.584          estimate D2E/DX2                !
 ! A96   A(49,50,51)           110.5597         estimate D2E/DX2                !
 ! A97   A(49,50,52)           110.5074         estimate D2E/DX2                !
 ! A98   A(49,50,53)           110.4219         estimate D2E/DX2                !
 ! A99   A(51,50,52)           108.42           estimate D2E/DX2                !
 ! A100  A(51,50,53)           108.4137         estimate D2E/DX2                !
 ! A101  A(52,50,53)           108.4471         estimate D2E/DX2                !
 ! A102  A(31,56,57)           138.5351         estimate D2E/DX2                !
 ! A103  A(56,57,58)           111.1721         estimate D2E/DX2                !
 ! A104  A(56,57,62)           109.1178         estimate D2E/DX2                !
 ! A105  A(56,57,63)           108.2278         estimate D2E/DX2                !
 ! A106  A(58,57,62)           110.4666         estimate D2E/DX2                !
 ! A107  A(58,57,63)           110.1029         estimate D2E/DX2                !
 ! A108  A(62,57,63)           107.6572         estimate D2E/DX2                !
 ! A109  A(57,58,59)           110.8199         estimate D2E/DX2                !
 ! A110  A(57,58,60)           110.6981         estimate D2E/DX2                !
 ! A111  A(57,58,61)           110.1524         estimate D2E/DX2                !
 ! A112  A(59,58,60)           108.3252         estimate D2E/DX2                !
 ! A113  A(59,58,61)           108.3312         estimate D2E/DX2                !
 ! A114  A(60,58,61)           108.4356         estimate D2E/DX2                !
 ! D1    D(5,1,2,3)             -0.2671         estimate D2E/DX2                !
 ! D2    D(16,1,2,3)          -179.9485         estimate D2E/DX2                !
 ! D3    D(2,1,16,15)           -0.684          estimate D2E/DX2                !
 ! D4    D(2,1,16,17)          178.7099         estimate D2E/DX2                !
 ! D5    D(5,1,16,15)          179.6388         estimate D2E/DX2                !
 ! D6    D(5,1,16,17)           -0.9674         estimate D2E/DX2                !
 ! D7    D(1,2,3,4)           -179.9314         estimate D2E/DX2                !
 ! D8    D(1,2,3,6)             58.4779         estimate D2E/DX2                !
 ! D9    D(1,2,3,7)            -58.3553         estimate D2E/DX2                !
 ! D10   D(2,3,4,8)             60.3491         estimate D2E/DX2                !
 ! D11   D(2,3,4,9)            -60.4818         estimate D2E/DX2                !
 ! D12   D(2,3,4,10)           179.9298         estimate D2E/DX2                !
 ! D13   D(6,3,4,8)            179.839          estimate D2E/DX2                !
 ! D14   D(6,3,4,9)             59.0081         estimate D2E/DX2                !
 ! D15   D(6,3,4,10)           -60.5803         estimate D2E/DX2                !
 ! D16   D(7,3,4,8)            -59.1225         estimate D2E/DX2                !
 ! D17   D(7,3,4,9)           -179.9534         estimate D2E/DX2                !
 ! D18   D(7,3,4,10)            60.4582         estimate D2E/DX2                !
 ! D19   D(11,12,13,14)        -14.4114         estimate D2E/DX2                !
 ! D20   D(11,12,13,18)        170.1166         estimate D2E/DX2                !
 ! D21   D(23,12,13,14)       -135.422          estimate D2E/DX2                !
 ! D22   D(23,12,13,18)         49.106          estimate D2E/DX2                !
 ! D23   D(11,12,23,24)        -52.8921         estimate D2E/DX2                !
 ! D24   D(11,12,23,31)        113.9798         estimate D2E/DX2                !
 ! D25   D(13,12,23,24)         77.7727         estimate D2E/DX2                !
 ! D26   D(13,12,23,31)       -115.3554         estimate D2E/DX2                !
 ! D27   D(12,13,14,15)       -173.4884         estimate D2E/DX2                !
 ! D28   D(12,13,14,22)          4.8684         estimate D2E/DX2                !
 ! D29   D(18,13,14,15)          2.2164         estimate D2E/DX2                !
 ! D30   D(18,13,14,22)       -179.4268         estimate D2E/DX2                !
 ! D31   D(12,13,18,17)        173.9451         estimate D2E/DX2                !
 ! D32   D(12,13,18,19)         -5.3648         estimate D2E/DX2                !
 ! D33   D(14,13,18,17)         -1.3907         estimate D2E/DX2                !
 ! D34   D(14,13,18,19)        179.2994         estimate D2E/DX2                !
 ! D35   D(13,14,15,16)         -1.0685         estimate D2E/DX2                !
 ! D36   D(13,14,15,21)        178.4471         estimate D2E/DX2                !
 ! D37   D(22,14,15,16)       -179.3895         estimate D2E/DX2                !
 ! D38   D(22,14,15,21)          0.1261         estimate D2E/DX2                !
 ! D39   D(14,15,16,1)         178.4866         estimate D2E/DX2                !
 ! D40   D(14,15,16,17)         -0.9007         estimate D2E/DX2                !
 ! D41   D(21,15,16,1)          -1.0307         estimate D2E/DX2                !
 ! D42   D(21,15,16,17)        179.582          estimate D2E/DX2                !
 ! D43   D(1,16,17,18)        -177.6907         estimate D2E/DX2                !
 ! D44   D(1,16,17,20)           1.3624         estimate D2E/DX2                !
 ! D45   D(15,16,17,18)          1.7215         estimate D2E/DX2                !
 ! D46   D(15,16,17,20)       -179.2254         estimate D2E/DX2                !
 ! D47   D(16,17,18,13)         -0.5714         estimate D2E/DX2                !
 ! D48   D(16,17,18,19)        178.7391         estimate D2E/DX2                !
 ! D49   D(20,17,18,13)       -179.6037         estimate D2E/DX2                !
 ! D50   D(20,17,18,19)         -0.2932         estimate D2E/DX2                !
 ! D51   D(12,23,24,25)         87.9805         estimate D2E/DX2                !
 ! D52   D(12,23,24,26)       -149.057          estimate D2E/DX2                !
 ! D53   D(12,23,24,27)        -33.4365         estimate D2E/DX2                !
 ! D54   D(31,23,24,25)        -71.7743         estimate D2E/DX2                !
 ! D55   D(31,23,24,26)         51.1882         estimate D2E/DX2                !
 ! D56   D(31,23,24,27)        166.8087         estimate D2E/DX2                !
 ! D57   D(12,23,31,32)          3.3975         estimate D2E/DX2                !
 ! D58   D(12,23,31,40)         86.1034         estimate D2E/DX2                !
 ! D59   D(12,23,31,48)       -169.249          estimate D2E/DX2                !
 ! D60   D(12,23,31,56)        -64.3239         estimate D2E/DX2                !
 ! D61   D(24,23,31,32)        164.8487         estimate D2E/DX2                !
 ! D62   D(24,23,31,40)       -112.4453         estimate D2E/DX2                !
 ! D63   D(24,23,31,48)         -7.7978         estimate D2E/DX2                !
 ! D64   D(24,23,31,56)         97.1274         estimate D2E/DX2                !
 ! D65   D(23,24,25,28)        -60.0304         estimate D2E/DX2                !
 ! D66   D(23,24,25,29)         60.5158         estimate D2E/DX2                !
 ! D67   D(23,24,25,30)        179.9647         estimate D2E/DX2                !
 ! D68   D(26,24,25,28)        178.0439         estimate D2E/DX2                !
 ! D69   D(26,24,25,29)        -61.4099         estimate D2E/DX2                !
 ! D70   D(26,24,25,30)         58.0391         estimate D2E/DX2                !
 ! D71   D(27,24,25,28)         59.9606         estimate D2E/DX2                !
 ! D72   D(27,24,25,29)       -179.4931         estimate D2E/DX2                !
 ! D73   D(27,24,25,30)        -60.0442         estimate D2E/DX2                !
 ! D74   D(23,31,32,33)       -146.1907         estimate D2E/DX2                !
 ! D75   D(40,31,32,33)         98.1608         estimate D2E/DX2                !
 ! D76   D(48,31,32,33)       -126.5479         estimate D2E/DX2                !
 ! D77   D(56,31,32,33)        -12.1579         estimate D2E/DX2                !
 ! D78   D(23,31,40,41)       -131.265          estimate D2E/DX2                !
 ! D79   D(32,31,40,41)        -65.2481         estimate D2E/DX2                !
 ! D80   D(48,31,40,41)        130.6609         estimate D2E/DX2                !
 ! D81   D(56,31,40,41)         24.6004         estimate D2E/DX2                !
 ! D82   D(23,31,48,49)        -92.2072         estimate D2E/DX2                !
 ! D83   D(32,31,48,49)       -110.2225         estimate D2E/DX2                !
 ! D84   D(40,31,48,49)         23.7999         estimate D2E/DX2                !
 ! D85   D(56,31,48,49)        137.5026         estimate D2E/DX2                !
 ! D86   D(23,31,56,57)       -105.8875         estimate D2E/DX2                !
 ! D87   D(32,31,56,57)       -164.2166         estimate D2E/DX2                !
 ! D88   D(40,31,56,57)        102.6393         estimate D2E/DX2                !
 ! D89   D(48,31,56,57)         -4.8402         estimate D2E/DX2                !
 ! D90   D(31,32,33,34)       -128.3775         estimate D2E/DX2                !
 ! D91   D(31,32,33,38)        108.5513         estimate D2E/DX2                !
 ! D92   D(31,32,33,39)         -6.997          estimate D2E/DX2                !
 ! D93   D(32,33,34,35)        179.2778         estimate D2E/DX2                !
 ! D94   D(32,33,34,36)         59.7358         estimate D2E/DX2                !
 ! D95   D(32,33,34,37)        -61.187          estimate D2E/DX2                !
 ! D96   D(38,33,34,35)        -60.1112         estimate D2E/DX2                !
 ! D97   D(38,33,34,36)       -179.6531         estimate D2E/DX2                !
 ! D98   D(38,33,34,37)         59.424          estimate D2E/DX2                !
 ! D99   D(39,33,34,35)         61.6196         estimate D2E/DX2                !
 ! D100  D(39,33,34,36)        -57.9223         estimate D2E/DX2                !
 ! D101  D(39,33,34,37)       -178.8452         estimate D2E/DX2                !
 ! D102  D(31,40,41,42)       -155.2521         estimate D2E/DX2                !
 ! D103  D(31,40,41,46)         83.784          estimate D2E/DX2                !
 ! D104  D(31,40,41,47)        -33.1514         estimate D2E/DX2                !
 ! D105  D(40,41,42,43)         61.9189         estimate D2E/DX2                !
 ! D106  D(40,41,42,44)        -58.4091         estimate D2E/DX2                !
 ! D107  D(40,41,42,45)       -178.1747         estimate D2E/DX2                !
 ! D108  D(46,41,42,43)       -178.0083         estimate D2E/DX2                !
 ! D109  D(46,41,42,44)         61.6637         estimate D2E/DX2                !
 ! D110  D(46,41,42,45)        -58.1019         estimate D2E/DX2                !
 ! D111  D(47,41,42,43)        -59.6984         estimate D2E/DX2                !
 ! D112  D(47,41,42,44)        179.9737         estimate D2E/DX2                !
 ! D113  D(47,41,42,45)         60.2081         estimate D2E/DX2                !
 ! D114  D(31,48,49,50)       -139.3763         estimate D2E/DX2                !
 ! D115  D(31,48,49,54)         99.711          estimate D2E/DX2                !
 ! D116  D(31,48,49,55)        -17.5338         estimate D2E/DX2                !
 ! D117  D(48,49,50,51)         60.8051         estimate D2E/DX2                !
 ! D118  D(48,49,50,52)        -59.2345         estimate D2E/DX2                !
 ! D119  D(48,49,50,53)       -179.2186         estimate D2E/DX2                !
 ! D120  D(54,49,50,51)       -179.0167         estimate D2E/DX2                !
 ! D121  D(54,49,50,52)         60.9437         estimate D2E/DX2                !
 ! D122  D(54,49,50,53)        -59.0405         estimate D2E/DX2                !
 ! D123  D(55,49,50,51)        -60.2299         estimate D2E/DX2                !
 ! D124  D(55,49,50,52)        179.7305         estimate D2E/DX2                !
 ! D125  D(55,49,50,53)         59.7464         estimate D2E/DX2                !
 ! D126  D(31,56,57,58)        128.6764         estimate D2E/DX2                !
 ! D127  D(31,56,57,62)          6.5957         estimate D2E/DX2                !
 ! D128  D(31,56,57,63)       -110.2853         estimate D2E/DX2                !
 ! D129  D(56,57,58,59)         59.8148         estimate D2E/DX2                !
 ! D130  D(56,57,58,60)        -60.4011         estimate D2E/DX2                !
 ! D131  D(56,57,58,61)        179.6808         estimate D2E/DX2                !
 ! D132  D(62,57,58,59)       -178.8909         estimate D2E/DX2                !
 ! D133  D(62,57,58,60)         60.8933         estimate D2E/DX2                !
 ! D134  D(62,57,58,61)        -59.0248         estimate D2E/DX2                !
 ! D135  D(63,57,58,59)        -60.1163         estimate D2E/DX2                !
 ! D136  D(63,57,58,60)        179.6678         estimate D2E/DX2                !
 ! D137  D(63,57,58,61)         59.7497         estimate D2E/DX2                !
 --------------------------------------------------------------------------------
 Trust Radius=3.00D-01 FncErr=1.00D-07 GrdErr=1.00D-06 EigMax=2.50D+02 EigMin=1.00D-04
 Number of steps in this run=    324 maximum allowed number of steps=    378.
 GradGradGradGradGradGradGradGradGradGradGradGradGradGradGradGradGradGrad

 Symmetry turned off by external request.
 Stoichiometry    C20H34O8Ti
 Framework group  C1[X(C20H34O8Ti)]
 Deg. of freedom   183
 Full point group                 C1      NOp   1
                          Input orientation:                          
 ---------------------------------------------------------------------
 Center     Atomic      Atomic             Coordinates (Angstroms)
 Number     Number       Type             X           Y           Z
 ---------------------------------------------------------------------
      1          6           0       -5.210102    0.842471    0.179437
      2          8           0       -6.207449   -0.063691    0.192505
      3          6           0       -7.552113    0.462985    0.197846
      4          6           0       -8.506723   -0.709111    0.214219
      5          8           0       -5.401204    2.035562    0.167627
      6          1           0       -7.686245    1.087413   -0.686845
      7          1           0       -7.673508    1.101491    1.074281
      8          1           0       -8.357715   -1.324115    1.102787
      9          1           0       -8.372072   -1.337311   -0.667389
     10          1           0       -9.535346   -0.343828    0.219870
     11          8           0        0.188822   -2.755569    0.056764
     12          6           0        0.031456   -1.575673   -0.113963
     13          6           0       -1.293440   -0.886319    0.074356
     14          6           0       -2.411140   -1.714228    0.156867
     15          6           0       -3.687991   -1.174872    0.195173
     16          6           0       -3.861716    0.208278    0.173590
     17          6           0       -2.739286    1.039944    0.132364
     18          6           0       -1.465157    0.499668    0.077161
     19          1           0       -0.604778    1.151302    0.025019
     20          1           0       -2.887624    2.111265    0.128801
     21          1           0       -4.550622   -1.824104    0.233884
     22          1           0       -2.262672   -2.785254    0.163131
     23          8           0        1.108873   -0.616378    1.148446
     24          6           0        0.941288   -0.977956    2.504069
     25          6           0        1.848656   -2.124180    2.923514
     26          1           0        1.122154   -0.096392    3.127685
     27          1           0       -0.108319   -1.260767    2.642552
     28          1           0        1.644686   -3.011995    2.325878
     29          1           0        2.896968   -1.847958    2.797322
     30          1           0        1.682589   -2.365487    3.976799
     31         22           0        2.393944    0.263979   -0.007945
     32          8           0        0.861130   -0.880215   -1.122405
     33          6           0        1.026236   -1.592344   -2.366157
     34          6           0       -0.031693   -1.184931   -3.372693
     35          1           0        0.123598   -1.728244   -4.307898
     36          1           0        0.020639   -0.116198   -3.586185
     37          1           0       -1.035532   -1.413739   -3.012622
     38          1           0        0.991476   -2.659387   -2.146188
     39          1           0        2.028416   -1.347809   -2.711943
     40          8           0        1.852711    1.846495   -0.675562
     41          6           0        1.723701    2.639911   -1.833677
     42          6           0        1.700175    4.119578   -1.486203
     43          1           0        2.634225    4.421209   -1.009542
     44          1           0        0.877746    4.342019   -0.804675
     45          1           0        1.567295    4.714961   -2.392604
     46          1           0        0.793797    2.360765   -2.343086
     47          1           0        2.551553    2.423462   -2.518641
     48          8           0        3.401886    0.759095    1.386913
     49          6           0        3.638751    1.785909    2.313913
     50          6           0        5.130670    1.965576    2.531620
     51          1           0        5.624186    2.238155    1.597351
     52          1           0        5.577246    1.040859    2.900410
     53          1           0        5.316769    2.755180    3.263355
     54          1           0        3.148148    1.529482    3.260199
     55          1           0        3.186868    2.715583    1.947743
     56          8           0        3.658629   -0.471141   -1.075983
     57          6           0        5.062442   -0.637389   -1.095882
     58          6           0        5.439777   -2.088547   -1.341949
     59          1           0        5.044632   -2.435256   -2.298186
     60          1           0        5.041893   -2.729448   -0.553697
     61          1           0        6.527018   -2.197038   -1.359690
     62          1           0        5.478572   -0.289442   -0.143765
     63          1           0        5.471697   -0.001955   -1.889572
 ---------------------------------------------------------------------
 Rotational constants (GHZ):           0.2512635           0.0708836           0.0687458
 General basis read from cards:  (5D, 7F)
 ======================================================================================================
                                       Pseudopotential Parameters
 ======================================================================================================
  Center     Atomic      Valence      Angular      Power
  Number     Number     Electrons     Momentum     of R      Exponent        Coefficient   SO-Coeffient
 ======================================================================================================
    1          6
                                   No pseudopotential on this center.
    2          8
                                   No pseudopotential on this center.
    3          6
                                   No pseudopotential on this center.
    4          6
                                   No pseudopotential on this center.
    5          8
                                   No pseudopotential on this center.
    6          1
                                   No pseudopotential on this center.
    7          1
                                   No pseudopotential on this center.
    8          1
                                   No pseudopotential on this center.
    9          1
                                   No pseudopotential on this center.
   10          1
                                   No pseudopotential on this center.
   11          8
                                   No pseudopotential on this center.
   12          6
                                   No pseudopotential on this center.
   13          6
                                   No pseudopotential on this center.
   14          6
                                   No pseudopotential on this center.
   15          6
                                   No pseudopotential on this center.
   16          6
                                   No pseudopotential on this center.
   17          6
                                   No pseudopotential on this center.
   18          6
                                   No pseudopotential on this center.
   19          1
                                   No pseudopotential on this center.
   20          1
                                   No pseudopotential on this center.
   21          1
                                   No pseudopotential on this center.
   22          1
                                   No pseudopotential on this center.
   23          8
                                   No pseudopotential on this center.
   24          6
                                   No pseudopotential on this center.
   25          6
                                   No pseudopotential on this center.
   26          1
                                   No pseudopotential on this center.
   27          1
                                   No pseudopotential on this center.
   28          1
                                   No pseudopotential on this center.
   29          1
                                   No pseudopotential on this center.
   30          1
                                   No pseudopotential on this center.
   31         22           12
                                      D and up 
                                                     1      265.3263909      -10.00000000    0.00000000
                                                     2       47.7687815      -51.84278160    0.00000000
                                                     2       11.8903334       -9.14291450    0.00000000
                                      S - D
                                                     0       81.4730696        3.00000000    0.00000000
                                                     1       72.6496724       19.48255790    0.00000000
                                                     2       31.8128213      207.33492790    0.00000000
                                                     2        6.1664468      235.67445010    0.00000000
                                                     2        5.8268347     -166.87843870    0.00000000
                                      P - D
                                                     0       50.2966943        5.00000000    0.00000000
                                                     1       63.5089754        5.53488220    0.00000000
                                                     2       26.0996084      177.84193840    0.00000000
                                                     2        5.6022573      107.42071530    0.00000000
                                                     2        5.2171069      -71.90659020    0.00000000
   32          8
                                   No pseudopotential on this center.
   33          6
                                   No pseudopotential on this center.
   34          6
                                   No pseudopotential on this center.
   35          1
                                   No pseudopotential on this center.
   36          1
                                   No pseudopotential on this center.
   37          1
                                   No pseudopotential on this center.
   38          1
                                   No pseudopotential on this center.
   39          1
                                   No pseudopotential on this center.
   40          8
                                   No pseudopotential on this center.
   41          6
                                   No pseudopotential on this center.
   42          6
                                   No pseudopotential on this center.
   43          1
                                   No pseudopotential on this center.
   44          1
                                   No pseudopotential on this center.
   45          1
                                   No pseudopotential on this center.
   46          1
                                   No pseudopotential on this center.
   47          1
                                   No pseudopotential on this center.
   48          8
                                   No pseudopotential on this center.
   49          6
                                   No pseudopotential on this center.
   50          6
                                   No pseudopotential on this center.
   51          1
                                   No pseudopotential on this center.
   52          1
                                   No pseudopotential on this center.
   53          1
                                   No pseudopotential on this center.
   54          1
                                   No pseudopotential on this center.
   55          1
                                   No pseudopotential on this center.
   56          8
                                   No pseudopotential on this center.
   57          6
                                   No pseudopotential on this center.
   58          6
                                   No pseudopotential on this center.
   59          1
                                   No pseudopotential on this center.
   60          1
                                   No pseudopotential on this center.
   61          1
                                   No pseudopotential on this center.
   62          1
                                   No pseudopotential on this center.
   63          1
                                   No pseudopotential on this center.
 ======================================================================================================
  1094 basis functions,  1752 primitive gaussians,  1236 cartesian basis functions
   115 alpha electrons      115 beta electrons
       nuclear repulsion energy      3183.0364936697 Hartrees.
 NAtoms=   63 NActive=   63 NUniq=   63 SFac= 1.00D+00 NAtFMM=   60 NAOKFM=T Big=T
 Integral buffers will be    131072 words long.
 Raffenetti 2 integral format.
 Two-electron integral symmetry is turned off.
 One-electron integrals computed using PRISM.
   1 Symmetry operations used in ECPInt.
 ECPInt:  NShTT=  102378 NPrTT=  306104 LenC2=   78774 LenP2D=  160338.
 LDataN:  DoStor=T MaxTD1= 6 Len=  172
 NBasis=  1094 RedAO= T EigKep=  5.86D-06  NBF=  1094
 NBsUse=  1094 1.00D-06 EigRej= -1.00D+00 NBFU=  1094
 Initial guess from the checkpoint file:  "/dev/shm/2011shi_fig5cts_origts_ircf_opt.chk"
 B after Tr=     0.000000    0.000000   -0.000000
         Rot=    1.000000    0.000000   -0.000000    0.000000 Ang=   0.00 deg.
 Requested convergence on RMS density matrix=1.00D-08 within 400 cycles.
 Requested convergence on MAX density matrix=1.00D-06.
 Requested convergence on             energy=1.00D-06.
 No special actions if energy rises.
 SCF Done:  E(RB3LYP) =  -1443.25454601     A.U. after    1 cycles
            NFock=  1  Conv=0.39D-08     -V/T= 2.0292
 QCSCF skips out because SCF is already converged.

 **********************************************************************

            Population analysis using the SCF Density.

 **********************************************************************

 Alpha  occ. eigenvalues --  -19.17130 -19.15834 -19.12345 -19.12138 -19.11940
 Alpha  occ. eigenvalues --  -19.11398 -19.11066 -19.09802 -10.31148 -10.30075
 Alpha  occ. eigenvalues --  -10.23137 -10.22557 -10.22312 -10.22112 -10.21961
 Alpha  occ. eigenvalues --  -10.21123 -10.19464 -10.19453 -10.18539 -10.18371
 Alpha  occ. eigenvalues --  -10.18239 -10.18169 -10.17308 -10.16575 -10.16563
 Alpha  occ. eigenvalues --  -10.16454 -10.16109 -10.14961  -2.44358  -1.56623
 Alpha  occ. eigenvalues --   -1.56602  -1.56125  -1.10702  -1.08203  -1.01891
 Alpha  occ. eigenvalues --   -1.01123  -0.99046  -0.98463  -0.98185  -0.97908
 Alpha  occ. eigenvalues --   -0.87275  -0.79561  -0.77261  -0.76127  -0.75601
 Alpha  occ. eigenvalues --   -0.74638  -0.74469  -0.74175  -0.73368  -0.68272
 Alpha  occ. eigenvalues --   -0.65019  -0.63000  -0.61468  -0.61282  -0.61066
 Alpha  occ. eigenvalues --   -0.60918  -0.60265  -0.57717  -0.56226  -0.54193
 Alpha  occ. eigenvalues --   -0.51967  -0.51052  -0.49938  -0.48286  -0.47966
 Alpha  occ. eigenvalues --   -0.47938  -0.47780  -0.47635  -0.47455  -0.46992
 Alpha  occ. eigenvalues --   -0.46444  -0.46158  -0.45565  -0.44961  -0.44649
 Alpha  occ. eigenvalues --   -0.43499  -0.43331  -0.43127  -0.42612  -0.41797
 Alpha  occ. eigenvalues --   -0.41769  -0.41562  -0.41154  -0.40718  -0.40192
 Alpha  occ. eigenvalues --   -0.39814  -0.38928  -0.38728  -0.38518  -0.38299
 Alpha  occ. eigenvalues --   -0.38197  -0.37963  -0.37754  -0.37638  -0.37226
 Alpha  occ. eigenvalues --   -0.37015  -0.36176  -0.36022  -0.35207  -0.34869
 Alpha  occ. eigenvalues --   -0.34554  -0.31861  -0.31434  -0.30979  -0.30402
 Alpha  occ. eigenvalues --   -0.30165  -0.29468  -0.29091  -0.28254  -0.28161
 Alpha  occ. eigenvalues --   -0.27748  -0.27428  -0.26559  -0.25985  -0.25907
 Alpha virt. eigenvalues --   -0.06640  -0.05785  -0.05192  -0.03062  -0.01899
 Alpha virt. eigenvalues --   -0.01341  -0.00086   0.00100   0.00225   0.00489
 Alpha virt. eigenvalues --    0.02073   0.02872   0.03514   0.05341   0.05851
 Alpha virt. eigenvalues --    0.06262   0.06704   0.07054   0.07413   0.07521
 Alpha virt. eigenvalues --    0.08008   0.08410   0.09037   0.09095   0.09473
 Alpha virt. eigenvalues --    0.09563   0.09807   0.10007   0.10374   0.10492
 Alpha virt. eigenvalues --    0.10584   0.10881   0.11042   0.11249   0.11518
 Alpha virt. eigenvalues --    0.11651   0.11923   0.12099   0.12479   0.12899
 Alpha virt. eigenvalues --    0.12913   0.13131   0.13473   0.13608   0.13739
 Alpha virt. eigenvalues --    0.14537   0.14719   0.15200   0.15388   0.15537
 Alpha virt. eigenvalues --    0.15841   0.16519   0.16548   0.16838   0.17300
 Alpha virt. eigenvalues --    0.17567   0.17877   0.18069   0.18758   0.18971
 Alpha virt. eigenvalues --    0.19154   0.19622   0.20179   0.20414   0.20969
 Alpha virt. eigenvalues --    0.21263   0.21452   0.21571   0.21860   0.22173
 Alpha virt. eigenvalues --    0.22388   0.22569   0.22918   0.23380   0.23599
 Alpha virt. eigenvalues --    0.24012   0.24194   0.24867   0.25148   0.25358
 Alpha virt. eigenvalues --    0.26204   0.26555   0.27077   0.27170   0.27201
 Alpha virt. eigenvalues --    0.27772   0.28117   0.28838   0.29273   0.29878
 Alpha virt. eigenvalues --    0.30236   0.30791   0.31451   0.31800   0.31886
 Alpha virt. eigenvalues --    0.32280   0.32881   0.33120   0.33685   0.33821
 Alpha virt. eigenvalues --    0.34161   0.34651   0.35470   0.35584   0.35784
 Alpha virt. eigenvalues --    0.36518   0.36626   0.36728   0.37106   0.37604
 Alpha virt. eigenvalues --    0.37850   0.38386   0.38576   0.38891   0.39462
 Alpha virt. eigenvalues --    0.39669   0.39968   0.40579   0.40637   0.40959
 Alpha virt. eigenvalues --    0.41407   0.41559   0.41839   0.42072   0.42123
 Alpha virt. eigenvalues --    0.42506   0.42766   0.42952   0.43125   0.43529
 Alpha virt. eigenvalues --    0.43712   0.43963   0.44409   0.44553   0.44767
 Alpha virt. eigenvalues --    0.44783   0.45114   0.45598   0.45699   0.46088
 Alpha virt. eigenvalues --    0.46211   0.46684   0.46905   0.47115   0.47265
 Alpha virt. eigenvalues --    0.47434   0.47905   0.48207   0.48489   0.48579
 Alpha virt. eigenvalues --    0.48704   0.48853   0.49192   0.49383   0.49650
 Alpha virt. eigenvalues --    0.50046   0.50367   0.50522   0.51030   0.51492
 Alpha virt. eigenvalues --    0.51611   0.52295   0.52588   0.52857   0.53045
 Alpha virt. eigenvalues --    0.53564   0.53811   0.54103   0.54537   0.55295
 Alpha virt. eigenvalues --    0.55533   0.56010   0.56119   0.57105   0.58066
 Alpha virt. eigenvalues --    0.58196   0.58638   0.59281   0.59447   0.59677
 Alpha virt. eigenvalues --    0.60465   0.60949   0.61158   0.61871   0.62360
 Alpha virt. eigenvalues --    0.62472   0.62864   0.63223   0.64229   0.64422
 Alpha virt. eigenvalues --    0.65057   0.65165   0.65843   0.65937   0.66595
 Alpha virt. eigenvalues --    0.66893   0.66914   0.68248   0.68667   0.69004
 Alpha virt. eigenvalues --    0.69909   0.70512   0.71305   0.71865   0.72122
 Alpha virt. eigenvalues --    0.72718   0.72883   0.74100   0.74642   0.74972
 Alpha virt. eigenvalues --    0.75638   0.76238   0.76797   0.77780   0.78407
 Alpha virt. eigenvalues --    0.78647   0.79339   0.79979   0.80514   0.80629
 Alpha virt. eigenvalues --    0.80717   0.81932   0.82316   0.82906   0.83029
 Alpha virt. eigenvalues --    0.83520   0.84153   0.84613   0.84700   0.85051
 Alpha virt. eigenvalues --    0.85795   0.86042   0.86284   0.86459   0.86863
 Alpha virt. eigenvalues --    0.87238   0.88025   0.88062   0.89067   0.89379
 Alpha virt. eigenvalues --    0.89741   0.90501   0.91287   0.91352   0.91833
 Alpha virt. eigenvalues --    0.92517   0.92791   0.93057   0.93442   0.93643
 Alpha virt. eigenvalues --    0.94256   0.95157   0.95530   0.97000   0.97559
 Alpha virt. eigenvalues --    0.97902   0.98759   0.99623   1.00010   1.00319
 Alpha virt. eigenvalues --    1.00925   1.01637   1.02269   1.02735   1.03475
 Alpha virt. eigenvalues --    1.03788   1.04423   1.05276   1.05503   1.05832
 Alpha virt. eigenvalues --    1.06113   1.07340   1.07811   1.07942   1.08758
 Alpha virt. eigenvalues --    1.09175   1.09387   1.10242   1.10581   1.11039
 Alpha virt. eigenvalues --    1.11073   1.11819   1.12120   1.12357   1.13190
 Alpha virt. eigenvalues --    1.13352   1.13869   1.14193   1.15009   1.15272
 Alpha virt. eigenvalues --    1.16383   1.16853   1.17149   1.17494   1.18592
 Alpha virt. eigenvalues --    1.18632   1.19464   1.20055   1.20605   1.20919
 Alpha virt. eigenvalues --    1.22159   1.22696   1.23595   1.24608   1.25388
 Alpha virt. eigenvalues --    1.26672   1.27332   1.27947   1.28440   1.29096
 Alpha virt. eigenvalues --    1.30821   1.32071   1.32696   1.33980   1.35243
 Alpha virt. eigenvalues --    1.36004   1.37474   1.39393   1.39575   1.40262
 Alpha virt. eigenvalues --    1.41376   1.44241   1.45198   1.45722   1.46084
 Alpha virt. eigenvalues --    1.46991   1.48016   1.48155   1.49208   1.49653
 Alpha virt. eigenvalues --    1.49906   1.50080   1.50243   1.50749   1.51476
 Alpha virt. eigenvalues --    1.51644   1.51999   1.52080   1.52630   1.52874
 Alpha virt. eigenvalues --    1.53016   1.53352   1.53449   1.53486   1.53719
 Alpha virt. eigenvalues --    1.54023   1.54360   1.54799   1.54950   1.55221
 Alpha virt. eigenvalues --    1.55584   1.55769   1.55887   1.56389   1.56425
 Alpha virt. eigenvalues --    1.56774   1.57025   1.57640   1.57974   1.58137
 Alpha virt. eigenvalues --    1.58791   1.58922   1.59350   1.59445   1.59768
 Alpha virt. eigenvalues --    1.60187   1.60490   1.61127   1.61332   1.61994
 Alpha virt. eigenvalues --    1.62355   1.62476   1.63010   1.63489   1.64035
 Alpha virt. eigenvalues --    1.64733   1.65263   1.65770   1.66417   1.67647
 Alpha virt. eigenvalues --    1.68418   1.69055   1.70649   1.71005   1.71562
 Alpha virt. eigenvalues --    1.72312   1.73019   1.73238   1.74165   1.74877
 Alpha virt. eigenvalues --    1.75397   1.75951   1.76158   1.77201   1.78177
 Alpha virt. eigenvalues --    1.78401   1.78927   1.79161   1.79490   1.79794
 Alpha virt. eigenvalues --    1.80468   1.80722   1.81499   1.81579   1.81986
 Alpha virt. eigenvalues --    1.81999   1.82582   1.82976   1.83453   1.83746
 Alpha virt. eigenvalues --    1.84135   1.84711   1.84999   1.85570   1.85616
 Alpha virt. eigenvalues --    1.86366   1.87319   1.87975   1.89107   1.90005
 Alpha virt. eigenvalues --    1.90705   1.91346   1.92333   1.92537   1.92854
 Alpha virt. eigenvalues --    1.93629   1.94356   1.95243   1.96014   1.96447
 Alpha virt. eigenvalues --    1.96888   1.97820   1.98768   1.99822   2.00304
 Alpha virt. eigenvalues --    2.01044   2.01635   2.02090   2.02613   2.03303
 Alpha virt. eigenvalues --    2.03903   2.04157   2.04375   2.05361   2.05707
 Alpha virt. eigenvalues --    2.07128   2.07349   2.08393   2.09666   2.09737
 Alpha virt. eigenvalues --    2.10852   2.11373   2.11939   2.12154   2.13073
 Alpha virt. eigenvalues --    2.13942   2.14452   2.14813   2.15448   2.17285
 Alpha virt. eigenvalues --    2.17614   2.19054   2.19951   2.21207   2.21413
 Alpha virt. eigenvalues --    2.23423   2.23808   2.26586   2.27361   2.28310
 Alpha virt. eigenvalues --    2.28995   2.29637   2.30048   2.30490   2.30653
 Alpha virt. eigenvalues --    2.30903   2.31061   2.31540   2.31859   2.32041
 Alpha virt. eigenvalues --    2.32708   2.32913   2.33282   2.33662   2.33811
 Alpha virt. eigenvalues --    2.34042   2.34370   2.35160   2.35301   2.35884
 Alpha virt. eigenvalues --    2.36551   2.37001   2.37254   2.37680   2.37826
 Alpha virt. eigenvalues --    2.38604   2.38945   2.39314   2.40135   2.40306
 Alpha virt. eigenvalues --    2.40452   2.41055   2.41808   2.42154   2.42888
 Alpha virt. eigenvalues --    2.43084   2.44216   2.44678   2.44920   2.45862
 Alpha virt. eigenvalues --    2.45879   2.46872   2.47172   2.48074   2.49200
 Alpha virt. eigenvalues --    2.49842   2.50554   2.50930   2.51372   2.52149
 Alpha virt. eigenvalues --    2.52828   2.53319   2.53511   2.53921   2.54535
 Alpha virt. eigenvalues --    2.55191   2.56207   2.56414   2.56631   2.57075
 Alpha virt. eigenvalues --    2.57383   2.57692   2.58047   2.58418   2.58723
 Alpha virt. eigenvalues --    2.58963   2.59407   2.60070   2.60337   2.60538
 Alpha virt. eigenvalues --    2.61124   2.61425   2.61617   2.62112   2.62476
 Alpha virt. eigenvalues --    2.62881   2.63162   2.63539   2.64098   2.64271
 Alpha virt. eigenvalues --    2.64744   2.65074   2.65520   2.65708   2.66078
 Alpha virt. eigenvalues --    2.66611   2.66722   2.67448   2.68087   2.68366
 Alpha virt. eigenvalues --    2.69050   2.71409   2.71807   2.72090   2.72168
 Alpha virt. eigenvalues --    2.72977   2.73671   2.73946   2.74440   2.74610
 Alpha virt. eigenvalues --    2.74871   2.75111   2.75670   2.77271   2.78222
 Alpha virt. eigenvalues --    2.79440   2.79887   2.80997   2.82470   2.83071
 Alpha virt. eigenvalues --    2.83404   2.83771   2.84242   2.85188   2.85723
 Alpha virt. eigenvalues --    2.86259   2.86891   2.87213   2.88944   2.89559
 Alpha virt. eigenvalues --    2.90220   2.90802   2.91694   2.92368   2.92970
 Alpha virt. eigenvalues --    2.93790   2.94179   2.95174   2.95604   2.96405
 Alpha virt. eigenvalues --    2.97015   2.97459   2.97809   2.98640   2.98808
 Alpha virt. eigenvalues --    2.99417   3.00587   3.01062   3.02041   3.02384
 Alpha virt. eigenvalues --    3.03514   3.03645   3.04000   3.04504   3.04958
 Alpha virt. eigenvalues --    3.05874   3.05925   3.06374   3.06662   3.07028
 Alpha virt. eigenvalues --    3.07766   3.08048   3.08346   3.09134   3.09234
 Alpha virt. eigenvalues --    3.09609   3.10212   3.10802   3.11336   3.11660
 Alpha virt. eigenvalues --    3.12378   3.12800   3.13146   3.14172   3.14343
 Alpha virt. eigenvalues --    3.14604   3.15050   3.15240   3.15823   3.16333
 Alpha virt. eigenvalues --    3.16525   3.16699   3.17358   3.17793   3.18347
 Alpha virt. eigenvalues --    3.19292   3.19506   3.19779   3.21106   3.21697
 Alpha virt. eigenvalues --    3.22084   3.22202   3.22707   3.23366   3.23665
 Alpha virt. eigenvalues --    3.23945   3.25044   3.25273   3.25673   3.26281
 Alpha virt. eigenvalues --    3.26872   3.27080   3.27316   3.27668   3.28018
 Alpha virt. eigenvalues --    3.28589   3.28895   3.29806   3.30511   3.31022
 Alpha virt. eigenvalues --    3.31557   3.31795   3.32622   3.32992   3.33687
 Alpha virt. eigenvalues --    3.34275   3.34393   3.35016   3.35635   3.35900
 Alpha virt. eigenvalues --    3.36030   3.36100   3.36489   3.37034   3.37517
 Alpha virt. eigenvalues --    3.38261   3.38669   3.39268   3.39480   3.40211
 Alpha virt. eigenvalues --    3.40623   3.41648   3.41984   3.42520   3.42660
 Alpha virt. eigenvalues --    3.43354   3.44006   3.44451   3.44806   3.45289
 Alpha virt. eigenvalues --    3.46833   3.47067   3.47667   3.48421   3.48743
 Alpha virt. eigenvalues --    3.49302   3.49847   3.50346   3.50950   3.51191
 Alpha virt. eigenvalues --    3.51834   3.52426   3.52840   3.53308   3.53607
 Alpha virt. eigenvalues --    3.54223   3.54913   3.55263   3.56864   3.57540
 Alpha virt. eigenvalues --    3.58303   3.59036   3.59532   3.60025   3.60834
 Alpha virt. eigenvalues --    3.61069   3.62848   3.63607   3.64184   3.64853
 Alpha virt. eigenvalues --    3.66114   3.67093   3.68163   3.69855   3.71007
 Alpha virt. eigenvalues --    3.73914   3.74721   3.75031   3.75160   3.75648
 Alpha virt. eigenvalues --    3.77783   3.78197   3.78384   3.78551   3.78835
 Alpha virt. eigenvalues --    3.79631   3.80653   3.81000   3.82253   3.84416
 Alpha virt. eigenvalues --    3.85715   3.87083   3.87585   3.88313   3.88438
 Alpha virt. eigenvalues --    3.89927   3.90357   3.90923   3.91608   3.91965
 Alpha virt. eigenvalues --    3.92492   3.92624   3.94076   3.94674   3.94979
 Alpha virt. eigenvalues --    3.96557   3.96659   3.97699   3.98131   3.98323
 Alpha virt. eigenvalues --    3.99127   4.01513   4.01912   4.03386   4.04941
 Alpha virt. eigenvalues --    4.06673   4.07438   4.09684   4.11745   4.14409
 Alpha virt. eigenvalues --    4.19783   4.21015   4.21539   4.21901   4.21947
 Alpha virt. eigenvalues --    4.23111   4.23811   4.24050   4.24898   4.26418
 Alpha virt. eigenvalues --    4.26785   4.27082   4.28102   4.28269   4.28656
 Alpha virt. eigenvalues --    4.29132   4.30005   4.32970   4.33359   4.34375
 Alpha virt. eigenvalues --    4.36008   4.36313   4.36887   4.37383   4.38402
 Alpha virt. eigenvalues --    4.38752   4.39275   4.40048   4.40702   4.41026
 Alpha virt. eigenvalues --    4.41266   4.41365   4.43421   4.45638   4.46252
 Alpha virt. eigenvalues --    4.48389   4.50381   4.51189   4.51646   4.52637
 Alpha virt. eigenvalues --    4.53745   4.54192   4.55232   4.59778   4.61129
 Alpha virt. eigenvalues --    4.62761   4.63970   4.64658   4.65331   4.65516
 Alpha virt. eigenvalues --    4.66163   4.68045   4.70652   4.73803   4.74405
 Alpha virt. eigenvalues --    4.74897   4.75532   4.76162   4.78122   4.78700
 Alpha virt. eigenvalues --    4.80617   4.85682   4.89338   4.93763   4.94977
 Alpha virt. eigenvalues --    4.97131   5.01711   5.11557   5.14045   5.14517
 Alpha virt. eigenvalues --    5.15118   5.15491   5.16071   5.16418   5.16691
 Alpha virt. eigenvalues --    5.17839   5.21030   5.21456   5.24468   5.25598
 Alpha virt. eigenvalues --    5.26375   5.29027   5.30180   5.32250   5.32406
 Alpha virt. eigenvalues --    5.32830   5.33593   5.33775   5.34537   5.34670
 Alpha virt. eigenvalues --    5.35559   5.36306   5.42294   5.46434   5.49220
 Alpha virt. eigenvalues --    5.49780   5.50333   5.53390   5.54950   5.57413
 Alpha virt. eigenvalues --    5.66132   5.66497   5.69356   5.72421   5.74040
 Alpha virt. eigenvalues --    5.75231   5.76233   5.78643   5.79144   5.79547
 Alpha virt. eigenvalues --    5.81267   5.83838   5.88723   5.90079   5.90828
 Alpha virt. eigenvalues --    5.94649   5.96961   5.97165   5.99810   6.04851
 Alpha virt. eigenvalues --    6.07321   6.13913   6.15262   6.18547   6.24693
 Alpha virt. eigenvalues --    6.29565   6.34544   6.34869   6.36249   6.37019
 Alpha virt. eigenvalues --    6.40421   6.42820   6.43820   6.44632   6.46138
 Alpha virt. eigenvalues --    6.48768   6.53289   6.56343   6.60710   6.63214
 Alpha virt. eigenvalues --    6.65029   6.68234   6.69964   6.73879   6.74476
 Alpha virt. eigenvalues --    6.75515   6.76639   6.77029   6.79992   6.80669
 Alpha virt. eigenvalues --    6.82336   6.85919   6.86688   6.89052   6.95499
 Alpha virt. eigenvalues --    6.99953   7.01207   7.04564   7.08288   7.08947
 Alpha virt. eigenvalues --    7.11026   7.13198   7.14925   7.15283   7.19284
 Alpha virt. eigenvalues --    7.26029   7.30251   7.35903   7.38367   7.46351
 Alpha virt. eigenvalues --   22.23010  22.28294  22.29065  22.29427  22.30906
 Alpha virt. eigenvalues --   22.33042  22.34394  22.44007  22.44336  22.44900
 Alpha virt. eigenvalues --   22.46204  22.47678  22.52648  22.70227  22.73303
 Alpha virt. eigenvalues --   22.77662  22.91346  23.20631  23.32190  23.48881
 Alpha virt. eigenvalues --   43.18893  43.80968  43.87604  43.91318  43.96230
 Alpha virt. eigenvalues --   44.11016  44.24059  44.42479  48.63791
          Condensed to atoms (all electrons):
 Mulliken charges:
               1
     1  C    0.317218
     2  O   -0.266725
     3  C   -0.028043
     4  C   -0.309009
     5  O   -0.336586
     6  H    0.107692
     7  H    0.108077
     8  H    0.113008
     9  H    0.112599
    10  H    0.111632
    11  O   -0.351836
    12  C    0.765823
    13  C   -0.101691
    14  C   -0.156935
    15  C   -0.150598
    16  C    0.093530
    17  C   -0.179876
    18  C   -0.114393
    19  H    0.194007
    20  H    0.131485
    21  H    0.130257
    22  H    0.133762
    23  O   -0.725296
    24  C    0.056287
    25  C   -0.347232
    26  H    0.084730
    27  H    0.100418
    28  H    0.141512
    29  H    0.108807
    30  H    0.100637
    31  Ti   1.493658
    32  O   -0.486867
    33  C   -0.010426
    34  C   -0.323399
    35  H    0.109955
    36  H    0.105784
    37  H    0.125197
    38  H    0.132886
    39  H    0.126021
    40  O   -0.632478
    41  C    0.039684
    42  C   -0.304888
    43  H    0.107113
    44  H    0.110642
    45  H    0.105625
    46  H    0.095873
    47  H    0.090845
    48  O   -0.583830
    49  C    0.053090
    50  C   -0.309396
    51  H    0.107467
    52  H    0.108670
    53  H    0.106838
    54  H    0.087664
    55  H    0.090988
    56  O   -0.629139
    57  C    0.034791
    58  C   -0.304523
    59  H    0.103426
    60  H    0.114978
    61  H    0.103762
    62  H    0.096610
    63  H    0.090123
 Sum of Mulliken charges =  -0.00000
 Mulliken charges with hydrogens summed into heavy atoms:
               1
     1  C    0.317218
     2  O   -0.266725
     3  C    0.187727
     4  C    0.028230
     5  O   -0.336586
    11  O   -0.351836
    12  C    0.765823
    13  C   -0.101691
    14  C   -0.023172
    15  C   -0.020341
    16  C    0.093530
    17  C   -0.048391
    18  C    0.079613
    23  O   -0.725296
    24  C    0.241435
    25  C    0.003724
    31  Ti   1.493658
    32  O   -0.486867
    33  C    0.248481
    34  C    0.017537
    40  O   -0.632478
    41  C    0.226401
    42  C    0.018492
    48  O   -0.583830
    49  C    0.231742
    50  C    0.013579
    56  O   -0.629139
    57  C    0.221524
    58  C    0.017642
 Electronic spatial extent (au):  <R**2>=          16687.7530
 Charge=              0.0000 electrons
 Dipole moment (field-independent basis, Debye):
    X=              0.9083    Y=              0.7398    Z=             -0.9763  Tot=              1.5250
 Quadrupole moment (field-independent basis, Debye-Ang):
   XX=           -161.8563   YY=           -193.5734   ZZ=           -176.2309
   XY=             13.8506   XZ=             -0.9057   YZ=              1.2925
 Traceless Quadrupole moment (field-independent basis, Debye-Ang):
   XX=             15.3639   YY=            -16.3532   ZZ=              0.9893
   XY=             13.8506   XZ=             -0.9057   YZ=              1.2925
 Octapole moment (field-independent basis, Debye-Ang**2):
  XXX=           -113.0963  YYY=             23.7157  ZZZ=             -0.5271  XYY=             43.6031
  XXY=            -47.7777  XXZ=              2.7240  XZZ=             26.7189  YZZ=              2.6549
  YYZ=            -10.2219  XYZ=              7.7264
 Hexadecapole moment (field-independent basis, Debye-Ang**3):
 XXXX=         -14155.9152 YYYY=          -3357.8769 ZZZZ=          -2687.8052 XXXY=             90.5931
 XXXZ=           -117.4859 YYYX=             21.5663 YYYZ=            -26.9972 ZZZX=            -20.7025
 ZZZY=             -0.0185 XXYY=          -3419.9713 XXZZ=          -3139.4770 YYZZ=           -952.2098
 XXYZ=             12.4392 YYXZ=             -4.7958 ZZXY=            -20.6731
 N-N= 3.183036493670D+03 E-N=-9.725409201156D+03  KE= 1.402326695735D+03
   1 Symmetry operations used in ECPInt.
 ECPInt:  NShTT=  102378 NPrTT=  306104 LenC2=   78774 LenP2D=  160338.
 LDataN:  DoStor=T MaxTD1= 7 Len=  274
 Calling FoFJK, ICntrl=      2127 FMM=T ISym2X=0 I1Cent= 0 IOpClX= 0 NMat=1 NMatS=1 NMatT=0.
 -------------------------------------------------------------------
 Center     Atomic                   Forces (Hartrees/Bohr)
 Number     Number              X              Y              Z
 -------------------------------------------------------------------
      1        6          -0.000035971    0.000138603    0.000234135
      2        8          -0.000004993    0.000165881    0.000197093
      3        6          -0.000042502    0.000057536    0.000010508
      4        6           0.000016965    0.000010900   -0.000005593
      5        8           0.000045503    0.000172159    0.000115970
      6        1           0.000000633    0.000000621   -0.000002512
      7        1          -0.000009976    0.000007198   -0.000002048
      8        1          -0.000000857    0.000004119    0.000001996
      9        1           0.000006698   -0.000000506    0.000001636
     10        1           0.000000178   -0.000002309   -0.000005658
     11        8          -0.001092648   -0.001032599   -0.002604572
     12        6          -0.001896091   -0.001291016   -0.005190963
     13        6          -0.000641612   -0.000598979   -0.001420808
     14        6          -0.000717995   -0.000319106    0.000021442
     15        6          -0.000484515    0.000014103    0.000681516
     16        6          -0.000057103    0.000035894    0.000350610
     17        6           0.000137137   -0.000227349   -0.000193158
     18        6          -0.000010963   -0.000522261   -0.001244219
     19        1           0.000009954   -0.000073621   -0.000152076
     20        1           0.000032721   -0.000015620   -0.000010457
     21        1          -0.000049002    0.000023445    0.000095146
     22        1          -0.000089076   -0.000030470    0.000002457
     23        8           0.002997829    0.003241777    0.002341899
     24        6           0.001365094    0.001277777    0.000902683
     25        6           0.000456898    0.000199058    0.000140377
     26        1           0.000117418    0.000018370    0.000203487
     27        1           0.000091120    0.000119043    0.000029528
     28        1           0.000028243    0.000091941   -0.000071591
     29        1           0.000046010   -0.000026878    0.000080741
     30        1          -0.000013289   -0.000080408   -0.000031900
     31       22           0.000290135    0.000879958    0.006742071
     32        8          -0.002083462   -0.002248594   -0.000752601
     33        6           0.000171381   -0.000357123   -0.001459010
     34        6          -0.000190711   -0.000463270   -0.001050896
     35        1           0.000023393    0.000075722   -0.000108756
     36        1          -0.000105735   -0.000041198    0.000020888
     37        1           0.000030737   -0.000147692   -0.000112916
     38        1           0.000146291   -0.000052940   -0.000210520
     39        1           0.000033655    0.000147636   -0.000064096
     40        8          -0.001728799   -0.000772930    0.000137014
     41        6          -0.000005472   -0.000340769    0.000180894
     42        6           0.000173247   -0.000327778    0.000288433
     43        1          -0.000005657   -0.000044946    0.000059939
     44        1          -0.000009802   -0.000014769   -0.000010923
     45        1           0.000060214   -0.000017070    0.000021564
     46        1           0.000026358    0.000011406   -0.000048304
     47        1           0.000032414   -0.000034651    0.000058317
     48        8           0.002712203    0.001852795   -0.000574068
     49        6           0.001089758    0.000820642    0.000322021
     50        6           0.000952148    0.000985106    0.000858714
     51        1           0.000083898    0.000105153    0.000083221
     52        1           0.000071444    0.000064105    0.000039625
     53        1           0.000053721    0.000048091    0.000091129
     54        1           0.000057689    0.000004165   -0.000004032
     55        1           0.000071714    0.000067293    0.000055573
     56        8          -0.001141734   -0.001228866    0.000909048
     57        6          -0.000789181   -0.000237556    0.000033521
     58        6          -0.000100692   -0.000075121    0.000041244
     59        1          -0.000014430   -0.000027202    0.000015076
     60        1           0.000033804   -0.000013389    0.000014494
     61        1          -0.000005035    0.000032680   -0.000020121
     62        1          -0.000034583    0.000006755   -0.000016804
     63        1          -0.000104721   -0.000012947   -0.000015406
 -------------------------------------------------------------------
 Cartesian Forces:  Max     0.006742071 RMS     0.000924450

 GradGradGradGradGradGradGradGradGradGradGradGradGradGradGradGradGradGrad
 Berny optimization.
 FormGI is forming the generalized inverse of G from B-inverse, IUseBI=4.
 Internal  Forces:  Max     0.010490867 RMS     0.001228241
 Search for a local minimum.
 Step number   1 out of a maximum of  324
 All quantities printed in internal units (Hartrees-Bohrs-Radians)
 Mixed Optimization -- RFO/linear search
 Second derivative matrix not updated -- first step.
 ITU=  0
     Eigenvalues ---    0.00230   0.00230   0.00490   0.00500   0.00508
     Eigenvalues ---    0.00523   0.00554   0.00611   0.00695   0.00897
     Eigenvalues ---    0.01108   0.01127   0.01385   0.01510   0.01520
     Eigenvalues ---    0.01563   0.01646   0.01697   0.01789   0.02098
[...]
 0000038,-0.00000010,0.00000039,0.00000014,-0.00000013,0.00000014,0.000
 00030,0.00000061,-0.00000011,-0.00000020,-0.00002256,0.00001979,0.0000
 1429,0.00006168,-0.00001078,-0.00002017,-0.00000630,-0.00000569,-0.000
 00340,0.00000893,0.00000716,0.00000456,0.00000118,0.00000708,0.0000055
 3,-0.00000804,-0.00000164,0.00000058,0.00000849,0.00000079,-0.00000571
 ,-0.00002115,0.00000162,0.00001012,-0.00001391,-0.00001666,-0.00001145
 ,-0.00000630,0.00000107,0.00000396,0.,0.00000084,0.00000106,0.00000427
 ,0.,0.00000020,0.00043329,0.00074194,-0.00049353,-0.00006603,-0.000224
 43,0.00028058,0.00012416,-0.00000390,-0.00006084,0.00000616,0.00002693
 ,-0.00004263,0.00001294,0.00005637,-0.00003627,0.00000851,-0.00000111,
 0.00000662,-0.00005196,0.00002333,-0.00005142,-0.00004168,0.00004736,0
 .00002236,-0.00137288,0.00036224,0.00154979,-0.00009659,0.00002817,0.0
 0001388,0.00011884,-0.00000261,-0.00000224,-0.00003327,-0.00001191,0.0
 0000040,-0.00000112,0.00000519,0.00001033,0.00000434,0.00000768,-0.000
 01188,-0.00000206,0.00000676,-0.00001353,0.00001549,0.00001800,0.00001
 604,-0.00000081,-0.00007995,0.00000276,0.00032003,-0.00037259,0.000305
 21,-0.00001601,0.00014517,-0.00021092,0.00000896,-0.00000114,0.0000365
 9,-0.00000282,0.00000433,-0.00000984,-0.00000172,-0.00000046,-0.000006
 07,0.00000362,-0.00002164,0.00000964,0.00002427,-0.00002289,0.00004134
 ,-0.00001570,-0.00000024,0.00001882,-0.00034095,-0.00039710,-0.0003727
 6,0.00005538,0.00020662,0.00012739,0.00002177,-0.00004312,-0.00002748,
 0.00000620,-0.00000972,0.00001643,-0.00000264,0.00001355,-0.00001793,-
 0.00002892,-0.00000940,-0.00000158,-0.00000623,-0.00003503,-0.00003012
 ,-0.00000668,-0.00003232,-0.00001484,0.00616117,-0.00739653,0.00092237
 ,0.02763629,0.00052542,-0.00780968,0.03414715,-0.05317288,-0.00581822,
 -0.02166405,0.00395640,0.00560827,-0.00380570,-0.00044165,0.00009147,-
 0.04015563,0.05426161,-0.00000984,0.00000311,0.00000357,0.00000791,-0.
 00000090,-0.00000197,-0.00000395,0.00000164,0.00000188,0.00000020,-0.0
 0000005,-0.00000009,0.00000340,-0.00000284,-0.00000211,0.00000031,-0.0
 0000036,-0.00000011,0.00000020,-0.00000008,-0.00000029,-0.00000021,0.0
 0000005,0.00000020,-0.00000014,0.00000018,0.00000011,0.00000046,-0.000
 00016,-0.00000020,-0.00000254,-0.00000487,-0.00000385,0.00000646,0.000
 01051,0.00000234,-0.00000162,-0.00000258,-0.00000215,0.00000008,-0.000
 00036,0.00000033,-0.00000054,0.00000067,0.00000058,0.00000100,-0.00000
 143,-0.00000108,-0.00000003,0.00000009,0.00000082,-0.00000011,-0.00000
 250,0.00000311,0.00000016,0.00000370,-0.00000315,-0.00000004,0.0000010
 9,-0.00000020,-0.00000006,0.00000036,0.00000012,-0.00000023,0.00000011
 ,-0.00000021,-0.00007068,-0.00033143,0.00021429,-0.00002214,0.00007148
 ,-0.00007032,-0.00012410,0.00003643,0.00003899,-0.00001760,0.00000004,
 0.00002853,0.00001091,-0.00002854,0.00001377,0.00004080,0.00000147,-0.
 00000267,0.00001542,-0.00007141,-0.00000453,0.00004260,-0.00001180,-0.
 00001352,0.00005409,0.00042256,-0.00036558,-0.00001799,-0.00000324,-0.
 00000457,0.00004505,0.00001227,0.00003112,-0.00002161,0.00000034,0.000
 00308,0.00000096,-0.00000593,-0.00000448,-0.00000252,0.00000398,-0.000
 00096,0.00000345,0.00000360,-0.00000945,-0.00000159,0.00000121,-0.0000
 0119,0.00000924,-0.00002134,0.00000761,0.00000113,0.00001423,-0.000060
 22,-0.00001479,-0.00000036,0.00002199,0.00000135,-0.00000017,-0.000005
 87,-0.00000106,0.00000026,0.00000145,0.00000119,-0.00000115,-0.0000003
 5,-0.00000088,0.00000262,-0.00000047,-0.00000077,0.00000203,-0.0000057
 6,0.00000032,0.00000258,-0.00000316,0.00004399,-0.00003578,0.00003436,
 0.00003407,0.00002712,0.00002256,-0.00000464,-0.00000687,0.00000809,0.
 00000172,-0.00000236,0.00000291,0.00000588,0.00000650,-0.00000789,-0.0
 0000108,-0.00000009,-0.00000013,-0.00000279,0.00000380,0.00000049,-0.0
 0000736,-0.00000840,-0.00000438,-0.00184607,0.00255165,0.00122936,-0.0
 0923008,-0.00050608,0.00026380,0.04780551,-0.00620043,-0.05583547,-0.0
 1586328,0.00354919,0.00280966,0.03107150,-0.00492189,-0.00438172,-0.05
 226492,0.00633784,0.05578905,0.00009997,-0.00002024,-0.00003337,-0.000
 08264,0.00000363,0.00001692,0.00003549,-0.00001331,-0.00001728,-0.0000
 0201,0.00000181,0.00000205,-0.00003587,0.00001727,0.00001907,-0.000002
 92,0.00000270,0.00000216,-0.00000271,0.00000190,0.00000269,0.00000124,
 -0.00000111,-0.00000137,0.00000110,-0.00000132,-0.00000142,-0.00000394
 ,0.00000075,0.00000139,-0.00006984,-0.00009936,-0.00006253,0.00020483,
 0.00010965,0.00004036,-0.00002071,0.00000996,0.00002018,-0.00001251,0.
 00000336,0.00000422,-0.00000553,-0.00001281,-0.00001132,-0.00001187,0.
 00001736,0.00001772,-0.00002035,-0.00000671,-0.00000041,0.00004482,0.0
 0001051,-0.00002100,0.00004142,0.00000037,0.00001853,0.00001053,-0.000
 00523,-0.00000496,-0.00000252,-0.00000214,-0.00000104,-0.00000110,-0.0
 0000221,-0.00000078,-0.00070718,-0.00037775,0.00126859,0.00015200,0.00
 024303,-0.00054949,-0.00006159,-0.00005174,0.00011311,0.00000178,-0.00
 003565,0.00009181,-0.00003895,-0.00005613,0.00006464,0.00001519,0.0000
 1657,-0.00001230,0.00001167,0.00001055,-0.00001634,0.00000349,-0.00006
 035,0.00001434,0.00221137,-0.00639120,-0.00694516,-0.00009354,-0.00008
 028,-0.00008421,0.00002229,0.00002052,0.00009859,-0.00004125,0.0000032
 4,0.00000142,0.00001161,-0.00001525,-0.00002007,-0.00000461,0.00000065
 ,0.00001622,0.00000139,0.00000613,-0.00002218,-0.00004209,-0.00001915,
 -0.00003041,-0.00004350,0.00012012,0.00009104,-0.00055489,0.00102541,-
 0.00049331,0.00003522,-0.00034462,0.00046478,-0.00003529,-0.00000456,-
 0.00008744,0.00001055,0.00001781,0.00002965,0.00001246,0.00000111,0.00
 001346,-0.00000313,0.00004716,-0.00001609,-0.00001208,0.00003319,-0.00
 007663,0.00002563,-0.00002563,-0.00007819,0.00209063,0.00147765,0.0013
 3806,0.00004774,-0.00034589,-0.00021535,-0.00019207,0.00009364,0.00020
 523,0.00002037,0.00014598,-0.00008928,0.00004392,-0.00002447,0.0001061
 9,0.00014728,0.00000561,-0.00005490,0.00003096,0.00005315,0.00002833,0
 .00000886,0.00004693,0.00003313,-0.04524840,-0.01315879,-0.00763241,-0
 .10086360,-0.08395946,-0.05977829,0.00663348,0.00617895,0.00432358,0.0
 0035085,0.00240888,-0.00094429,-0.00007543,-0.00045135,-0.00005736,0.0
 0041103,-0.00090724,0.00012904,0.13079788,0.00003219,-0.00001943,-0.00
 002173,-0.00002352,0.00000510,0.00000782,0.00001125,-0.00000545,-0.000
 00604,-0.00000068,0.00000025,0.00000069,-0.00000920,0.00001540,0.00001
 399,-0.00000109,0.00000124,0.00000042,-0.00000099,0.00000029,0.0000010
 4,0.00000052,0.00000007,-0.00000070,0.00000050,-0.00000062,-0.00000028
 ,-0.00000139,0.00000032,0.00000058,-0.00004119,0.00000697,0.00000283,0
 .00011221,0.00000764,-0.00001252,-0.00001634,0.00000255,0.00000246,0.0
 0000199,0.00000704,0.00000609,-0.00000072,0.00000133,0.00000042,-0.000
 01304,0.00000617,0.00000839,0.00000121,0.00000162,-0.00000316,-0.00000
 956,-0.00000244,0.00000379,-0.00000228,-0.00000739,-0.00000484,0.00000
 057,-0.00000139,0.00000110,-0.00000075,-0.00000060,0.00000024,0.000004
 42,-0.00000125,-0.00000022,-0.00000036,0.00000549,0.00002847,-0.000031
 00,-0.00009904,-0.00006291,0.00004618,0.00000589,0.00002116,0.00000482
 ,0.00001501,0.00001450,-0.00000224,0.00002246,0.00000300,0.00001397,0.
 00000320,0.00000416,-0.00002753,-0.00000848,-0.00003600,-0.00001341,-0
 .00000087,0.00001135,0.00103859,0.00079818,0.00009856,-0.00013231,0.00
 001810,0.00001110,0.00012511,-0.00001937,0.00001595,-0.00002162,-0.000
 00635,-0.00000139,-0.00000124,-0.00000293,0.00001498,0.00000004,0.0000
 1093,-0.00000374,-0.00000447,0.00000512,-0.00001328,0.00001483,0.00001
 858,0.00000907,-0.00000303,-0.00005481,-0.00001115,0.00004026,-0.00005
 606,0.00000803,0.00000420,-0.00002352,-0.00003494,-0.00000361,-0.00000
 135,0.00001115,0.00000573,-0.00000034,0.00000262,-0.00000096,0.0000020
 0,0.00000024,-0.00000181,-0.00000216,-0.00000130,0.00000139,0.00000259
 ,0.00000118,-0.00002793,0.00000705,0.00000050,-0.00046034,0.00015878,0
 .00065973,-0.00002877,-0.00010353,-0.00006514,-0.00009318,0.00001672,-
 0.00011931,0.00001914,0.00001040,-0.00002344,0.00004183,-0.00001945,0.
 00009107,0.00003505,-0.00003957,-0.00000658,-0.00000807,0.00002687,0.0
 0000836,0.00001901,0.00000473,0.00001783,0.00205892,0.00861006,0.00395
 213,-0.08424654,-0.16950990,-0.08672791,-0.01439577,-0.02347323,-0.016
 09213,0.00223813,-0.00498513,0.00241505,-0.00048724,0.00164215,0.00036
 637,0.00049838,0.00066213,-0.00026274,0.09179923,0.18292535,0.00004140
 ,-0.00001461,-0.00001895,-0.00003222,0.00000320,0.00000783,0.00001444,
 -0.00000604,-0.00000698,-0.00000083,0.00000062,0.00000077,-0.00001347,
 0.00001207,0.00001124,-0.00000127,0.00000129,0.00000077,-0.00000117,0.
 00000070,0.00000114,0.00000055,-0.00000023,-0.00000068,0.00000052,-0.0
 0000068,-0.00000054,-0.00000164,0.00000033,0.00000068,-0.00004553,-0.0
 0002145,-0.00000146,0.00012618,0.00003996,-0.00000866,-0.00001714,0.00
 000246,0.00000445,-0.00000101,0.00000641,0.00000621,-0.00000158,-0.000
 00127,-0.00000154,-0.00001138,0.00000726,0.00000864,-0.00000174,0.0000
 0252,-0.00000192,-0.00000100,-0.00000517,0.00000121,0.00000303,0.00000
 145,-0.00000193,0.00000223,-0.00000135,0.00000054,-0.00000125,-0.00000
 059,0.,0.00000324,-0.00000086,-0.00000087,0.00001337,-0.00018595,-0.00
 010142,0.00001213,0.00005953,-0.00001471,0.00000319,-0.00000431,-0.000
 00214,0.00000718,-0.00000294,-0.00000141,-0.00001124,-0.00000820,0.000
 00511,-0.00000400,0.00000196,-0.00000263,0.00000266,0.00001459,0.00000
 649,-0.00000382,-0.00000595,0.00000344,0.00136643,0.00017584,0.0008545
 8,-0.00015336,-0.00001348,0.00002857,0.00013138,0.00000144,0.00000727,
 -0.00000709,-0.00001004,-0.00001671,0.00000090,0.00002395,0.00003215,0
 .00002139,-0.00001657,0.00000972,-0.00002059,-0.00000577,0.00000016,-0
 .00001686,-0.00000030,-0.00000492,0.00004585,0.00002870,-0.00004278,-0
 .00016246,0.00032018,-0.00022214,0.00002947,-0.00011240,0.00007675,-0.
 00002997,-0.00000869,-0.00002543,0.00000429,0.00001695,0.00002282,0.00
 001301,0.00000578,0.00000722,-0.00000170,0.00001101,-0.00000598,0.0000
 0799,0.00001224,-0.00002038,-0.00001644,-0.00001778,-0.00003894,-0.000
 69359,0.00067755,0.00039362,-0.00007366,-0.00021262,-0.00021031,-0.000
 02959,-0.00011856,0.00012098,0.00001928,0.00006035,-0.00004620,0.00000
 507,-0.00001812,-0.00004048,0.00001959,0.00001500,-0.00003388,0.000020
 69,0.00002736,0.00001865,-0.00001482,0.00005491,0.00004146,0.00361903,
 0.00579437,0.00789541,-0.06262431,-0.08876716,-0.11954636,0.00496730,0
 .00891534,0.00567107,-0.00019898,0.00268477,0.00058796,0.00058081,-0.0
 0041744,0.00104983,0.00012689,-0.00081366,0.00024498,0.06800495,0.0942
 4515,0.11973237,0.00004528,0.00002090,0.00001372,-0.00004499,-0.000005
 85,0.00000154,0.00001805,-0.00000516,-0.00000666,-0.00000074,0.0000007
 5,0.00000096,-0.00002295,-0.00001380,-0.00001188,-0.00000081,0.0000009
 8,0.00000135,-0.00000081,0.00000127,0.00000061,0.00000051,-0.00000095,
 -0.00000028,0.00000018,-0.00000035,-0.00000127,-0.00000175,0.00000035,
 0.00000064,0.00007473,-0.00003652,-0.00005894,-0.00018774,0.00001656,0
 .00008814,0.00002258,0.00001275,0.00000940,-0.00002331,-0.00001578,-0.
 00001369,-0.00000241,-0.00001915,-0.00001618,0.00002331,0.00000303,-0.
 00000229,-0.00002307,0.00000189,0.00001002,0.00005745,0.00000092,-0.00
 002714,0.00003613,0.00003175,0.00003663,0.00001739,-0.00000700,-0.0000
 0899,0.00000019,-0.00000288,-0.00000199,-0.00001144,-0.00000136,0.0000
 0210,-0.00071630,-0.00088498,0.00093853,0.00006663,0.00037889,-0.00054
 068,-0.00006930,-0.00003016,0.00012459,0.00000389,-0.00004048,0.000081
 17,-0.00004547,-0.00008914,0.00009081,0.00000538,0.00000592,-0.0000167
 5,0.00001553,0.00000736,-0.00001460,0.00000632,-0.00006568,0.00000417,
 0.00245748,-0.00263535,-0.00109484,0.00027945,-0.00002617,-0.00011235,
 -0.00029052,0.00005614,0.00005467,0.00002769,-0.00000353,0.00000386,0.
 00000448,-0.00004483,-0.00005516,-0.00005764,0.00003561,-0.00001259,0.
 00002955,0.00001991,0.00000441,0.00003143,-0.00000660,0.00000029,-0.00
 003639,-0.00003520,0.00012592,-0.00114826,0.00137879,-0.00147269,-0.00
 001509,-0.00049680,0.00074116,0.00002365,0.00000595,-0.00013940,-0.000
 00086,-0.00000764,0.00002729,0.00001230,-0.00003303,0.00001183,-0.0000
 0965,0.00006586,-0.00002576,-0.00002882,0.00005442,-0.00014826,0.00007
 164,0.00009055,-0.00023133,0.00088354,0.00082518,0.00087677,-0.0001436
 8,-0.00042827,-0.00024379,-0.00007776,0.00008386,0.00005178,0.00000160
 ,0.00003407,-0.00003537,0.00002264,-0.00002285,0.00005271,0.00007200,0
 .00000987,-0.00000253,0.00001742,0.00007674,0.00006632,0.00001761,0.00
 006918,0.00003592,-0.03037535,0.00269574,0.03955725,-0.04825538,-0.007
 51242,0.02905459,0.00300430,0.00072983,-0.00885084,0.00004899,-0.00000
 965,0.00070886,0.00041373,0.00237424,-0.00034277,0.00032358,-0.0004972
 6,0.00019680,0.00475502,0.00194255,-0.01502075,0.06869882,-0.00003180,
 0.00001115,0.00001629,0.00002446,-0.00000191,-0.00000634,-0.00001030,0
 .00000391,0.00000576,0.00000065,-0.00000075,-0.00000060,0.00001001,-0.
 00000870,-0.00001012,0.00000100,-0.00000076,-0.00000076,0.00000090,-0.
 00000069,-0.00000104,-0.00000031,0.00000038,0.00000055,-0.00000040,0.0
 0000051,0.00000022,0.00000119,-0.00000023,-0.00000038,0.00004887,0.000
 02549,0.00000102,-0.00012961,-0.00004825,0.00001016,0.00001869,0.00000
 157,-0.00000509,0.00000073,-0.00000599,-0.00000640,0.00000228,0.000001
 25,0.00000042,0.00001094,-0.00000717,-0.00000671,0.00000115,0.00000276
 ,-0.00000505,0.00000118,-0.00000119,0.00000484,-0.00000677,0.00000080,
 -0.00000105,-0.00000150,-0.00000125,0.00000164,0.00000141,0.,0.0000001
 7,-0.00000296,0.00000057,0.00000151,0.00010929,0.00032781,-0.00022117,
 -0.00001977,-0.00015529,0.00011130,0.00007834,0.00000150,-0.00003187,0
 .00000248,0.00000536,-0.00003225,0.00000377,0.00003777,-0.00002236,-0.
 00002724,-0.00000115,0.00000430,-0.00001060,0.00001445,0.00000831,-0.0
 0001103,0.00001642,0.00000109,-0.00047820,0.00056579,0.00024984,0.0001
 7028,0.00001118,-0.00002194,-0.00015197,0.00000575,-0.00002231,0.00000
 212,0.00004289,0.00001606,-0.00000173,-0.00001611,-0.00003535,-0.00000
 241,-0.00000306,-0.00000244,0.00001779,-0.00001014,0.00000673,0.000013
 29,-0.00000278,0.00001547,-0.00002511,-0.00001137,0.00005073,0.0001912
 8,-0.00035778,0.00031129,0.00002409,0.00008667,-0.00018960,-0.00000610
 ,-0.00000376,0.00004455,0.00000034,-0.00000682,-0.00002029,-0.00001219
 ,0.00000970,-0.00000183,0.00000702,-0.00001692,0.00000717,-0.00002828,
 -0.00000148,0.00003933,0.00002489,-0.00001744,0.00009145,-0.00003074,-
 0.00014233,-0.00015188,0.00000817,0.00012026,0.00008182,-0.00002588,-0
 .00001961,-0.00004328,-0.00000538,0.00003286,-0.00001268,0.00000999,-0
 .00000527,0.00005377,0.00001252,-0.00002505,-0.00001150,0.00000434,-0.
 00002013,-0.00002218,0.00001197,-0.00002502,-0.00001381,0.00493848,0.0
 0260804,-0.00607541,-0.00690565,-0.05460665,0.02586400,-0.00348449,-0.
 00543807,0.03239278,-0.00075705,0.00149660,-0.00048441,0.00178940,-0.0
 0566222,0.00203740,0.00013789,0.00117695,-0.00063657,0.00253920,0.0034
 1687,-0.02243303,0.00194705,0.05660005,-0.00004964,-0.00000536,-0.0000
 0263,0.00004486,0.00000171,-0.00000321,-0.00001916,0.00000720,0.000005
 84,0.00000082,-0.00000042,-0.00000129,0.00002127,0.00000142,0.00000575
 ,0.00000114,-0.00000167,-0.00000126,0.00000122,-0.00000116,-0.00000038
 ,-0.00000072,0.00000035,0.00000041,-0.00000022,0.00000057,0.00000163,0
 .00000185,-0.00000030,-0.00000091,-0.00000933,0.00003511,0.00005186,0.
 00002095,-0.00002893,-0.00005891,-0.00000483,-0.00000828,-0.00000742,0
 .00001241,0.00000422,0.00000420,0.00000183,0.00001026,0.00001047,-0.00
 000648,-0.00000529,-0.00000297,0.00001565,-0.00000281,-0.00000090,-0.0
 0003336,-0.00000703,0.00001713,-0.00002346,-0.00000316,-0.00002149,-0.
 00001095,0.00000691,0.00000202,0.00000049,0.00000248,0.00000007,0.0000
 0433,0.00000234,-0.00000204,0.00038076,0.00026699,-0.00032899,-0.00008
 377,-0.00012789,0.00020685,-0.00003586,0.00002242,-0.00003710,-0.00000
 926,0.00001757,-0.00001809,0.00003342,0.00002029,-0.00003175,0.0000099
 8,-0.00000297,0.00001076,0.00001284,-0.00002144,0.00000759,0.00001169,
 0.00002499,-0.00001353,-0.00240902,0.00178617,0.00143525,-0.00009522,0
 .00002290,0.00009456,0.00010294,-0.00000441,-0.00009027,0.00001525,-0.
 00000900,-0.00001796,-0.00001399,0.00003823,0.00003807,0.00002660,-0.0
 0002694,-0.00000366,-0.00001799,-0.00001140,0.00001585,-0.00000240,0.0
 0000097,0.00000893,0.00004133,-0.00002053,-0.00006646,0.00054601,-0.00
 070762,0.00064801,0.00009727,0.00026282,-0.00062640,-0.00001690,-0.000
 01646,0.00008771,0.00000303,0.00000015,-0.00003027,-0.00001844,0.00001
 557,-0.00000107,0.00001375,-0.00004088,0.00002145,0.00001145,-0.000025
 44,0.00007629,-0.00013332,0.00005728,0.00010705,-0.00008969,-0.0004563
 7,-0.00030279,0.00005764,0.00030592,0.00018752,-0.00002439,-0.00001422
 ,-0.00007655,-0.00000234,0.00002626,0.00000432,0.00001698,0.00000386,0
 .00005358,-0.00000110,-0.00003817,-0.00001474,-0.00000870,-0.00003726,
 -0.00004250,0.00001623,-0.00006074,-0.00002194,0.01457148,-0.00323524,
 -0.00072996,0.03153642,0.02752709,-0.28663318,0.00015149,0.00156269,-0
 .00938860,0.00039767,0.00016554,0.00096404,-0.00078861,0.00174398,0.00
 128807,-0.00058454,0.00042754,0.00001892,0.00077768,0.00144989,-0.0164
 3372,-0.04446506,-0.03090028,0.30963874\\-0.00000141,-0.00000095,-0.00
 000060,0.00000228,0.,0.00000014,-0.00000166,0.00000166,0.00000167,0.00
 000060,0.00000007,0.00000115,0.00000032,0.00000059,0.00000129,0.000000
 42,0.,0.00000085,0.00000054,-0.00000004,0.00000064,0.,0.00000039,0.000
 00107,0.00000009,0.00000022,0.00000087,0.00000011,0.00000042,0.0000009
 1,0.00000514,-0.00000156,-0.00000318,-0.00003447,0.00000029,0.00001374
 ,-0.00000777,0.00000053,-0.00000092,0.00000038,0.00000164,0.00000101,-
 0.00000015,0.00000058,0.00000096,-0.00000050,-0.00000025,0.00000010,0.
 00000123,0.,0.00000056,-0.00000018,0.00000038,0.00000075,-0.00000092,0
 .00000024,0.00000057,-0.00000009,-0.00000003,0.00000020,-0.00000024,-0
 .00000003,0.00000057,-0.00000038,-0.00000037,0.00000045,0.00000168,-0.
 00000116,-0.00000392,-0.00000025,-0.00000070,0.00000368,0.00000038,0.0
 0000085,-0.00000037,0.00000021,-0.00000011,-0.00000070,0.00000027,0.00
 000032,-0.00000017,0.00000031,-0.00000004,-0.00000025,0.00000008,-0.00
 000004,-0.00000064,-0.00000005,0.00000030,-0.00000012,-0.00000664,0.00
 000920,0.00000105,0.00002868,-0.00000317,-0.00001130,0.00001054,0.,-0.
 00000150,-0.00000167,-0.00000032,0.00000003,0.00000001,0.00000018,0.00
 000031,-0.00000055,0.00000008,0.00000019,-0.00000009,0.00000005,0.0000
 0014,-0.00000136,0.00000027,0.00000082,-0.00000011,-0.00000021,-0.0000
 0087,-0.00000166,0.00000202,-0.00000380,0.00000053,-0.00000511,0.00000
 676,-0.00000028,0.00000259,-0.00000088,0.00000003,0.00000002,-0.000000
 22,0.00000010,-0.00000026,-0.00000003,0.00000003,-0.00000036,-0.000000
 05,-0.00000085,0.00000053,-0.00000097,0.00000011,0.00000047,-0.0000013
 7,0.00000440,-0.00000900,-0.00000202,0.00000074,0.00000277,0.00000058,
 -0.00000006,-0.00000127,-0.00000104,0.00000037,-0.00000015,-0.00000053
 ,0.00000037,-0.00000012,-0.00000064,0.00000023,-0.00000015,-0.00000060
 ,0.00000054,-0.00000052,-0.00000075,0.00000058,-0.00000059,-0.00000042
 ,0.00000220,0.00000068,0.00000049,-0.00000323,0.00000081,-0.00000041,0
 .00000059,-0.00000084,-0.00000001,-0.00000052,0.00000004,-0.00000049,0
 .00000017,-0.00000013,-0.00000066,-0.00000019,-0.00000022,-0.00000106,
 0.00000055,-0.00000023,-0.00000035,0.00000048,-0.00000028,-0.00000071\
 \\@


 ADVERTISING--  HE WHO HAS SOMETHING TO SELL AND GOES AND WHISPERS
                IN A WELL, IS NOT SO APT TO GET THE DOLLARS AS HE
                WHO CLIMBS A TREE AND HOLLERS.

                   -- FROM THE BACK OF A SUGAR PACKET
 Job cpu time:       2 days  7 hours  9 minutes 29.3 seconds.
 Elapsed time:       0 days  1 hours 31 minutes 59.9 seconds.
 File lengths (MBytes):  RWF=   5145 Int=      0 D2E=      0 Chk=     98 Scr=      1
 Normal termination of Gaussian 16 at Sun Sep 22 08:42:21 2019.
