 Entering Gaussian System, Link 0=g16
 Initial command:
 /nopt/nrel/apps/gaussian/g16C_1/g16/l1.exe "/dev/shm/Gau-194676.inp" -scrdir="/dev/shm/"
 Default is to use a total of  36 processors:
                               36 via shared-memory
                                1 via Linda
 Entering Link 1 = /nopt/nrel/apps/gaussian/g16C_1/g16/l1.exe PID=    194677.
  
 Copyright (c) 1988-2019, Gaussian, Inc.  All Rights Reserved.
 ...
 ******************************************
 Gaussian 16:  ES64L-G16RevC.01  3-Jul-2019
                20-Aug-2021 
 ******************************************
 %RWF=/dev/shm/,5GB,/scratch/hmayes/cid_10987172_0_7293516/,-1
 %NoSave
 %Chk=/dev/shm/cid_10987172_0.chk
 %CPU=0-35
 SetSPE:  set environment variable "MP_BIND" = "yes"
 SetSPE:  set environment variable "MP_BLIST" = "0,1,2,3,4,5,6,7,8,9,10,11,12,13,14,15,16,17,18,19,20,21,22,23,24,25,26,27,28,29,30,31,32,33,34,35"
 Will use up to   36 processors via shared memory.
 %Mem=72948012KB
 Default route: CacheSize=180224 MaxDisk=256GB
 ----------------------------------------------------------------------
 # m062x/Def2TZVP nosymm scf=xqc opt pop=NBO freq=NoRaman CPHF=Grid=Fin
 e SCRF=(Solvent=1,2-EthaneDiol,Read)
 ----------------------------------------------------------------------
 1/4=180224,18=20,19=15,26=3,38=1,40=2/1,3;
 2/4=180224,9=110,12=2,15=1,17=6,18=5,40=1/2;
 3/4=180224,5=44,7=101,11=2,25=1,30=1,70=2203,71=1,72=30,74=-55/1,2,3;
 4/4=180224/1;
 5/4=180224,5=2,8=3,13=1,38=5,53=30/2,8;
 6/4=180224,7=2,8=2,9=2,10=2,28=1,40=1/1,7;
 7/4=180224,30=1/1,2,3,16;
 1/4=180224,18=20,19=15,26=3/3(2);
 2/4=180224,9=110,15=1/2;
 99/4=180224/99;
 2/4=180224,9=110,15=1/2;
 3/4=180224,5=44,7=101,11=2,25=1,30=1,70=2205,71=1,72=30,74=-55/1,2,3;
 4/4=180224,5=5,16=3,69=1/1;
 5/4=180224,5=2,8=3,13=1,38=5,53=30/2,8;
 7/4=180224,30=1/1,2,3,16;
 1/4=180224,18=20,19=15,26=3/3(-5);
 2/4=180224,9=110,15=1/2;
 6/4=180224,7=2,8=2,9=2,10=2,19=2,28=1,40=1/1,7;
 99/4=180224,9=1/99;
 ---
 tpl
 ---
 Symbolic Z-matrix:
 Charge =  0 Multiplicity = 1
 C                     2.349     0.047     0.778 
 C                     1.156    -0.44      0.488 
 C                     0.463    -0.148    -0.792 
 C                    -0.863     0.541    -0.579 
 C                    -1.817    -0.286     0.245 
 I                    -3.629     0.86      0.432 
 H                     2.912     0.694     0.11 
 H                     2.823    -0.186     1.717 
 H                     0.672    -1.076     1.217 
 H                     1.104     0.56     -1.357 
 H                     0.371    -1.052    -1.427 
 H                    -1.35      0.708    -1.562 
 H                    -0.697     1.52     -0.123 
 H                    -2.07     -1.184    -0.378 
 H                    -1.424    -0.558     1.232 
 

 GradGradGradGradGradGradGradGradGradGradGradGradGradGradGradGradGradGrad
 Berny optimization.
 Initialization pass.
                           ----------------------------
                           !    Initial Parameters    !
                           ! (Angstroms and Degrees)  !
 --------------------------                            --------------------------
 ! Name  Definition              Value          Derivative Info.                !
 --------------------------------------------------------------------------------
 ! R1    R(1,2)                  1.3208         estimate D2E/DX2                !
 ! R2    R(1,7)                  1.0871         estimate D2E/DX2                !
 ! R3    R(1,8)                  1.0774         estimate D2E/DX2                !
 ! R4    R(2,3)                  1.4846         estimate D2E/DX2                !
 ! R5    R(2,9)                  1.0818         estimate D2E/DX2                !
 ! R6    R(3,4)                  1.5094         estimate D2E/DX2                !
 ! R7    R(3,10)                 1.1097         estimate D2E/DX2                !
 ! R8    R(3,11)                 1.1086         estimate D2E/DX2                !
 ! R9    R(4,5)                  1.5077         estimate D2E/DX2                !
 ! R10   R(4,12)                 1.1097         estimate D2E/DX2                !
 ! R11   R(4,13)                 1.0927         estimate D2E/DX2                !
 ! R12   R(5,6)                  2.1521         estimate D2E/DX2                !
 ! R13   R(5,14)                 1.1218         estimate D2E/DX2                !
 ! R14   R(5,15)                 1.0966         estimate D2E/DX2                !
 ! A1    A(2,1,7)              123.5252         estimate D2E/DX2                !
 ! A2    A(2,1,8)              120.5987         estimate D2E/DX2                !
 ! A3    A(7,1,8)              115.8761         estimate D2E/DX2                !
 ! A4    A(1,2,3)              122.5764         estimate D2E/DX2                !
 ! A5    A(1,2,9)              118.2255         estimate D2E/DX2                !
 ! A6    A(3,2,9)              119.1981         estimate D2E/DX2                !
 ! A7    A(2,3,4)              112.2218         estimate D2E/DX2                !
 ! A8    A(2,3,10)             107.1484         estimate D2E/DX2                !
 ! A9    A(2,3,11)             111.8533         estimate D2E/DX2                !
 ! A10   A(4,3,10)             106.7421         estimate D2E/DX2                !
 ! A11   A(4,3,11)             112.3437         estimate D2E/DX2                !
 ! A12   A(10,3,11)            106.0561         estimate D2E/DX2                !
 ! A13   A(3,4,5)              112.4957         estimate D2E/DX2                !
 ! A14   A(3,4,12)             109.2221         estimate D2E/DX2                !
 ! A15   A(3,4,13)             109.5366         estimate D2E/DX2                !
 ! A16   A(5,4,12)             106.7985         estimate D2E/DX2                !
 ! A17   A(5,4,13)             111.0703         estimate D2E/DX2                !
 ! A18   A(12,4,13)            107.5492         estimate D2E/DX2                !
 ! A19   A(4,5,6)              106.7481         estimate D2E/DX2                !
 ! A20   A(4,5,14)             106.157          estimate D2E/DX2                !
 ! A21   A(4,5,15)             113.6528         estimate D2E/DX2                !
 ! A22   A(6,5,14)             106.5361         estimate D2E/DX2                !
 ! A23   A(6,5,15)             110.8305         estimate D2E/DX2                !
 ! A24   A(14,5,15)            112.4635         estimate D2E/DX2                !
 ! D1    D(7,1,2,3)              0.0457         estimate D2E/DX2                !
 ! D2    D(7,1,2,9)           -179.98           estimate D2E/DX2                !
 ! D3    D(8,1,2,3)           -179.9785         estimate D2E/DX2                !
 ! D4    D(8,1,2,9)             -0.0042         estimate D2E/DX2                !
 ! D5    D(1,2,3,4)           -120.0439         estimate D2E/DX2                !
 ! D6    D(1,2,3,10)            -3.1902         estimate D2E/DX2                !
 ! D7    D(1,2,3,11)           112.6337         estimate D2E/DX2                !
 ! D8    D(9,2,3,4)             59.9821         estimate D2E/DX2                !
 ! D9    D(9,2,3,10)           176.8358         estimate D2E/DX2                !
 ! D10   D(9,2,3,11)           -67.3404         estimate D2E/DX2                !
 ! D11   D(2,3,4,5)            -59.9377         estimate D2E/DX2                !
 ! D12   D(2,3,4,12)          -178.3407         estimate D2E/DX2                !
 ! D13   D(2,3,4,13)            64.1072         estimate D2E/DX2                !
 ! D14   D(10,3,4,5)          -177.0346         estimate D2E/DX2                !
 ! D15   D(10,3,4,12)           64.5624         estimate D2E/DX2                !
 ! D16   D(10,3,4,13)          -52.9897         estimate D2E/DX2                !
 ! D17   D(11,3,4,5)            67.1224         estimate D2E/DX2                !
 ! D18   D(11,3,4,12)          -51.2806         estimate D2E/DX2                !
 ! D19   D(11,3,4,13)         -168.8328         estimate D2E/DX2                !
 ! D20   D(3,4,5,6)           -179.9912         estimate D2E/DX2                !
 ! D21   D(3,4,5,14)           -66.6233         estimate D2E/DX2                !
 ! D22   D(3,4,5,15)            57.5143         estimate D2E/DX2                !
 ! D23   D(12,4,5,6)           -60.173          estimate D2E/DX2                !
 ! D24   D(12,4,5,14)           53.195          estimate D2E/DX2                !
 ! D25   D(12,4,5,15)          177.3325         estimate D2E/DX2                !
 ! D26   D(13,4,5,6)            56.8175         estimate D2E/DX2                !
 ! D27   D(13,4,5,14)          170.1854         estimate D2E/DX2                !
 ! D28   D(13,4,5,15)          -65.677          estimate D2E/DX2                !
 --------------------------------------------------------------------------------
 Trust Radius=3.00D-01 FncErr=1.00D-07 GrdErr=1.00D-06 EigMax=2.50D+02 EigMin=1.00D-04
 Number of steps in this run=     76 maximum allowed number of steps=    100.
 GradGradGradGradGradGradGradGradGradGradGradGradGradGradGradGradGradGrad

                          Input orientation:                          
 ---------------------------------------------------------------------
 Center     Atomic      Atomic             Coordinates (Angstroms)
 Number     Number       Type             X           Y           Z
 ---------------------------------------------------------------------
      1          6           0        2.349000    0.047000    0.778000
      2          6           0        1.156000   -0.440000    0.488000
      3          6           0        0.463000   -0.148000   -0.792000
      4          6           0       -0.863000    0.541000   -0.579000
      5          6           0       -1.817000   -0.286000    0.245000
      6         53           0       -3.629000    0.860000    0.432000
      7          1           0        2.912000    0.694000    0.110000
      8          1           0        2.823000   -0.186000    1.717000
      9          1           0        0.672000   -1.076000    1.217000
     10          1           0        1.104000    0.560000   -1.357000
     11          1           0        0.371000   -1.052000   -1.427000
     12          1           0       -1.350000    0.708000   -1.562000
     13          1           0       -0.697000    1.520000   -0.123000
     14          1           0       -2.070000   -1.184000   -0.378000
     15          1           0       -1.424000   -0.558000    1.232000
 ---------------------------------------------------------------------
                    Distance matrix (angstroms):
                    1          2          3          4          5
     1  C    0.000000
     2  C    1.320802   0.000000
     3  C    2.461691   1.484558   0.000000
     4  C    3.521708   2.485400   1.509426   0.000000
     5  C    4.213138   2.986887   2.508548   1.507654   0.000000
     6  I    6.042944   4.958766   4.388474   2.962202   2.152122
     7  H    1.087107   2.124235   2.742293   3.840411   4.831363
     8  H    1.077351   2.086587   3.444724   4.403038   4.868920
     9  H    2.065473   1.081755   2.222824   2.862958   2.786396
    10  H    2.524167   2.099221   1.109671   2.115357   3.437202
    11  H    3.159479   2.158239   1.108560   2.186209   2.858266
    12  H    4.426638   3.435177   2.147698   1.109661   2.114562
    13  H    3.501378   2.765598   2.139015   1.092672   2.156724
    14  H    4.730672   3.422071   2.767812   2.114917   1.121848
    15  H    3.848074   2.687724   2.797400   2.191402   1.096632
                    6          7          8          9         10
     6  I    0.000000
     7  H    6.551024   0.000000
     8  H    6.661355   1.834331   0.000000
     9  H    4.781519   3.062017   2.380945   0.000000
    10  H    5.068709   2.332147   3.600132   3.080356   0.000000
    11  H    4.807455   3.444933   4.080073   2.661186   1.772211
    12  H    3.031993   4.578256   5.381915   3.872206   2.466991
    13  H    3.056182   3.709642   4.322781   3.226295   2.384944
    14  H    2.695277   5.346527   5.415393   3.173996   3.751567
    15  H    2.740939   4.650514   4.290760   2.159112   3.787298
                   11         12         13         14         15
    11  H    0.000000
    12  H    2.465292   0.000000
    13  H    3.075097   1.776647   0.000000
    14  H    2.660133   2.345191   3.043316   0.000000
    15  H    3.245973   3.068333   2.585080   1.844259   0.000000
 Symmetry turned off by external request.
 Stoichiometry    C5H9I
 Framework group  C1[X(C5H9I)]
 Deg. of freedom    39
 Full point group                 C1      NOp   1
 Rotational constants (GHZ):           8.3476455           0.5703401           0.5575906
 Standard basis: def2TZVP (5D, 7F)
   259 basis functions,   436 primitive gaussians,   293 cartesian basis functions
    32 alpha electrons       32 beta electrons
       nuclear repulsion energy       307.6454529446 Hartrees.
 NAtoms=   15 NActive=   15 NUniq=   15 SFac= 1.00D+00 NAtFMM=   60 NAOKFM=F Big=F
 Integral buffers will be    131072 words long.
 Raffenetti 2 integral format.
 Two-electron integral symmetry is turned off.
 Using the following non-standard input for PCM:
 PDENS=7.0
 --- end of non-standard input.
 ------------------------------------------------------------------------------
 Polarizable Continuum Model (PCM)
 =================================
 Model                : PCM.
 Atomic radii         : UFF (Universal Force Field).
 Polarization charges : Total charges.
 Charge compensation  : None.
 Solution method      : On-the-fly selection.
 Cavity type          : Scaled VdW (van der Waals Surface) (Alpha=1.100).
 Cavity algorithm     : GePol (No added spheres)
                        Default sphere list used, NSphG=   15.
                        Lebedev-Laikov grids with approx.  7.0 points / Ang**2.
                        Smoothing algorithm: York/Karplus (Gamma=1.0000).
                        Polarization charges: spherical gaussians, with
                                              point-specific exponents (IZeta= 3).
                        Self-potential: point-specific (ISelfS= 7).
                        Self-field    : sphere-specific E.n sum rule (ISelfD= 2).
 1st derivatives      : Analytical E(r).r(x)/FMM algorithm (CHGder, D1EAlg=3).
                        Cavity 1st derivative terms included.
 Solvent              : 1,2-EthaneDiol, Eps=  40.245000 Eps(inf)=   2.050051
 ------------------------------------------------------------------------------
 Spheres list:
 ISph  on   Nord     Re0    Alpha      Xe            Ye            Ze
    1   C      1    1.9255  1.100      2.349000      0.047000      0.778000
    2   C      2    1.9255  1.100      1.156000     -0.440000      0.488000
    3   C      3    1.9255  1.100      0.463000     -0.148000     -0.792000
    4   C      4    1.9255  1.100     -0.863000      0.541000     -0.579000
    5   C      5    1.9255  1.100     -1.817000     -0.286000      0.245000
    6   I      6    2.2500  1.100     -3.629000      0.860000      0.432000
    7   H      7    1.4430  1.100      2.912000      0.694000      0.110000
    8   H      8    1.4430  1.100      2.823000     -0.186000      1.717000
    9   H      9    1.4430  1.100      0.672000     -1.076000      1.217000
   10   H     10    1.4430  1.100      1.104000      0.560000     -1.357000
   11   H     11    1.4430  1.100      0.371000     -1.052000     -1.427000
   12   H     12    1.4430  1.100     -1.350000      0.708000     -1.562000
   13   H     13    1.4430  1.100     -0.697000      1.520000     -0.123000
   14   H     14    1.4430  1.100     -2.070000     -1.184000     -0.378000
   15   H     15    1.4430  1.100     -1.424000     -0.558000      1.232000
 ------------------------------------------------------------------------------
 One-electron integrals computed using PRISM.
   1 Symmetry operations used in ECPInt.
 ECPInt:  NShTT=    5778 NPrTT=   17377 LenC2=    5605 LenP2D=   13682.
 LDataN:  DoStor=T MaxTD1= 7 Len=  274
 NBasis=   259 RedAO= T EigKep=  1.55D-04  NBF=   259
 NBsUse=   259 1.00D-06 EigRej= -1.00D+00 NBFU=   259
 Defaulting to unpruned grid for atomic number  53.
 ExpMin= 7.49D-02 ExpMax= 1.36D+04 ExpMxC= 4.63D+02 IAcc=3 IRadAn=         5 AccDes= 0.00D+00
 Harris functional with IExCor= 1009 and IRadAn=       5 diagonalized for initial guess.
 HarFok:  IExCor= 1009 AccDes= 0.00D+00 IRadAn=         5 IDoV= 1 UseB2=F ITyADJ=14
 ICtDFT=  3500011 ScaDFX=  1.000000  1.000000  1.000000  1.000000
 Defaulting to unpruned grid for atomic number  53.
 FoFCou: FMM=F IPFlag=           0 FMFlag=      100000 FMFlg1=           0
         NFxFlg=           0 DoJE=T BraDBF=F KetDBF=T FulRan=T
         wScrn=  0.000000 ICntrl=       500 IOpCl=  0 I1Cent=   200000004 NGrid=           0
         NMat0=    1 NMatS0=      1 NMatT0=    0 NMatD0=    1 NMtDS0=    0 NMtDT0=    0
 Symmetry not used in FoFCou.
 Requested convergence on RMS density matrix=1.00D-08 within  32 cycles.
 Requested convergence on MAX density matrix=1.00D-06.
 Requested convergence on             energy=1.00D-06.
 No special actions if energy rises.
 Defaulting to unpruned grid for atomic number  53.
 Defaulting to unpruned grid for atomic number  53.
 Defaulting to unpruned grid for atomic number  53.
 Defaulting to unpruned grid for atomic number  53.
 Defaulting to unpruned grid for atomic number  53.
 Defaulting to unpruned grid for atomic number  53.
 Defaulting to unpruned grid for atomic number  53.
 Defaulting to unpruned grid for atomic number  53.
 Defaulting to unpruned grid for atomic number  53.
 Defaulting to unpruned grid for atomic number  53.
 Defaulting to unpruned grid for atomic number  53.
 Defaulting to unpruned grid for atomic number  53.
 Defaulting to unpruned grid for atomic number  53.
 Defaulting to unpruned grid for atomic number  53.
 Defaulting to unpruned grid for atomic number  53.
 Defaulting to unpruned grid for atomic number  53.
 Defaulting to unpruned grid for atomic number  53.
 Defaulting to unpruned grid for atomic number  53.
 Defaulting to unpruned grid for atomic number  53.
 Defaulting to unpruned grid for atomic number  53.
 Defaulting to unpruned grid for atomic number  53.
 Defaulting to unpruned grid for atomic number  53.
 Defaulting to unpruned grid for atomic number  53.
 Defaulting to unpruned grid for atomic number  53.
 Defaulting to unpruned grid for atomic number  53.
 Defaulting to unpruned grid for atomic number  53.
 Defaulting to unpruned grid for atomic number  53.
 Defaulting to unpruned grid for atomic number  53.
 Defaulting to unpruned grid for atomic number  53.
 Defaulting to unpruned grid for atomic number  53.
 Defaulting to unpruned grid for atomic number  53.
 Defaulting to unpruned grid for atomic number  53.
 Defaulting to unpruned grid for atomic number  53.
 Defaulting to unpruned grid for atomic number  53.
 Defaulting to unpruned grid for atomic number  53.
 Defaulting to unpruned grid for atomic number  53.
 Inv3:  Mode=1 IEnd=    12362700.
 Iteration    1 A*A^-1 deviation from unit magnitude is 3.77D-15 for   1660.
 Iteration    1 A*A^-1 deviation from orthogonality  is 2.06D-15 for   1477   1304.
 Iteration    1 A^-1*A deviation from unit magnitude is 3.77D-15 for   1660.
 Iteration    1 A^-1*A deviation from orthogonality  is 4.22D-15 for   1515   1477.
 Error on total polarization charges =  0.01847
 SCF Done:  E(RM062X) =  -493.528269839     A.U. after   12 cycles
            NFock= 12  Conv=0.70D-08     -V/T= 2.6006
 QCSCF skips out because SCF is already converged.

 **********************************************************************

            Population analysis using the SCF Density.

 **********************************************************************

 Alpha  occ. eigenvalues --  -10.58854 -10.54288 -10.53995 -10.53920 -10.52876
 ...
 Alpha virt. eigenvalues --   22.61146  22.85210  34.50071  34.51160  34.70853
 Alpha virt. eigenvalues --   42.83324 117.58331
          Condensed to atoms (all electrons):
               1          2          3          4          5          6
     1  C    5.021884   0.547771  -0.059704  -0.003761   0.002296  -0.000224
...
    15  H   -0.000578  -0.024003   0.501080
 Mulliken charges:
               1
     1  C   -0.346595
     2  C   -0.128220
     3  C   -0.306275
     4  C   -0.257895
     5  C   -0.277168
     6  I   -0.151520
     7  H    0.142625
     8  H    0.143939
     9  H    0.161879
    10  H    0.151675
    11  H    0.169673
    12  H    0.163198
    13  H    0.166321
    14  H    0.187435
    15  H    0.180929
 Sum of Mulliken charges =  -0.00000
 Mulliken charges with hydrogens summed into heavy atoms:
               1
     1  C   -0.060031
     2  C    0.033659
     3  C    0.015073
     4  C    0.071624
     5  C    0.091195
     6  I   -0.151520
 Electronic spatial extent (au):  <R**2>=           1857.2488
 Charge=             -0.0000 electrons
 Dipole moment (field-independent basis, Debye):
    X=              2.0958    Y=             -1.1249    Z=             -0.7239  Tot=              2.4863
 Quadrupole moment (field-independent basis, Debye-Ang):
   XX=            -69.5035   YY=            -60.3384   ZZ=            -59.0033
   XY=              3.6647   XZ=              1.9643   YZ=             -1.2401
 Traceless Quadrupole moment (field-independent basis, Debye-Ang):
   XX=             -6.5551   YY=              2.6100   ZZ=              3.9451
   XY=              3.6647   XZ=              1.9643   YZ=             -1.2401
 Octapole moment (field-independent basis, Debye-Ang**2):
  XXX=            306.2476  YYY=            -65.7170  ZZZ=            -37.1321  XYY=             87.7484
  XXY=            -18.6068  XXZ=            -16.1727  XZZ=             94.6734  YZZ=            -25.2027
  YYZ=            -13.6163  XYZ=             -1.5462
 Hexadecapole moment (field-independent basis, Debye-Ang**3):
 XXXX=          -2777.4882 YYYY=           -250.8727 ZZZZ=           -217.1314 XXXY=            244.2572
 XXXZ=            104.9930 YYYX=            258.8183 YYYZ=            -17.2293 ZZZX=             93.9231
 ZZZY=            -23.5321 XXYY=           -484.7678 XXZZ=           -494.6225 YYZZ=            -78.1655
 XXYZ=             -5.4491 YYXZ=             26.1530 ZZXY=             87.2873
 N-N= 3.076454529446D+02 E-N=-1.699670463475D+03  KE= 3.083490083694D+02
 ******************************Gaussian NBO Version 3.1******************************
             N A T U R A L   A T O M I C   O R B I T A L   A N D
          N A T U R A L   B O N D   O R B I T A L   A N A L Y S I S
 ******************************Gaussian NBO Version 3.1******************************
       /RESON  / : Allow strongly delocalized NBO set

 Analyzing the SCF density

 Job title: tpl                                                             

 Storage needed:    202441 in NPA,    269376 in NBO (9337344261 available)
 GSVD:  LWork=       17791 too small for GESVD, short by       79394 words or       79394 for optimal perf.


 NATURAL POPULATIONS:  Natural atomic orbital occupancies 
                                                          
   NAO  Atom  No  lang   Type(AO)    Occupancy      Energy
 ----------------------------------------------------------
     1    C    1  S      Cor( 1S)     1.99919     -10.37030
     2    C    1  S      Val( 2S)     1.05591      -0.26869
     3    C    1  S      Ryd( 3S)     0.00154       1.00195
     4    C    1  S      Ryd( 4S)     0.00023       1.04798
     5    C    1  S      Ryd( 5S)     0.00000      21.58066
     6    C    1  px     Val( 2p)     1.10014      -0.08919
     7    C    1  px     Ryd( 3p)     0.00265       0.69695
     8    C    1  px     Ryd( 4p)     0.00024       2.07693
     9    C    1  py     Val( 2p)     1.06735      -0.10268
    10    C    1  py     Ryd( 3p)     0.00185       0.68288
    11    C    1  py     Ryd( 4p)     0.00013       1.61884
    12    C    1  pz     Val( 2p)     1.15216      -0.07087
    13    C    1  pz     Ryd( 3p)     0.00296       0.96638
    14    C    1  pz     Ryd( 4p)     0.00008       1.80786
    15    C    1  dxy    Ryd( 3d)     0.00115       1.76516
    16    C    1  dxy    Ryd( 4d)     0.00010       2.78044
    17    C    1  dxz    Ryd( 3d)     0.00093       1.82119
    18    C    1  dxz    Ryd( 4d)     0.00016       2.76706
    19    C    1  dyz    Ryd( 3d)     0.00120       1.57176
    20    C    1  dyz    Ryd( 4d)     0.00006       2.69582
    21    C    1  dx2y2  Ryd( 3d)     0.00127       1.62400
    22    C    1  dx2y2  Ryd( 4d)     0.00007       2.70648
    23    C    1  dz2    Ryd( 3d)     0.00160       1.57292
    24    C    1  dz2    Ryd( 4d)     0.00009       2.65399
    25    C    1  f(0)   Ryd( 4f)     0.00005       3.35116
    26    C    1  f(C1)  Ryd( 4f)     0.00013       3.71257
    27    C    1  f(S1)  Ryd( 4f)     0.00005       3.32248
    28    C    1  f(C2)  Ryd( 4f)     0.00011       3.40561
    29    C    1  f(S2)  Ryd( 4f)     0.00015       3.59095
    30    C    1  f(C3)  Ryd( 4f)     0.00017       3.47470
    31    C    1  f(S3)  Ryd( 4f)     0.00017       3.59981

    32    C    2  S      Cor( 1S)     1.99918     -10.37905
    33    C    2  S      Val( 2S)     0.98716      -0.25033
    34    C    2  S      Ryd( 4S)     0.00289       1.36289
    35    C    2  S      Ryd( 3S)     0.00021       1.31847
    36    C    2  S      Ryd( 5S)     0.00000      21.35552
    37    C    2  px     Val( 2p)     1.08048      -0.08805
    38    C    2  px     Ryd( 3p)     0.00366       1.00131
    39    C    2  px     Ryd( 4p)     0.00023       2.06105
    40    C    2  py     Val( 2p)     1.04636      -0.09841
    41    C    2  py     Ryd( 3p)     0.00243       0.85879
    42    C    2  py     Ryd( 4p)     0.00039       1.47917
    43    C    2  pz     Val( 2p)     1.05620      -0.05907
    44    C    2  pz     Ryd( 3p)     0.00324       1.02618
    45    C    2  pz     Ryd( 4p)     0.00029       1.66355
    46    C    2  dxy    Ryd( 3d)     0.00112       1.56511
    47    C    2  dxy    Ryd( 4d)     0.00030       3.21309
    48    C    2  dxz    Ryd( 3d)     0.00070       1.65408
    49    C    2  dxz    Ryd( 4d)     0.00054       3.38796
    50    C    2  dyz    Ryd( 3d)     0.00070       1.55525
    51    C    2  dyz    Ryd( 4d)     0.00028       3.16493
    52    C    2  dx2y2  Ryd( 3d)     0.00083       1.49557
    53    C    2  dx2y2  Ryd( 4d)     0.00023       3.11789
    54    C    2  dz2    Ryd( 3d)     0.00102       1.50214
    55    C    2  dz2    Ryd( 4d)     0.00028       3.12784
    56    C    2  f(0)   Ryd( 4f)     0.00007       3.57085
    57    C    2  f(C1)  Ryd( 4f)     0.00010       3.80046
    58    C    2  f(S1)  Ryd( 4f)     0.00007       3.53261
    59    C    2  f(C2)  Ryd( 4f)     0.00008       3.52918
    60    C    2  f(S2)  Ryd( 4f)     0.00013       3.69535
    61    C    2  f(C3)  Ryd( 4f)     0.00009       3.48881
    62    C    2  f(S3)  Ryd( 4f)     0.00010       3.66547

    63    C    3  S      Cor( 1S)     1.99940     -10.38712
    64    C    3  S      Val( 2S)     1.04239      -0.29933
    65    C    3  S      Ryd( 3S)     0.00169       1.42884
    66    C    3  S      Ryd( 4S)     0.00040       1.99720
    67    C    3  S      Ryd( 5S)     0.00000      21.40066
    68    C    3  px     Val( 2p)     1.07932      -0.10346
    69    C    3  px     Ryd( 3p)     0.00367       1.12194
    70    C    3  px     Ryd( 4p)     0.00015       1.69025
    71    C    3  py     Val( 2p)     1.18334      -0.11711
    72    C    3  py     Ryd( 3p)     0.00230       1.15949
    73    C    3  py     Ryd( 4p)     0.00046       1.47129
    74    C    3  pz     Val( 2p)     1.12117      -0.11426
    75    C    3  pz     Ryd( 3p)     0.00095       0.99893
    76    C    3  pz     Ryd( 4p)     0.00026       1.66618
    77    C    3  dxy    Ryd( 3d)     0.00137       1.45380
    78    C    3  dxy    Ryd( 4d)     0.00014       3.28877
    79    C    3  dxz    Ryd( 3d)     0.00134       1.40299
    80    C    3  dxz    Ryd( 4d)     0.00048       3.37568
    81    C    3  dyz    Ryd( 3d)     0.00133       1.48943
    82    C    3  dyz    Ryd( 4d)     0.00031       3.28801
    83    C    3  dx2y2  Ryd( 3d)     0.00126       1.39164
    84    C    3  dx2y2  Ryd( 4d)     0.00027       3.17971
    85    C    3  dz2    Ryd( 3d)     0.00145       1.40292
    86    C    3  dz2    Ryd( 4d)     0.00020       3.22837
    87    C    3  f(0)   Ryd( 4f)     0.00006       3.71825
    88    C    3  f(C1)  Ryd( 4f)     0.00008       3.65676
    89    C    3  f(S1)  Ryd( 4f)     0.00003       3.45121
    90    C    3  f(C2)  Ryd( 4f)     0.00006       3.72069
    91    C    3  f(S2)  Ryd( 4f)     0.00005       3.68909
    92    C    3  f(C3)  Ryd( 4f)     0.00003       3.55449
    93    C    3  f(S3)  Ryd( 4f)     0.00006       3.57998

    94    C    4  S      Cor( 1S)     1.99943     -10.39072
    95    C    4  S      Val( 2S)     1.04836      -0.31518
    96    C    4  S      Ryd( 3S)     0.00262       1.19003
    97    C    4  S      Ryd( 4S)     0.00017       2.91804
    98    C    4  S      Ryd( 5S)     0.00000      20.84644
    99    C    4  px     Val( 2p)     1.04619      -0.10911
   100    C    4  px     Ryd( 3p)     0.00352       0.85289
   101    C    4  px     Ryd( 4p)     0.00030       1.97960
   102    C    4  py     Val( 2p)     1.14516      -0.12180
   103    C    4  py     Ryd( 3p)     0.00144       0.75055
   104    C    4  py     Ryd( 4p)     0.00017       1.81674
   105    C    4  pz     Val( 2p)     1.16806      -0.12426
   106    C    4  pz     Ryd( 3p)     0.00277       0.89532
   107    C    4  pz     Ryd( 4p)     0.00018       1.81867
   108    C    4  dxy    Ryd( 3d)     0.00150       1.48253
   109    C    4  dxy    Ryd( 4d)     0.00020       3.32327
   110    C    4  dxz    Ryd( 3d)     0.00145       1.47218
   111    C    4  dxz    Ryd( 4d)     0.00028       3.22344
   112    C    4  dyz    Ryd( 3d)     0.00162       1.47141
   113    C    4  dyz    Ryd( 4d)     0.00007       3.14535
   114    C    4  dx2y2  Ryd( 3d)     0.00082       1.47393
   115    C    4  dx2y2  Ryd( 4d)     0.00044       3.23113
   116    C    4  dz2    Ryd( 3d)     0.00138       1.43676
   117    C    4  dz2    Ryd( 4d)     0.00032       3.10806
   118    C    4  f(0)   Ryd( 4f)     0.00007       3.54417
   119    C    4  f(C1)  Ryd( 4f)     0.00006       3.69686
   120    C    4  f(S1)  Ryd( 4f)     0.00002       3.37880
   121    C    4  f(C2)  Ryd( 4f)     0.00006       3.63859
   122    C    4  f(S2)  Ryd( 4f)     0.00004       3.57527
   123    C    4  f(C3)  Ryd( 4f)     0.00002       3.61759
   124    C    4  f(S3)  Ryd( 4f)     0.00007       3.67407

   125    C    5  S      Cor( 1S)     1.99924     -10.46046
   126    C    5  S      Val( 2S)     1.15261      -0.39900
   127    C    5  S      Ryd( 3S)     0.00156       1.18216
   128    C    5  S      Ryd( 4S)     0.00052       2.14995
   129    C    5  S      Ryd( 5S)     0.00000      21.28794
   130    C    5  px     Val( 2p)     0.99641      -0.16692
   131    C    5  px     Ryd( 3p)     0.00208       1.20438
   132    C    5  px     Ryd( 4p)     0.00066       1.38039
   133    C    5  py     Val( 2p)     1.11574      -0.15465
   134    C    5  py     Ryd( 3p)     0.00161       1.02301
   135    C    5  py     Ryd( 4p)     0.00031       1.51626
   136    C    5  pz     Val( 2p)     1.19511      -0.14037
   137    C    5  pz     Ryd( 3p)     0.00164       1.02462
   138    C    5  pz     Ryd( 4p)     0.00044       1.66235
   139    C    5  dxy    Ryd( 3d)     0.00311       1.13226
   140    C    5  dxy    Ryd( 4d)     0.00020       3.24784
   141    C    5  dxz    Ryd( 3d)     0.00204       1.08994
   142    C    5  dxz    Ryd( 4d)     0.00015       3.24638
   143    C    5  dyz    Ryd( 3d)     0.00273       1.19993
   144    C    5  dyz    Ryd( 4d)     0.00011       3.28834
   145    C    5  dx2y2  Ryd( 3d)     0.00101       1.08053
   146    C    5  dx2y2  Ryd( 4d)     0.00016       3.14870
   147    C    5  dz2    Ryd( 3d)     0.00224       1.12976
   148    C    5  dz2    Ryd( 4d)     0.00019       3.18125
   149    C    5  f(0)   Ryd( 4f)     0.00010       3.31134
   150    C    5  f(C1)  Ryd( 4f)     0.00009       3.44397
   151    C    5  f(S1)  Ryd( 4f)     0.00010       3.37287
   152    C    5  f(C2)  Ryd( 4f)     0.00005       3.47047
   153    C    5  f(S2)  Ryd( 4f)     0.00010       3.33743
   154    C    5  f(C3)  Ryd( 4f)     0.00005       3.23406
   155    C    5  f(S3)  Ryd( 4f)     0.00012       3.23693

   156    I    6  S      Cor( 4S)     1.99985      -6.89509
   157    I    6  S      Val( 5S)     1.89334      -0.89517
   158    I    6  S      Ryd( 6S)     0.00136       1.16750
   159    I    6  S      Ryd( 7S)     0.00002      15.13024
   160    I    6  S      Ryd( 8S)     0.00000      48.24320
   161    I    6  S      Ryd( 9S)     0.00000     100.16991
   162    I    6  px     Cor( 4p)     1.99991      -5.07580
   163    I    6  px     Val( 5p)     1.38339      -0.26103
   164    I    6  px     Ryd( 6p)     0.00165       0.71056
   165    I    6  px     Ryd( 7p)     0.00001       1.26713
   166    I    6  px     Ryd( 8p)     0.00000      34.54323
   167    I    6  py     Cor( 4p)     1.99995      -5.07383
   168    I    6  py     Val( 5p)     1.71454      -0.29572
   169    I    6  py     Ryd( 6p)     0.00105       0.49400
   170    I    6  py     Ryd( 7p)     0.00001       1.18254
   171    I    6  py     Ryd( 8p)     0.00000      34.48705
   172    I    6  pz     Cor( 4p)     1.99998      -5.07194
   173    I    6  pz     Val( 5p)     1.97917      -0.32263
   174    I    6  pz     Ryd( 6p)     0.00065       0.43364
   175    I    6  pz     Ryd( 7p)     0.00001       1.15041
   176    I    6  pz     Ryd( 8p)     0.00000      34.46944
   177    I    6  dxy    Cor( 4d)     1.99911      -2.05312
   178    I    6  dxy    Ryd( 5d)     0.00219       1.18192
   179    I    6  dxy    Ryd( 6d)     0.00006       1.52785
   180    I    6  dxz    Cor( 4d)     1.99987      -2.05101
   181    I    6  dxz    Ryd( 5d)     0.00077       0.61644
   182    I    6  dxz    Ryd( 6d)     0.00003       1.52683
   183    I    6  dyz    Cor( 4d)     1.99994      -2.04825
   184    I    6  dyz    Ryd( 5d)     0.00045       0.50831
   185    I    6  dyz    Ryd( 6d)     0.00002       1.43089
   186    I    6  dx2y2  Cor( 4d)     1.99971      -2.05330
   187    I    6  dx2y2  Ryd( 5d)     0.00129       0.78488
   188    I    6  dx2y2  Ryd( 6d)     0.00002       1.52634
   189    I    6  dz2    Cor( 4d)     1.99966      -2.04834
   190    I    6  dz2    Ryd( 5d)     0.00103       0.68839
   191    I    6  dz2    Ryd( 6d)     0.00007       1.43340
   192    I    6  f(0)   Ryd( 4f)     0.00013       1.02889
   193    I    6  f(0)   Ryd( 5f)     0.00001       3.19477
   194    I    6  f(C1)  Ryd( 4f)     0.00013       1.03864
   195    I    6  f(C1)  Ryd( 5f)     0.00001       3.20499
   196    I    6  f(S1)  Ryd( 4f)     0.00005       1.00663
   197    I    6  f(S1)  Ryd( 5f)     0.00000       3.17568
   198    I    6  f(C2)  Ryd( 4f)     0.00006       1.01482
   199    I    6  f(C2)  Ryd( 5f)     0.00000       3.18232
   200    I    6  f(S2)  Ryd( 4f)     0.00018       1.06627
   201    I    6  f(S2)  Ryd( 5f)     0.00001       3.21902
   202    I    6  f(C3)  Ryd( 4f)     0.00029       1.12577
   203    I    6  f(C3)  Ryd( 5f)     0.00002       3.26069
   204    I    6  f(S3)  Ryd( 4f)     0.00024       1.10491
   205    I    6  f(S3)  Ryd( 5f)     0.00002       3.26458

   206    H    7  S      Val( 1S)     0.80431       0.04404
   207    H    7  S      Ryd( 3S)     0.00074       1.40939
   208    H    7  S      Ryd( 2S)     0.00024       1.07669
   209    H    7  px     Ryd( 2p)     0.00011       2.59264
   210    H    7  py     Ryd( 2p)     0.00017       2.44753
   211    H    7  pz     Ryd( 2p)     0.00018       2.59869

   212    H    8  S      Val( 1S)     0.80017       0.05372
   213    H    8  S      Ryd( 2S)     0.00056       0.89337
   214    H    8  S      Ryd( 3S)     0.00022       1.53084
   215    H    8  px     Ryd( 2p)     0.00007       2.61597
   216    H    8  py     Ryd( 2p)     0.00011       2.28895
   217    H    8  pz     Ryd( 2p)     0.00030       2.82118

   218    H    9  S      Val( 1S)     0.80007       0.04976
   219    H    9  S      Ryd( 2S)     0.00109       0.67499
   220    H    9  S      Ryd( 3S)     0.00024       2.27670
   221    H    9  px     Ryd( 2p)     0.00011       2.62554
   222    H    9  py     Ryd( 2p)     0.00014       2.48817
   223    H    9  pz     Ryd( 2p)     0.00017       2.73138

   224    H   10  S      Val( 1S)     0.78210       0.02357
   225    H   10  S      Ryd( 2S)     0.00110       0.71550
   226    H   10  S      Ryd( 3S)     0.00017       2.19955
   227    H   10  px     Ryd( 2p)     0.00012       2.67086
   228    H   10  py     Ryd( 2p)     0.00011       2.55538
   229    H   10  pz     Ryd( 2p)     0.00011       2.65582

   230    H   11  S      Val( 1S)     0.77857       0.02411
   231    H   11  S      Ryd( 2S)     0.00088       1.03796
   232    H   11  S      Ryd( 3S)     0.00010       1.53509
   233    H   11  px     Ryd( 2p)     0.00012       2.41628
   234    H   11  py     Ryd( 2p)     0.00028       2.75194
   235    H   11  pz     Ryd( 2p)     0.00022       2.64789

   236    H   12  S      Val( 1S)     0.78248       0.02223
   237    H   12  S      Ryd( 2S)     0.00092       1.15062
   238    H   12  S      Ryd( 3S)     0.00012       1.42858
   239    H   12  px     Ryd( 2p)     0.00015       2.57617
   240    H   12  py     Ryd( 2p)     0.00009       2.37157
   241    H   12  pz     Ryd( 2p)     0.00024       2.85819

   242    H   13  S      Val( 1S)     0.78777       0.02988
   243    H   13  S      Ryd( 2S)     0.00118       1.05068
   244    H   13  S      Ryd( 3S)     0.00012       1.47978
   245    H   13  px     Ryd( 2p)     0.00013       2.47767
   246    H   13  py     Ryd( 2p)     0.00029       2.94666
   247    H   13  pz     Ryd( 2p)     0.00014       2.41956

   248    H   14  S      Val( 1S)     0.76742       0.02008
   249    H   14  S      Ryd( 2S)     0.00131       0.98074
   250    H   14  S      Ryd( 3S)     0.00013       1.41041
   251    H   14  px     Ryd( 2p)     0.00014       2.26708
   252    H   14  py     Ryd( 2p)     0.00013       2.75226
   253    H   14  pz     Ryd( 2p)     0.00013       2.40582

   254    H   15  S      Val( 1S)     0.76968       0.03576
   255    H   15  S      Ryd( 2S)     0.00104       1.04366
   256    H   15  S      Ryd( 3S)     0.00013       1.44474
   257    H   15  px     Ryd( 2p)     0.00016       2.34413
   258    H   15  py     Ryd( 2p)     0.00010       2.29504
   259    H   15  pz     Ryd( 2p)     0.00024       2.85262

 [ 28 electrons found in the effective core potential]

 WARNING:  Population inversion found on atom  C    2
           Population inversion found on atom  H    7


 Summary of Natural Population Analysis:                  
                                                          
                                       Natural Population 
                Natural  -----------------------------------------------
    Atom  No    Charge         Core      Valence    Rydberg      Total
 -----------------------------------------------------------------------
      C    1   -0.39192      1.99919     4.37557    0.01717     6.39192
      C    2   -0.18937      1.99918     4.17020    0.01998     6.18937
      C    3   -0.44404      1.99940     4.42623    0.01840     6.44404
      C    4   -0.42678      1.99943     4.40776    0.01959     6.42678
      C    5   -0.48049      1.99924     4.45987    0.02137     6.48049
      I    6    0.01972     45.99798     6.97044    0.01186    52.98028
      H    7    0.19424      0.00000     0.80431    0.00145     0.80576
      H    8    0.19856      0.00000     0.80017    0.00127     0.80144
      H    9    0.19816      0.00000     0.80007    0.00176     0.80184
      H   10    0.21630      0.00000     0.78210    0.00160     0.78370
      H   11    0.21984      0.00000     0.77857    0.00159     0.78016
      H   12    0.21600      0.00000     0.78248    0.00152     0.78400
      H   13    0.21037      0.00000     0.78777    0.00185     0.78963
      H   14    0.23074      0.00000     0.76742    0.00184     0.76926
      H   15    0.22865      0.00000     0.76968    0.00167     0.77135
 =======================================================================
   * Total *    0.00000     55.99443    35.88265    0.12292    92.00000

                                 Natural Population      
 --------------------------------------------------------
   Effective Core            28.00000
   Core                      27.99443 ( 99.9801% of  28)
   Valence                   35.88265 ( 99.6740% of  36)
   Natural Minimal Basis     91.87708 ( 99.8664% of  92)
   Natural Rydberg Basis      0.12292 (  0.1336% of  92)
 --------------------------------------------------------

    Atom  No          Natural Electron Configuration
 ----------------------------------------------------------------------------
      C    1      [core]2S( 1.06)2p( 3.32)3p( 0.01)3d( 0.01)
      C    2      [core]2S( 0.99)2p( 3.18)3p( 0.01)
      C    3      [core]2S( 1.04)2p( 3.38)3p( 0.01)3d( 0.01)
      C    4      [core]2S( 1.05)2p( 3.36)3p( 0.01)3d( 0.01)
      C    5      [core]2S( 1.15)2p( 3.31)3p( 0.01)3d( 0.01)
      I    6      [core]5S( 1.89)5p( 5.08)5d( 0.01)
      H    7            1S( 0.80)
      H    8            1S( 0.80)
      H    9            1S( 0.80)
      H   10            1S( 0.78)
      H   11            1S( 0.78)
      H   12            1S( 0.78)
      H   13            1S( 0.79)
      H   14            1S( 0.77)
      H   15            1S( 0.77)


 NATURAL BOND ORBITAL ANALYSIS:

                       Occupancies       Lewis Structure    Low   High
           Occ.    -------------------  -----------------   occ   occ
  Cycle   Thresh.   Lewis   Non-Lewis     CR  BD  3C  LP    (L)   (NL)   Dev
 =============================================================================
   1(1)    1.90    91.67782   0.32218     14  15   0   3     0      0    0.04
 -----------------------------------------------------------------------------

 Structure accepted: No low occupancy Lewis orbitals

 --------------------------------------------------------
   Effective Core           28.00000
   Core                     27.99444 ( 99.980% of  28)
   Valence Lewis            35.68338 ( 99.121% of  36)
  ==================       ============================
   Total Lewis              91.67782 ( 99.650% of  92)
  -----------------------------------------------------
   Valence non-Lewis         0.25927 (  0.282% of  92)
   Rydberg non-Lewis         0.06290 (  0.068% of  92)
  ==================       ============================
   Total non-Lewis           0.32218 (  0.350% of  92)
 --------------------------------------------------------


       (Occupancy)   Bond orbital/ Coefficients/ Hybrids
 ---------------------------------------------------------------------------------
     1. (1.99147) BD ( 1) C   1 - C   2  
                ( 49.14%)   0.7010* C   1 s( 40.66%)p 1.45( 59.10%)d 0.01(  0.22%)
                                                  f 0.00(  0.02%)
                                            0.0001  0.6372  0.0220  0.0053 -0.0001
                                           -0.6861 -0.0383  0.0013 -0.2937 -0.0166
                                           -0.0005 -0.1796 -0.0071  0.0012  0.0270
                                            0.0027  0.0180  0.0011  0.0048 -0.0001
                                            0.0277  0.0024 -0.0177 -0.0013  0.0038
                                            0.0038  0.0013 -0.0061 -0.0022 -0.0039
                                           -0.0102
                ( 50.86%)   0.7131* C   2 s( 39.00%)p 1.56( 60.87%)d 0.00(  0.12%)
                                                  f 0.00(  0.01%)
                                           -0.0000  0.6238  0.0303  0.0022  0.0001
                                            0.7101  0.0301  0.0010  0.2764  0.0084
                                            0.0009  0.1630  0.0210  0.0014  0.0217
                                            0.0051  0.0044  0.0038  0.0034  0.0009
                                            0.0177  0.0054 -0.0177 -0.0027 -0.0019
                                           -0.0007 -0.0037  0.0049  0.0017  0.0037
                                            0.0079
     2. (1.97949) BD ( 2) C   1 - C   2  
                ( 50.86%)   0.7132* C   1 s(  0.01%)p 1.00( 99.91%)d 0.00(  0.06%)
                                                  f 0.00(  0.02%)
                                            0.0000  0.0096 -0.0024  0.0006 -0.0002
                                           -0.4400  0.0154 -0.0035  0.7974 -0.0261
                                            0.0065  0.4104 -0.0143  0.0042 -0.0132
                                           -0.0029 -0.0072 -0.0011 -0.0065 -0.0026
                                            0.0166  0.0037 -0.0035 -0.0011  0.0045
                                            0.0012  0.0005  0.0037  0.0076 -0.0101
                                            0.0015
                ( 49.14%)   0.7010* C   2 s(  0.03%)p99.99( 99.90%)d 1.52(  0.05%)
                                                  f 0.51(  0.02%)
                                            0.0001  0.0153 -0.0097  0.0033 -0.0003
                                           -0.4215  0.0213 -0.0067  0.8080 -0.0279
                                            0.0151  0.4083 -0.0115  0.0088  0.0100
                                            0.0058  0.0087  0.0024  0.0062  0.0022
                                           -0.0144 -0.0064  0.0032 -0.0000  0.0060
                                           -0.0009  0.0016  0.0041  0.0080 -0.0070
                                            0.0018
     3. (1.98527) BD ( 1) C   1 - H   7  
                ( 59.83%)   0.7735* C   1 s( 30.12%)p 2.31( 69.74%)d 0.00(  0.12%)
                                                  f 0.00(  0.02%)
                                           -0.0002  0.5487 -0.0119 -0.0029 -0.0001
                                            0.4301  0.0127 -0.0051  0.4961  0.0008
                                           -0.0013 -0.5158  0.0107 -0.0016  0.0072
                                            0.0058 -0.0178 -0.0014 -0.0236  0.0003
                                           -0.0095  0.0026  0.0118 -0.0043  0.0036
                                           -0.0022  0.0039 -0.0006 -0.0084 -0.0043
                                            0.0065
                ( 40.17%)   0.6338* H   7 s( 99.96%)p 0.00(  0.04%)
                                            0.9998  0.0025 -0.0003 -0.0085 -0.0114
                                            0.0132
     4. (1.98349) BD ( 1) C   1 - H   8  
                ( 59.90%)   0.7740* C   1 s( 29.15%)p 2.43( 70.69%)d 0.01(  0.15%)
                                                  f 0.00(  0.02%)
                                           -0.0003  0.5398 -0.0076 -0.0028  0.0003
                                            0.3817  0.0081 -0.0060 -0.1712  0.0064
                                           -0.0014  0.7292 -0.0042 -0.0022 -0.0105
                                            0.0010  0.0107  0.0066 -0.0182  0.0038
                                           -0.0062  0.0043  0.0282 -0.0019 -0.0003
                                            0.0092 -0.0048  0.0068  0.0013  0.0039
                                           -0.0009
                ( 40.10%)   0.6332* H   8 s( 99.96%)p 0.00(  0.04%)
                                            0.9998  0.0016 -0.0002 -0.0052  0.0065
                                           -0.0180
     5. (1.98392) BD ( 1) C   2 - C   3  
                ( 48.97%)   0.6998* C   2 s( 32.84%)p 2.04( 67.08%)d 0.00(  0.07%)
                                                  f 0.00(  0.01%)
                                           -0.0000  0.5730 -0.0062  0.0044 -0.0003
                                           -0.3945 -0.0063  0.0069  0.1390 -0.0056
                                           -0.0042 -0.7040 -0.0104  0.0006 -0.0076
                                           -0.0011  0.0146  0.0055 -0.0089 -0.0039
                                            0.0040 -0.0001  0.0148  0.0072 -0.0008
                                           -0.0086  0.0041 -0.0053  0.0020 -0.0010
                                            0.0011
                ( 51.03%)   0.7144* C   3 s( 28.73%)p 2.48( 71.12%)d 0.01(  0.15%)
                                                  f 0.00(  0.01%)
                                            0.0002  0.5358 -0.0127 -0.0012  0.0002
                                            0.3858  0.0121  0.0006 -0.1922 -0.0112
                                           -0.0005  0.7246  0.0078 -0.0045 -0.0032
                                            0.0005  0.0241  0.0031 -0.0088 -0.0024
                                            0.0067 -0.0009  0.0269  0.0023  0.0028
                                            0.0053 -0.0014  0.0051 -0.0026 -0.0006
                                            0.0001
     6. (1.97450) BD ( 1) C   2 - H   9  
                ( 60.11%)   0.7753* C   2 s( 28.17%)p 2.55( 71.73%)d 0.00(  0.09%)
                                                  f 0.00(  0.01%)
                                            0.0003 -0.5302  0.0228  0.0062 -0.0003
                                            0.3982 -0.0039 -0.0055  0.4991 -0.0028
                                           -0.0088 -0.5562  0.0066  0.0106 -0.0140
                                           -0.0007  0.0150  0.0037  0.0198  0.0037
                                            0.0017  0.0028 -0.0042 -0.0019  0.0021
                                            0.0007  0.0046  0.0010 -0.0065 -0.0030
                                            0.0031
                ( 39.89%)   0.6316* H   9 s( 99.98%)p 0.00(  0.02%)
                                           -0.9999 -0.0023 -0.0012 -0.0052 -0.0094
                                            0.0116
     7. (1.97065) BD ( 1) C   3 - C   4  
                ( 50.02%)   0.7073* C   3 s( 28.10%)p 2.56( 71.80%)d 0.00(  0.10%)
                                                  f 0.00(  0.00%)
                                            0.0001  0.5298 -0.0148  0.0002 -0.0003
                                           -0.7568 -0.0085 -0.0003  0.3649  0.0098
                                            0.0061  0.1089 -0.0103 -0.0013 -0.0165
                                           -0.0045 -0.0166 -0.0007  0.0043  0.0014
                                            0.0145  0.0022 -0.0136 -0.0025  0.0007
                                            0.0012 -0.0013  0.0023 -0.0029 -0.0024
                                            0.0048
                ( 49.98%)   0.7070* C   4 s( 28.13%)p 2.55( 71.76%)d 0.00(  0.11%)
                                                  f 0.00(  0.01%)
                                            0.0001  0.5301 -0.0165 -0.0007 -0.0001
                                            0.7386  0.0119 -0.0048 -0.3961  0.0032
                                            0.0052 -0.1214 -0.0096 -0.0065 -0.0265
                                           -0.0040  0.0002 -0.0019  0.0020  0.0012
                                            0.0113  0.0023 -0.0136 -0.0036 -0.0007
                                           -0.0049  0.0024 -0.0016  0.0001 -0.0001
                                           -0.0053
     8. (1.97363) BD ( 1) C   3 - H  10  
                ( 60.77%)   0.7796* C   3 s( 20.77%)p 3.81( 79.12%)d 0.01(  0.11%)
                                                  f 0.00(  0.00%)
                                           -0.0003  0.4554  0.0126 -0.0102  0.0004
                                            0.5181 -0.0117 -0.0076  0.5532 -0.0120
                                           -0.0081 -0.4650 -0.0010  0.0078  0.0234
                                            0.0026 -0.0119 -0.0037 -0.0189 -0.0017
                                           -0.0050  0.0006 -0.0068  0.0001  0.0026
                                            0.0014 -0.0002  0.0019 -0.0034 -0.0006
                                            0.0023
                ( 39.23%)   0.6263* H  10 s( 99.98%)p 0.00(  0.02%)
                                            0.9999  0.0023  0.0007 -0.0078 -0.0080
                                            0.0088
     9. (1.97024) BD ( 1) C   3 - H  11  
                ( 61.10%)   0.7817* C   3 s( 22.48%)p 3.44( 77.36%)d 0.01(  0.16%)
                                                  f 0.00(  0.00%)
                                            0.0001 -0.4738 -0.0135 -0.0105  0.0002
                                            0.0884 -0.0072 -0.0005  0.7223 -0.0121
                                            0.0132  0.4937 -0.0018  0.0074 -0.0146
                                            0.0023 -0.0002  0.0015 -0.0235 -0.0042
                                            0.0260  0.0017  0.0086 -0.0031 -0.0033
                                            0.0020  0.0033 -0.0030  0.0025  0.0017
                                           -0.0018
                ( 38.90%)   0.6237* H  11 s( 99.96%)p 0.00(  0.04%)
                                           -0.9998 -0.0035 -0.0002  0.0002 -0.0160
                                           -0.0125
    10. (1.99257) BD ( 1) C   4 - C   5  
                ( 49.81%)   0.7058* C   4 s( 28.31%)p 2.53( 71.62%)d 0.00(  0.07%)
                                                  f 0.00(  0.00%)
                                            0.0001  0.5315 -0.0245 -0.0015  0.0001
                                           -0.5395 -0.0213  0.0033 -0.4420 -0.0034
                                            0.0016  0.4787  0.0097 -0.0036  0.0119
                                            0.0051 -0.0142 -0.0034 -0.0168 -0.0026
                                            0.0016 -0.0002 -0.0040  0.0021 -0.0031
                                           -0.0019  0.0004 -0.0018  0.0023  0.0010
                                           -0.0023
                ( 50.19%)   0.7085* C   5 s( 30.97%)p 2.22( 68.86%)d 0.01(  0.16%)
                                                  f 0.00(  0.01%)
                                            0.0001  0.5564 -0.0096  0.0082  0.0001
                                            0.5047  0.0062 -0.0066  0.4981  0.0117
                                           -0.0019 -0.4307 -0.0071  0.0040  0.0180
                                            0.0070 -0.0209 -0.0064 -0.0254 -0.0025
                                           -0.0067  0.0052 -0.0061  0.0001  0.0054
                                            0.0036 -0.0001  0.0007 -0.0074  0.0000
                                            0.0047
    11. (1.97623) BD ( 1) C   4 - H  12  
                ( 60.87%)   0.7802* C   4 s( 21.02%)p 3.75( 78.81%)d 0.01(  0.17%)
                                                  f 0.00(  0.00%)
                                            0.0002 -0.4581 -0.0176 -0.0008 -0.0001
                                            0.3759 -0.0144  0.0003 -0.1524 -0.0021
                                           -0.0015  0.7894 -0.0151  0.0032 -0.0031
                                            0.0027 -0.0288 -0.0003  0.0017  0.0016
                                           -0.0042  0.0010 -0.0296 -0.0001  0.0031
                                            0.0033 -0.0008  0.0038 -0.0022  0.0018
                                           -0.0005
                ( 39.13%)   0.6255* H  12 s( 99.97%)p 0.00(  0.03%)
                                           -0.9998 -0.0027 -0.0000 -0.0073  0.0047
                                           -0.0151
    12. (1.97964) BD ( 1) C   4 - H  13  
                ( 60.78%)   0.7796* C   4 s( 22.66%)p 3.41( 77.17%)d 0.01(  0.16%)
                                                  f 0.00(  0.01%)
                                           -0.0001  0.4756  0.0186  0.0018 -0.0000
                                            0.1414 -0.0015  0.0001  0.7881 -0.0074
                                            0.0060  0.3611 -0.0121  0.0028  0.0109
                                           -0.0001  0.0078  0.0011  0.0311 -0.0015
                                           -0.0208 -0.0046 -0.0023 -0.0020 -0.0047
                                           -0.0019 -0.0008 -0.0040  0.0012 -0.0016
                                           -0.0027
                ( 39.22%)   0.6263* H  13 s( 99.96%)p 0.00(  0.04%)
                                            0.9998  0.0039  0.0001 -0.0021 -0.0176
                                           -0.0062
    13. (1.98458) BD ( 1) C   5 - I   6  
                ( 49.46%)   0.7033* C   5 s( 16.34%)p 5.10( 83.28%)d 0.02(  0.37%)
                                                  f 0.00(  0.01%)
                                           -0.0000 -0.4033  0.0223  0.0152 -0.0003
                                            0.7824 -0.0162 -0.0216 -0.4514  0.0213
                                            0.0090 -0.1246 -0.0077  0.0049  0.0464
                                           -0.0091  0.0086 -0.0025  0.0035 -0.0022
                                           -0.0136  0.0025  0.0331 -0.0073  0.0036
                                           -0.0044  0.0026 -0.0008 -0.0013 -0.0006
                                           -0.0081
                ( 50.54%)   0.7109* I   6 s( 10.73%)p 8.29( 88.97%)d 0.03(  0.28%)
                                                  f 0.00(  0.03%)
                                           -0.0001 -0.3261 -0.0301  0.0023  0.0000
                                            0.0000 -0.0001 -0.7807 -0.0336 -0.0012
                                           -0.0002  0.0001  0.5244  0.0233  0.0002
                                            0.0001  0.0000  0.0588  0.0013  0.0005
                                            0.0001  0.0001  0.0422  0.0015 -0.0001
                                            0.0045 -0.0002 -0.0000 -0.0038  0.0001
                                            0.0001 -0.0174 -0.0008  0.0000  0.0257
                                            0.0010 -0.0016 -0.0005  0.0080  0.0023
                                           -0.0053 -0.0014  0.0008  0.0002 -0.0019
                                           -0.0007  0.0022  0.0004  0.0125  0.0036
    14. (1.98538) BD ( 1) C   5 - H  14  
                ( 61.87%)   0.7866* C   5 s( 24.63%)p 3.05( 75.17%)d 0.01(  0.20%)
                                                  f 0.00(  0.01%)
                                           -0.0001  0.4959  0.0180 -0.0012 -0.0000
                                           -0.2257 -0.0033 -0.0028 -0.7083 -0.0063
                                           -0.0097 -0.4458  0.0059 -0.0124  0.0125
                                           -0.0003  0.0106  0.0011  0.0385  0.0034
                                           -0.0110 -0.0062  0.0062 -0.0032  0.0047
                                            0.0027 -0.0033  0.0051 -0.0037  0.0039
                                            0.0041
                ( 38.13%)   0.6175* H  14 s( 99.98%)p 0.00(  0.02%)
                                            0.9999  0.0041 -0.0005  0.0050  0.0097
                                            0.0098
    15. (1.98800) BD ( 1) C   5 - H  15  
                ( 61.86%)   0.7865* C   5 s( 28.13%)p 2.55( 71.69%)d 0.01(  0.17%)
                                                  f 0.00(  0.01%)
                                           -0.0000  0.5303  0.0068  0.0050 -0.0002
                                            0.2782 -0.0028  0.0029 -0.2037 -0.0059
                                            0.0039  0.7732  0.0060  0.0120 -0.0109
                                           -0.0013  0.0248  0.0051 -0.0023 -0.0062
                                            0.0086 -0.0009  0.0287  0.0045  0.0048
                                            0.0058 -0.0074  0.0019 -0.0033  0.0013
                                            0.0001
                ( 38.14%)   0.6175* H  15 s( 99.97%)p 0.00(  0.03%)
                                            0.9999  0.0041 -0.0004 -0.0052  0.0026
                                           -0.0158
    16. (1.99920) CR ( 1) C   1           s(100.00%)p 0.00(  0.00%)
                                            1.0000  0.0002 -0.0000 -0.0000  0.0000
                                            0.0003  0.0000 -0.0000  0.0001  0.0000
                                           -0.0000  0.0001  0.0000 -0.0000 -0.0000
                                            0.0000 -0.0000  0.0000 -0.0000  0.0000
                                           -0.0000  0.0000  0.0000 -0.0000  0.0000
                                            0.0000 -0.0000  0.0000 -0.0000  0.0000
                                            0.0000
    17. (1.99918) CR ( 1) C   2           s(100.00%)p 0.00(  0.00%)
                                            1.0000  0.0002 -0.0000 -0.0000  0.0000
                                           -0.0001 -0.0000  0.0000 -0.0002  0.0000
                                            0.0000  0.0001 -0.0000 -0.0000  0.0000
                                           -0.0000 -0.0000 -0.0000 -0.0000 -0.0000
                                            0.0000 -0.0000  0.0000  0.0000 -0.0000
                                           -0.0000 -0.0000 -0.0000  0.0000  0.0000
                                           -0.0000
    18. (1.99940) CR ( 1) C   3           s(100.00%)p 0.00(  0.00%)
                                            1.0000  0.0000  0.0000 -0.0000  0.0000
                                            0.0002 -0.0000 -0.0000  0.0000 -0.0000
                                           -0.0000 -0.0004 -0.0000  0.0000  0.0000
                                            0.0000 -0.0000 -0.0000 -0.0000  0.0000
                                           -0.0000 -0.0000 -0.0000  0.0000  0.0000
                                           -0.0000 -0.0000 -0.0000 -0.0000  0.0000
                                            0.0000
    19. (1.99943) CR ( 1) C   4           s(100.00%)p 0.00(  0.00%)
                                            1.0000  0.0000  0.0000  0.0000  0.0000
                                           -0.0001  0.0000  0.0000  0.0002 -0.0000
                                            0.0000 -0.0002  0.0000  0.0000  0.0000
                                           -0.0000  0.0000  0.0000  0.0000 -0.0000
                                           -0.0000 -0.0000  0.0000 -0.0000 -0.0000
                                           -0.0000 -0.0000 -0.0000  0.0000 -0.0000
                                            0.0000
    20. (1.99924) CR ( 1) C   5           s(100.00%)p 0.00(  0.00%)
                                            1.0000 -0.0000  0.0000 -0.0000 -0.0000
                                           -0.0001 -0.0000  0.0000 -0.0001 -0.0000
                                            0.0000  0.0001  0.0000 -0.0000 -0.0000
                                           -0.0000  0.0000  0.0000  0.0000  0.0000
                                            0.0000 -0.0000  0.0000 -0.0000 -0.0000
                                           -0.0000 -0.0000  0.0000  0.0000  0.0000
                                           -0.0000
    21. (1.99985) CR ( 1) I   6           s(100.00%)p 0.00(  0.00%)
                                            1.0000  0.0001 -0.0000  0.0000  0.0000
                                            0.0000 -0.0000 -0.0002 -0.0000  0.0000
                                           -0.0000  0.0000  0.0000  0.0000 -0.0000
                                            0.0000  0.0000  0.0000  0.0000  0.0000
                                            0.0000  0.0000  0.0000 -0.0000 -0.0000
                                            0.0000  0.0000 -0.0000 -0.0000  0.0000
                                            0.0000 -0.0000 -0.0000  0.0000  0.0000
                                           -0.0000 -0.0000 -0.0000  0.0000  0.0000
                                           -0.0000 -0.0000  0.0000  0.0000 -0.0000
                                           -0.0000 -0.0000  0.0000  0.0000  0.0000
    22. (1.99991) CR ( 2) I   6           s(  0.00%)p 1.00(100.00%)
                                           -0.0000  0.0000 -0.0000  0.0000  0.0000
                                            0.0000  1.0000 -0.0001 -0.0000 -0.0000
                                           -0.0000  0.0000  0.0001  0.0000 -0.0000
                                            0.0000 -0.0000  0.0000  0.0000  0.0000
                                            0.0000  0.0000  0.0000  0.0000 -0.0000
                                            0.0000 -0.0000  0.0000 -0.0000  0.0000
                                            0.0000 -0.0000 -0.0000  0.0000  0.0000
                                            0.0000 -0.0000 -0.0000  0.0000  0.0000
                                           -0.0000 -0.0000  0.0000  0.0000 -0.0000
                                           -0.0000  0.0000  0.0000  0.0000  0.0000
    23. (1.99995) CR ( 3) I   6           s(  0.00%)p 1.00(100.00%)
                                            0.0000 -0.0000  0.0000 -0.0000 -0.0000
                                           -0.0000  0.0000  0.0002  0.0000  0.0000
                                            0.0000  1.0000  0.0000 -0.0000  0.0000
                                           -0.0000 -0.0000 -0.0000 -0.0000 -0.0000
                                           -0.0000 -0.0000 -0.0000 -0.0000  0.0000
                                           -0.0000 -0.0000  0.0000  0.0000 -0.0000
                                           -0.0000  0.0000  0.0000 -0.0000 -0.0000
                                           -0.0000  0.0000  0.0000 -0.0000 -0.0000
                                            0.0000  0.0000 -0.0000 -0.0000  0.0000
                                            0.0000  0.0000 -0.0000 -0.0000 -0.0000
    24. (1.99998) CR ( 4) I   6           s(  0.00%)p 1.00(100.00%)
                                            0.0000 -0.0000  0.0000 -0.0000 -0.0000
                                           -0.0000 -0.0000  0.0000 -0.0000 -0.0000
                                           -0.0000 -0.0000  0.0000 -0.0000  0.0000
                                            0.0000  1.0000  0.0001 -0.0000 -0.0000
                                           -0.0000  0.0000 -0.0000 -0.0000 -0.0000
                                            0.0000  0.0000  0.0000 -0.0000 -0.0000
                                           -0.0000  0.0000  0.0000  0.0000 -0.0000
                                            0.0000 -0.0000  0.0000 -0.0000  0.0000
                                            0.0000 -0.0000  0.0000 -0.0000 -0.0000
                                            0.0000  0.0000 -0.0000 -0.0000 -0.0000
    25. (1.99912) CR ( 5) I   6           s(  0.00%)p 0.00(  0.00%)d 1.00(100.00%)
                                            0.0000  0.0000  0.0000 -0.0000 -0.0000
                                           -0.0000  0.0000  0.0002  0.0000  0.0000
                                            0.0000 -0.0000  0.0001 -0.0000  0.0000
                                           -0.0000  0.0000 -0.0000  0.0000 -0.0000
                                           -0.0000  1.0000 -0.0000 -0.0000  0.0000
                                           -0.0000 -0.0000 -0.0000  0.0000 -0.0000
                                           -0.0000  0.0000  0.0000 -0.0000 -0.0000
                                           -0.0000  0.0000 -0.0000 -0.0000 -0.0000
                                            0.0000  0.0000 -0.0000  0.0000  0.0000
                                            0.0000  0.0000 -0.0000 -0.0000 -0.0000
    26. (1.99987) CR ( 6) I   6           s(  0.00%)p 0.00(  0.00%)d 1.00(100.00%)
                                           -0.0000 -0.0000 -0.0000  0.0000 -0.0000
                                            0.0000 -0.0000 -0.0001 -0.0000 -0.0000
                                           -0.0000  0.0000  0.0000  0.0000  0.0000
                                            0.0000 -0.0000  0.0003 -0.0000  0.0000
                                           -0.0000  0.0000  0.0000 -0.0000  1.0000
                                            0.0000  0.0000  0.0000 -0.0000 -0.0000
                                            0.0000 -0.0000 -0.0000  0.0000  0.0000
                                            0.0000 -0.0000  0.0000  0.0000  0.0000
                                           -0.0000 -0.0000  0.0000 -0.0000 -0.0000
                                            0.0000  0.0000  0.0000  0.0000  0.0000
    27. (1.99994) CR ( 7) I   6           s(  0.00%)p 0.00(  0.00%)d 1.00(100.00%)
                                           -0.0000  0.0000 -0.0000  0.0000  0.0000
                                            0.0000  0.0000 -0.0000 -0.0000  0.0000
                                            0.0000  0.0000 -0.0000  0.0000  0.0000
                                           -0.0000  0.0000 -0.0002  0.0000  0.0000
                                            0.0000 -0.0000  0.0000  0.0000  0.0000
                                           -0.0000 -0.0000  1.0000  0.0000  0.0000
                                            0.0000 -0.0000 -0.0000 -0.0000  0.0000
                                           -0.0000  0.0000 -0.0000  0.0000 -0.0000
                                           -0.0000  0.0000 -0.0000  0.0000  0.0000
                                           -0.0000 -0.0000  0.0000  0.0000  0.0000
    28. (1.99971) CR ( 8) I   6           s(  0.00%)p 0.00(  0.00%)d 1.00(100.00%)
                                            0.0000  0.0000  0.0000 -0.0000 -0.0000
                                           -0.0000  0.0000  0.0002  0.0000  0.0000
                                            0.0000 -0.0000  0.0002 -0.0000  0.0000
                                           -0.0000 -0.0000  0.0000 -0.0000 -0.0000
                                           -0.0000 -0.0000 -0.0000 -0.0000  0.0000
                                            0.0000 -0.0000  0.0000  0.0000 -0.0000
                                            1.0000  0.0000  0.0000 -0.0000 -0.0000
                                            0.0000  0.0000  0.0000 -0.0000 -0.0000
                                           -0.0000  0.0000 -0.0000  0.0000  0.0000
                                            0.0000  0.0000 -0.0000 -0.0000 -0.0000
    29. (1.99966) CR ( 9) I   6           s(  0.00%)p 0.00(  0.00%)d 1.00(100.00%)
                                            0.0000 -0.0000  0.0000 -0.0000  0.0000
                                           -0.0000  0.0000  0.0000  0.0000  0.0000
                                            0.0000 -0.0000  0.0000 -0.0000  0.0000
                                           -0.0000  0.0000 -0.0001  0.0000 -0.0000
                                            0.0000 -0.0000 -0.0000  0.0000  0.0000
                                           -0.0000 -0.0000 -0.0000  0.0000  0.0000
                                           -0.0000  0.0000  0.0000  1.0000 -0.0000
                                           -0.0000  0.0000 -0.0000 -0.0000 -0.0000
                                            0.0000  0.0000 -0.0000  0.0000  0.0000
                                           -0.0000  0.0000 -0.0000 -0.0000 -0.0000
    30. (1.99791) LP ( 1) I   6           s( 89.27%)p 0.12( 10.72%)d 0.00(  0.01%)
                                                  f 0.00(  0.00%)
                                           -0.0001  0.9448 -0.0054  0.0003  0.0000
                                            0.0000 -0.0001 -0.2628 -0.0096  0.0012
                                           -0.0001  0.0001  0.1880  0.0067 -0.0009
                                            0.0000  0.0000  0.0510 -0.0001 -0.0000
                                            0.0000  0.0000  0.0092 -0.0015 -0.0000
                                            0.0014 -0.0003  0.0000 -0.0009  0.0002
                                           -0.0000 -0.0040  0.0007  0.0000  0.0056
                                           -0.0010 -0.0006 -0.0001  0.0027  0.0002
                                           -0.0018 -0.0001  0.0003  0.0000 -0.0009
                                           -0.0000  0.0009 -0.0000  0.0043  0.0003
    31. (1.98413) LP ( 2) I   6           s(  0.07%)p99.99( 99.91%)d 0.07(  0.01%)
                                                  f 0.12(  0.01%)
                                           -0.0000  0.0269  0.0003 -0.0001  0.0000
                                            0.0000  0.0000 -0.4369  0.0048  0.0002
                                            0.0001  0.0001 -0.5545  0.0068 -0.0001
                                            0.0000  0.0001 -0.7076  0.0085  0.0000
                                            0.0000  0.0001 -0.0018  0.0002  0.0002
                                           -0.0045 -0.0001 -0.0002  0.0015  0.0008
                                            0.0002 -0.0039 -0.0009 -0.0000  0.0030
                                           -0.0007  0.0035 -0.0009  0.0024 -0.0006
                                            0.0004 -0.0001 -0.0017  0.0004  0.0045
                                           -0.0011 -0.0060  0.0016  0.0014 -0.0003
    32. (1.98227) LP ( 3) I   6           s(  0.02%)p99.99( 99.97%)d 0.17(  0.00%)
                                                  f 0.45(  0.01%)
                                            0.0001  0.0140  0.0000  0.0003  0.0000
                                           -0.0000  0.0000  0.3554 -0.0046 -0.0000
                                           -0.0000 -0.0001  0.6166 -0.0067  0.0001
                                           -0.0000  0.0001 -0.7021  0.0080  0.0000
                                            0.0000 -0.0002  0.0011  0.0007  0.0002
                                           -0.0029 -0.0011 -0.0001  0.0026  0.0002
                                           -0.0002  0.0033  0.0008 -0.0001  0.0016
                                           -0.0003  0.0038 -0.0010  0.0002  0.0000
                                           -0.0020  0.0005 -0.0023  0.0007  0.0044
                                           -0.0011  0.0062 -0.0017 -0.0012  0.0004
    33. (0.00346) RY*( 1) C   1           s(  4.27%)p21.16( 90.38%)d 1.18(  5.06%)
                                                  f 0.07(  0.29%)
                                            0.0000 -0.0032  0.1888  0.0835  0.0087
                                            0.0172 -0.1978 -0.0501  0.0141  0.3488
                                            0.0295 -0.0083 -0.8571 -0.0662  0.0251
                                           -0.0945  0.0634  0.1608  0.0223  0.0510
                                            0.0546  0.0173 -0.0110  0.0679  0.0037
                                            0.0280  0.0113 -0.0070  0.0024 -0.0088
                                           -0.0431
    34. (0.00168) RY*( 2) C   1           s( 48.01%)p 0.99( 47.52%)d 0.09(  4.23%)
                                                  f 0.00(  0.24%)
                                            0.0000 -0.0164  0.6631 -0.2002 -0.0005
                                            0.0302 -0.5339 -0.2642  0.0194 -0.2470
                                           -0.1896  0.0099  0.1411  0.0466  0.0588
                                            0.0344  0.0437 -0.0459 -0.0888  0.0729
                                            0.0079  0.0802  0.0306 -0.1142  0.0033
                                           -0.0268 -0.0209 -0.0172  0.0168  0.0226
                                            0.0104
    35. (0.00046) RY*( 3) C   1           s(  8.29%)p 6.11( 50.65%)d 4.57( 37.91%)
                                                  f 0.38(  3.15%)
                                            0.0000 -0.0028 -0.0520  0.2819 -0.0271
                                            0.0430 -0.0232 -0.0511 -0.0074 -0.6748
                                            0.0449  0.0085 -0.2009  0.0607  0.2992
                                           -0.0342 -0.2105  0.1432  0.2339 -0.1540
                                            0.1793 -0.1000 -0.2938  0.1294  0.0146
                                            0.1024 -0.0030  0.0442 -0.0791 -0.0704
                                           -0.0871
    36. (0.00027) RY*( 4) C   1           s( 11.85%)p 5.15( 61.03%)d 2.11( 25.01%)
                                                  f 0.18(  2.11%)
                                            0.0000 -0.0006 -0.1950  0.2835  0.0089
                                            0.0145 -0.5774  0.0242  0.0235  0.3612
                                            0.1471  0.0222  0.2941 -0.1910  0.1104
                                            0.0095 -0.0726 -0.0704  0.0188 -0.0704
                                           -0.0028  0.0910 -0.4135  0.2073  0.0534
                                            0.0659  0.0763 -0.0221 -0.0338  0.0310
                                           -0.0742
    37. (0.00009) RY*( 5) C   1           s( 12.32%)p 2.80( 34.48%)d 4.12( 50.74%)
                                                  f 0.20(  2.46%)
    38. (0.00005) RY*( 6) C   1           s( 15.69%)p 1.75( 27.49%)d 3.45( 54.09%)
                                                  f 0.17(  2.73%)
    39. (0.00003) RY*( 7) C   1           s(  0.92%)p23.17( 21.36%)d69.11( 63.71%)
                                                  f15.19( 14.00%)
    40. (0.00003) RY*( 8) C   1           s( 34.50%)p 1.26( 43.35%)d 0.44( 15.11%)
                                                  f 0.20(  7.03%)
    41. (0.00000) RY*( 9) C   1           s(  7.75%)p10.35( 80.25%)d 1.48( 11.45%)
                                                  f 0.07(  0.55%)
    42. (0.00000) RY*(10) C   1           s( 11.31%)p 3.14( 35.51%)d 4.60( 52.05%)
                                                  f 0.10(  1.13%)
    43. (0.00000) RY*(11) C   1           s(  4.34%)p 1.67(  7.24%)d20.19( 87.59%)
                                                  f 0.19(  0.82%)
    44. (0.00000) RY*(12) C   1           s(  8.84%)p 0.67(  5.96%)d 9.46( 83.71%)
                                                  f 0.17(  1.48%)
    45. (0.00000) RY*(13) C   1           s(  0.38%)p16.58(  6.23%)d99.99( 93.21%)
                                                  f 0.48(  0.18%)
    46. (0.00000) RY*(14) C   1           s( 13.20%)p 4.66( 61.48%)d 1.79( 23.66%)
                                                  f 0.13(  1.67%)
    47. (0.00000) RY*(15) C   1           s(  0.70%)p 1.03(  0.72%)d99.99( 98.56%)
                                                  f 0.02(  0.01%)
    48. (0.00001) RY*(16) C   1           s(  2.45%)p 3.30(  8.09%)d36.55( 89.44%)
                                                  f 0.01(  0.02%)
    49. (0.00000) RY*(17) C   1           s(  4.89%)p 1.01(  4.92%)d18.43( 90.15%)
                                                  f 0.01(  0.04%)
    50. (0.00000) RY*(18) C   1           s( 98.92%)p 0.00(  0.13%)d 0.01(  0.86%)
                                                  f 0.00(  0.09%)
    51. (0.00000) RY*(19) C   1           s(  3.28%)p 1.36(  4.45%)d27.87( 91.31%)
                                                  f 0.30(  0.97%)
    52. (0.00000) RY*(20) C   1           s(  0.39%)p 1.06(  0.42%)d 0.48(  0.19%)
                                                  f99.99( 99.00%)
[...]
 ! D23   D(12,4,5,6)           -56.2948         -DE/DX =    0.0                 !
 ! D24   D(12,4,5,14)           61.2075         -DE/DX =    0.0                 !
 ! D25   D(12,4,5,15)         -173.6686         -DE/DX =    0.0                 !
 ! D26   D(13,4,5,6)            61.4418         -DE/DX =    0.0                 !
 ! D27   D(13,4,5,14)          178.9441         -DE/DX =    0.0                 !
 ! D28   D(13,4,5,15)          -55.932          -DE/DX =    0.0                 !
 --------------------------------------------------------------------------------
 GradGradGradGradGradGradGradGradGradGradGradGradGradGradGradGradGradGrad


 ----------------------------------------------------------------------

 Electric dipole moment (input orientation):
 (Debye = 10**-18 statcoulomb cm , SI units = C m)
                  (au)            (Debye)         (10**-30 SI)
   Tot        0.991954D+00      0.252130D+01      0.841014D+01
   x          0.854717D+00      0.217247D+01      0.724659D+01
   y         -0.430603D+00     -0.109448D+01     -0.365081D+01
   z         -0.260793D+00     -0.662870D+00     -0.221110D+01

 Dipole polarizability, Alpha (input orientation).
 (esu units = cm**3 , SI units = C**2 m**2 J**-1)
 Alpha(0;0):
               (au)            (10**-24 esu)      (10**-40 SI)
   iso        0.120617D+03      0.178736D+02      0.198870D+02
   aniso      0.579539D+02      0.858789D+01      0.955531D+01
   xx         0.158523D+03      0.234907D+02      0.261369D+02
   yx        -0.633994D+01     -0.939482D+00     -0.104532D+01
   yy         0.102152D+03      0.151373D+02      0.168425D+02
   zx         0.635987D+00      0.942436D-01      0.104860D+00
   zy         0.102861D+01      0.152424D+00      0.169595D+00
   zz         0.101176D+03      0.149928D+02      0.166817D+02

 ----------------------------------------------------------------------

 Dipole orientation:
     6          3.19483588         -0.78533848          3.40384620
     6          1.42940240          0.45773032          2.13283011
     6         -1.04001260         -0.66660666          1.31747183
     6         -1.29060877         -0.94231248         -1.56364492
     6         -1.24876102          1.59931193         -2.87834200
    53         -1.80473400          1.21178893         -6.89163918
     1          2.92620962         -2.74087116          3.95746686
     1          4.95848908          0.10318487          3.93780195
     1          1.76769489          2.41930259          1.62673380
     1         -1.25491316         -2.53228387          2.17078093
     1         -2.59776628          0.50670095          2.00566899
     1         -3.06323854         -1.90526830         -1.98798339
     1          0.24217168         -2.12442999         -2.27739545
     1         -2.76700465          2.83085451         -2.25110848
     1          0.54986377          2.56905716         -2.70298406

 Electric dipole moment (dipole orientation):
 (Debye = 10**-18 statcoulomb cm , SI units = C m)
                  (au)            (Debye)         (10**-30 SI)
   Tot        0.991954D+00      0.252130D+01      0.841014D+01
   x          0.000000D+00      0.000000D+00      0.000000D+00
   y          0.000000D+00      0.000000D+00      0.000000D+00
   z          0.991954D+00      0.252130D+01      0.841014D+01

 Dipole polarizability, Alpha (dipole orientation).
 (esu units = cm**3 , SI units = C**2 m**2 J**-1)
 Alpha(0;0):
               (au)            (10**-24 esu)      (10**-40 SI)
   iso        0.120617D+03      0.178736D+02      0.198870D+02
   aniso      0.579539D+02      0.858789D+01      0.955531D+01
   xx         0.110431D+03      0.163641D+02      0.182075D+02
   yx        -0.513671D+01     -0.761182D+00     -0.846929D+00
   yy         0.102794D+03      0.152325D+02      0.169485D+02
   zx         0.196933D+02      0.291825D+01      0.324699D+01
   zy        -0.101183D+02     -0.149937D+01     -0.166828D+01
   zz         0.148626D+03      0.220241D+02      0.245051D+02

 ----------------------------------------------------------------------
 Unable to Open any file for archive entry.
 1\1\GINC-R5I4N12\Freq\RM062X\def2TZVP\C5H9I1\HMAYES\20-Aug-2021\0\\#N 
 Geom=AllCheck Guess=TCheck SCRF=Check GenChk RM062X/def2TZVP Freq\\tpl
 \\0,1\C,2.3718625572,0.0723827746,0.8027704459\C,1.2124872419,-0.47199
 20354,0.4601744249\C,0.4783869419,-0.1655215937,-0.8106317956\C,-0.846
 7424609,0.5811629603,-0.5873925146\C,-1.8354152201,-0.2545602874,0.198
 4420892\I,-3.7258525201,0.754682812,0.4142690006\H,2.872197343,0.78352
 40097,0.154050922\H,2.8606962238,-0.1738904255,1.7367543512\H,0.748068
 43,-1.1858507731,1.1354348744\H,1.1130031197,0.4447428126,-1.455907431
 \H,0.2685699462,-1.0959976612,-1.3471340079\H,-1.2758864806,0.83435955
 02,-1.557818112\H,-0.6526424213,1.5175613661,-0.0607458663\H,-2.073540
 0389,-1.1910582997,-0.2981859668\H,-1.515192662,-0.4495452094,1.216919
 5861\\Version=ES64L-G16RevC.01\HF=-493.5350772\RMSD=1.138e-09\RMSF=8.4
 26e-06\ZeroPoint=0.128465\Thermal=0.1360683\ETot=-493.3990089\HTot=-49
 3.3980647\GTot=-493.4410845\Dipole=0.8547166,-0.4306033,-0.2607931\Dip
 oleDeriv=-0.2854212,0.1298573,-0.0256884,0.0901836,-0.2054938,-0.21709
 57,-0.0451918,-0.1689363,-0.0591386,0.1222018,0.1798177,0.191289,0.156
 1847,-0.1214466,-0.1389609,0.3265365,-0.1418193,0.102154,-0.0243061,-0
 .0191857,-0.05138,-0.1784559,0.1990291,0.1012755,0.0908015,0.0425462,0
 .0793639,-0.0544601,0.0328793,0.0807709,0.3169943,0.0456604,-0.0641333
 ,-0.1368867,0.0195526,0.0700401,0.9389688,-0.2791716,-0.1600926,-0.378
 355,0.1491363,0.0981429,-0.1642583,0.0705727,0.0441811,-0.5001436,0.05
 94333,0.0745724,0.140847,-0.1832607,-0.0345201,0.059662,-0.0115106,-0.
 1695137,0.0622522,-0.0680107,-0.0116563,-0.098729,0.0659464,0.0904409,
 0.0416418,0.1263716,0.0103792,0.0443451,-0.035349,-0.0779049,-0.031102
 8,0.1267368,0.0871165,-0.1201761,0.067601,-0.0288246,0.0528601,-0.1010
 444,0.0079839,-0.1064396,0.053029,0.1043987,0.0002101,0.1151429,-0.012
 1849,-0.1425777,-0.039403,0.1114381,-0.0141412,0.0006,0.0918423,0.0335
 589,0.0513325,-0.0163383,0.0331505,-0.0453074,-0.062645,0.0153148,-0.0
 882649,-0.0996792,-0.102731,-0.0780552,-0.0100561,-0.0518116,0.0268312
 ,-0.1026908,0.0080678,0.0695356,0.0495988,-0.0509134,0.0557818,-0.0807
 005,0.026012,-0.0261055,0.0068646,-0.0407287,-0.0804764,-0.0580013,0.0
 247619,-0.1057524,0.0194153,-0.116014,0.0950761,0.0559873,0.0344846,-0
 .0627766,-0.0440553,0.0146906,-0.0630721,0.0629369,-0.1050561,0.089682
 4,-0.036848,0.0858753,0.0320453,0.0336301,0.0282941,0.0202446,-0.01171
 39\Polar=158.5230767,-6.3399409,102.1515404,0.635987,1.0286098,101.176
 1354\Quadrupole=-5.3179393,2.235867,3.0820724,2.9205233,1.2562127,-0.9
 647434\PG=C01 [X(C5H9I1)]\NImag=0\\0.69206986,0.27048014,0.38164965,0.
 17186321,-0.15664138,0.55844237,-0.45306849,-0.18872817,-0.11357155,0.
 70426294,-0.18921514,-0.15953101,-0.02835151,0.27143043,0.41325167,-0.
 11278509,-0.02807219,-0.12909550,0.12623954,-0.12625077,0.49967809,-0.
 01557523,0.00283803,-0.03058440,-0.10925987,0.00423178,-0.04944528,0.4
 8688844,-0.00829630,0.00890244,-0.01000101,0.00892164,-0.08814209,0.03
 180763,0.07298008,0.55627634,-0.01047225,0.00161048,-0.00690703,-0.057
 41868,0.02977521,-0.19102077,-0.01618991,-0.01018609,0.53539321,0.0021
 7103,0.00205965,0.00027465,-0.02174228,0.00873796,-0.00695415,-0.14545
 698,0.04043785,0.01929516,0.45674886,-0.00148946,-0.00023138,-0.001224
 00,0.00707507,-0.00444337,0.00214296,0.04640468,-0.10306938,-0.0082882
 8,0.01873668,0.55323219,-0.00105295,0.00114783,-0.00378902,-0.02726526
 ,0.01369408,0.00837552,0.00954389,-0.00394474,-0.07927398,0.05592613,0
 .01865054,0.58068146,0.00048047,0.00004224,0.00075769,-0.00124455,-0.0
 0033700,-0.00107537,-0.02669168,-0.00884139,0.01537570,-0.11399795,-0.
 05735024,0.03871441,0.32064714,0.00012418,-0.00014160,0.00034229,0.000
 75237,0.00079607,-0.00053095,0.00653897,0.00804447,-0.00765783,-0.0586
 2247,-0.12075321,0.04061959,0.08670305,0.48511359,-0.00016392,0.000330
 19,-0.00074244,-0.00098111,-0.00119036,0.00206390,0.00831513,-0.000998
 03,-0.00370814,0.03803853,0.04006917,-0.11837969,0.05738199,0.01833673
 ,0.56409277,-0.00043929,-0.00010355,-0.00042828,0.00060666,-0.00002471
 ,0.00101050,-0.00068036,-0.00592543,0.00277386,-0.02625502,0.01612035,
 0.00302847,-0.06380378,0.03039759,0.00096174,0.11553105,0.00012380,0.0
 0007131,0.00001179,-0.00015927,-0.00011445,-0.00007284,-0.00072096,0.0
 0143211,0.00007133,-0.00163100,0.00153264,-0.00042048,0.02871646,-0.03
 760577,-0.00226701,-0.05344970,0.04435841,0.00010596,-0.00005778,0.000
 28759,0.00000442,0.00014641,-0.00049416,0.00107554,0.00198393,-0.00049
 111,0.01078129,-0.00687651,-0.00121500,0.00181484,-0.00301789,-0.01966
 007,-0.01201047,0.00489390,0.01594733,-0.10921317,-0.08852898,0.070531
 23,-0.00898374,-0.02087808,0.01744557,-0.00072269,0.00302831,0.0036393
 9,-0.00031236,0.00004463,-0.00063171,0.00011327,-0.00001515,0.00005251
 ,-0.00004913,0.00001994,-0.00000236,0.11167400,-0.09041740,-0.16585093
 ,0.11707843,-0.00753005,-0.00388393,0.01028236,0.00442427,-0.00449827,
 -0.00224428,0.00052705,0.00021065,0.00072133,-0.00004121,-0.00006851,0
 .00016518,0.00004845,0.00000965,-0.00006316,0.10309399,0.16839143,0.07
 435213,0.11952339,-0.15688003,-0.00526455,-0.00366463,0.00742516,0.000
 88742,-0.00421325,-0.00035193,0.00034913,-0.00002152,0.00060215,-0.000
 12027,-0.00001161,0.00003375,0.00000650,0.00001488,-0.00003356,-0.0782
 4763,-0.12951339,0.15634008,-0.10720925,0.02143384,-0.11195430,-0.0090
 0960,0.00722605,-0.02610758,0.00040647,-0.00750159,-0.00200324,0.00050
 452,-0.00007752,0.00037156,0.00010256,-0.00001286,0.00000994,-0.000061
 42,0.00002261,0.00000088,0.00820835,-0.00338662,0.01167906,0.10913803,
 0.02404387,-0.06175828,0.06788679,-0.00820060,0.00660147,-0.01214606,-
 0.00584799,0.00709300,0.00478083,-0.00098911,0.00007459,-0.00217117,0.
 00021631,0.00007469,-0.00014769,-0.00009005,0.00000224,0.00006179,0.00
 852213,-0.00094747,0.01502056,-0.02179327,0.05307286,-0.11605915,0.065
 16837,-0.26927518,-0.00126634,0.00364560,-0.00288230,-0.00305011,0.003
 63510,0.00398054,-0.00064002,-0.00018337,-0.00132376,0.00013028,0.0000
 7382,-0.00009390,-0.00011502,0.00001738,0.00005158,-0.00814551,0.00222
 179,-0.00981351,0.12724422,-0.07103193,0.27910445,-0.00948672,-0.02210
 233,0.01791617,-0.10171488,-0.07947116,0.06665946,0.00919462,0.0096404
 2,-0.00995944,0.00082317,-0.00035894,0.00101474,-0.00087259,0.00027339
 ,0.00043172,0.00010790,-0.00006743,-0.00001944,-0.00110782,-0.00598059
 ,-0.00393143,-0.00095526,0.00366176,0.00185397,0.10648115,-0.00717512,
 -0.00374786,0.01107723,-0.08172691,-0.16767232,0.11633671,-0.00376376,
 -0.00078075,0.00266932,-0.00058558,0.00029666,-0.00023081,0.00005502,-
 0.00003829,0.00038996,-0.00007458,0.00007996,-0.00014150,-0.00576403,0
 .00629255,0.00271153,0.00336900,-0.00399017,-0.00324431,0.09412304,0.1
 6790589,-0.00656154,-0.00468309,0.00862831,0.07058308,0.11818618,-0.16
 046649,0.01191152,0.01690596,-0.01319915,0.00035655,-0.00009563,-0.000
 36371,-0.00005187,0.00024137,-0.00026442,0.00003499,-0.00011178,0.0001
 4230,-0.00412932,0.00277947,0.00288001,0.00221295,-0.00310501,-0.00083
 881,-0.07128691,-0.13070493,0.16503912,0.00097330,0.00144673,-0.000878
 51,0.00858447,0.00989372,-0.01088311,-0.13565039,-0.08977801,0.0917023
 7,-0.01910865,-0.01560105,0.01579374,-0.00199346,0.00349397,-0.0001992
 9,-0.00185855,0.00028971,0.00067449,-0.00006934,-0.00024454,0.00049735
 ,0.00015132,0.00001180,0.00009247,-0.00098406,0.00029964,-0.00313497,0
 .15157814,0.00005195,0.00036100,-0.00152223,-0.00355339,-0.00517545,0.
 00505086,-0.08939472,-0.13310598,0.08749026,0.01241293,0.00895780,-0.0
 1058332,0.00166310,-0.00116332,-0.00001331,0.00101210,-0.00009270,-0.0
 0022922,0.00028898,0.00031742,0.00015495,0.00019946,-0.00004058,-0.000
 19101,0.00045543,0.00139147,0.00139618,0.09329233,0.14140264,0.0012843
 6,-0.00004842,0.00154765,0.01623805,0.01834217,-0.01939510,0.08917464,
 0.08640903,-0.13873247,0.00308890,0.00219374,-0.00331821,0.00015774,-0
 .00090585,0.00098970,0.00011422,0.00013772,0.00002319,-0.00073966,-0.0
 0073865,0.00015715,-0.00001099,-0.00019265,0.00043836,-0.00298549,0.00
 077049,-0.00347052,-0.09610933,-0.09767935,0.15141783,-0.00018291,0.00
 136020,-0.00245349,-0.00619011,-0.01472387,-0.00895595,-0.05364783,-0.
 04735926,-0.02407011,0.00265845,0.02685313,0.01550830,0.00131029,0.001
 35456,0.00027233,0.00035464,-0.00030433,-0.00026428,0.00067114,-0.0006
 4447,-0.00050588,-0.00126679,0.00110344,0.00032104,0.00040102,0.000611
 67,0.00034324,-0.00367057,-0.01498876,-0.00968546,0.06340877,0.0011203
 4,0.00007615,0.00018967,0.00066874,0.00818355,0.00390811,-0.04557696,-
 0.23464664,-0.10460626,-0.00148259,-0.01595977,-0.00848644,-0.00097946
 ,0.00075148,0.00078247,0.00003525,0.00014610,0.00011716,0.00013153,0.0
 0010429,0.00001410,0.00038273,-0.00036005,-0.00024339,-0.00052697,0.00
 036498,-0.00068343,-0.00277942,-0.01432234,-0.00826935,0.04540233,0.25
 532959,-0.00089344,0.00185668,-0.00323898,-0.00788455,-0.02536990,-0.0
 1417595,-0.02363577,-0.10587640,-0.10967183,0.00052229,-0.00478020,-0.
 00278618,-0.00031120,-0.00061378,-0.00011985,-0.00005737,0.00016180,0.
 00006223,0.00025964,-0.00055150,-0.00027813,-0.00158340,0.00094579,0.0
 0059354,0.00048596,0.00071084,0.00107412,0.00293029,0.01609709,0.00982
 639,0.02892499,0.11730369,0.11769311,-0.00047632,0.00043499,-0.0011745
 3,-0.00399116,0.00259727,0.00350789,-0.01384363,0.00723687,-0.02498168
 ,-0.08608263,0.02305372,-0.09744130,0.00593306,-0.00549578,0.02384847,
 0.00122767,-0.00054175,0.00056303,-0.00020020,0.00018986,0.00019831,0.
 00004729,-0.00063423,-0.00038049,0.00009070,0.00007522,-0.00034603,0.0
 0080293,-0.00074691,-0.00024392,0.00125566,-0.00026005,0.00022478,0.10
 012370,0.00033296,-0.00001532,0.00085792,0.00222046,-0.00045839,-0.001
 98047,0.00805341,-0.00511815,0.01445770,0.02092151,-0.06221690,0.05109
 807,0.00762157,-0.00509538,0.01845682,-0.00027795,0.00038416,-0.000556
 34,0.00008210,-0.00008222,-0.00008258,0.00005073,0.00028057,0.00017567
 ,-0.00018089,0.00005922,0.00001875,-0.00063284,0.00063761,-0.00028084,
 -0.00075045,0.00032865,0.00036684,-0.02491690,0.06492694,0.00018977,0.
 00023909,0.00033467,0.00071444,-0.00070739,0.00037568,0.00375055,-0.00
 226410,0.00589652,-0.09498549,0.05207544,-0.26129217,-0.00541637,0.004
 39578,-0.01685840,-0.00005680,-0.00036235,0.00034877,0.00002920,-0.000
 02879,-0.00004533,0.00004319,0.00008662,0.00005349,0.00007985,-0.00005
 308,0.00009953,-0.00046592,0.00009031,0.00054880,-0.00042397,0.0004016
 6,0.00032028,0.09927848,-0.05947713,0.28253662,-0.00002363,-0.00064865
 ,-0.00008511,0.00228067,0.00013018,0.00127235,0.00235229,0.02635280,0.
 01372961,-0.05400855,-0.04129991,-0.02505743,-0.00721405,-0.02036826,-
 0.01049435,0.00071245,-0.00056637,-0.00045369,-0.00002380,-0.00005229,
 0.00005172,-0.00005896,0.00004423,0.00004675,-0.00006803,0.00008643,-0
 .00003806,0.00116306,-0.00086822,-0.00020185,-0.00477020,0.00328831,0.
 00065084,-0.00271951,-0.01044962,-0.00542616,0.06387036,0.00031843,0.0
 0025576,0.00038938,-0.00113144,0.00047516,-0.00051282,-0.00078725,-0.0
 1385976,-0.00726042,-0.04285175,-0.23969127,-0.10942538,-0.00342199,-0
 .01703058,-0.00865163,-0.00036789,0.00077433,0.00016134,-0.00002271,0.
 00000467,0.00005360,0.00009133,-0.00008670,-0.00003752,0.00009196,-0.0
 0008103,0.00004413,0.00004945,0.00063927,0.00013894,0.00271543,-0.0003
 5748,-0.00037702,0.00145299,0.00710116,0.00349636,0.04563529,0.2618991
 8,0.00025884,-0.00013600,0.00033160,-0.00004568,0.00122448,0.00024328,
 -0.00059866,-0.00371876,-0.00256902,-0.02581061,-0.11238311,-0.1140019
 4,0.00526205,0.01755998,0.00898438,-0.00057229,0.00019847,0.00012080,-
 0.00004519,0.00006458,0.00004442,0.00014529,-0.00007367,-0.00003484,0.
 00003510,-0.00002234,0.00004457,0.00006219,-0.00002653,-0.00009484,0.0
 0106916,-0.00003788,0.00091886,-0.00467755,-0.02434807,-0.01308242,0.0
 2289556,0.11978005,0.11945792,-0.00001684,0.00002464,-0.00005014,0.000
 03468,0.00011182,0.00014046,0.00139978,-0.00110341,-0.00078866,-0.0047
 0868,-0.01802969,-0.00991338,-0.04872048,-0.05415986,-0.02897211,-0.00
 962190,0.01999759,0.00879912,0.00000338,0.00000841,0.00001900,0.000009
 26,-0.00003639,-0.00002266,0.00006459,0.00000694,-0.00004589,0.0000716
 4,0.00021138,0.00011545,-0.00027362,0.00050107,0.00035707,0.00038319,0
 .00065867,0.00025428,-0.00198834,-0.00222863,0.00272934,0.06410096,0.0
 0002207,-0.00000308,0.00001676,-0.00013262,0.00000109,0.00003536,0.000
 55754,0.00108377,-0.00035636,-0.00393357,-0.01501253,-0.00875175,-0.06
 143242,-0.25730227,-0.11435919,0.00343472,-0.00627945,-0.00293206,-0.0
 0000111,-0.00001146,-0.00000086,0.00000172,-0.00000529,-0.00000069,-0.
 00018928,-0.00011580,-0.00002580,0.00022567,0.00024574,0.00019731,-0.0
 0055918,0.00035674,0.00013352,0.00065984,0.00051607,-0.00008165,-0.002
 35102,-0.00061435,0.00239554,0.06313379,0.26998116,0.00002287,0.000011
 03,0.00001446,-0.00006549,-0.00001620,-0.00007267,-0.00080109,0.000273
 21,0.00084458,0.00463076,0.01655476,0.00938251,-0.03057942,-0.11399580
 ,-0.11346877,-0.00024828,0.00088067,0.00047563,0.00001318,-0.00002084,
 -0.00000356,-0.00001004,0.00001481,0.00001040,-0.00000240,-0.00001503,
 -0.00000897,-0.00022503,0.00001232,-0.00008658,-0.00011559,-0.00038766
 ,-0.00023305,-0.00082315,-0.00034150,0.00080259,0.00296477,0.00228242,
 -0.00121188,0.03076726,0.12019208,0.11496068,-0.00000281,-0.00000876,-
 0.00016264,-0.00056474,0.00029075,-0.00006923,0.00128706,0.00020744,-0
 .00063213,0.00876707,-0.00408147,0.02146079,-0.06404825,0.00903631,-0.
 08850158,-0.01577093,0.00827067,-0.01106932,0.00001211,0.00000515,0.00
 002916,-0.00000652,-0.00001191,-0.00000944,-0.00197380,0.00046300,0.00
 015226,0.00001016,-0.00003565,-0.00019666,-0.00005796,0.00007515,0.000
 00987,-0.00255074,-0.00273275,0.00243494,0.00049621,0.00045675,-0.0007
 0756,-0.00073762,0.00056384,-0.00552834,0.07514078,-0.00002432,-0.0000
 3685,-0.00011014,0.00009374,0.00011199,0.00000211,0.00006287,0.0003888
 9,-0.00025561,0.00626244,-0.00292675,0.01808267,0.00738598,-0.05558137
 ,0.04909669,0.00926542,-0.00469854,0.00650993,-0.00000155,0.00001213,0
 .00001483,-0.00000562,-0.00001088,-0.00000553,0.00063159,0.00003549,-0
 .00016235,0.00003283,-0.00005257,-0.00007429,-0.00007043,0.00000475,-0
 .00000745,-0.00310516,-0.00124802,0.00218923,0.00106709,0.00057164,-0.
 00047673,-0.00909634,0.00715965,-0.02544427,-0.01249853,0.05627044,-0.
 00008881,-0.00024821,0.00034153,-0.00001633,0.00053664,-0.00055870,-0.
 00035346,0.00018752,-0.00018943,-0.00487312,0.00216602,-0.01329798,-0.
 08204020,0.04516415,-0.30286882,0.00555824,-0.00315348,0.00443448,-0.0
 0002934,-0.00015254,-0.00007666,-0.00003755,0.00007100,0.00002993,-0.0
 0029187,-0.00025408,0.00070411,0.00014326,-0.00004698,0.00014866,0.000
 03568,-0.00000244,0.00001544,0.00244770,0.00163515,-0.00003864,0.00014
 505,-0.00008142,0.00084910,-0.00338913,0.00353777,-0.01140538,0.082789
 89,-0.04935909,0.32191236\\0.00000220,0.00000059,-0.00000230,0.0000056
 6,0.00000025,-0.00000445,-0.00000281,0.00001409,0.00000377,-0.00000790
 ,-0.00000114,0.00001068,0.00000978,-0.00000328,-0.00000076,-0.00000533
 ,-0.00001672,0.00001509,-0.00000388,0.00000852,0.00000108,0.00000355,-
 0.00000739,-0.00000796,0.00000686,-0.00000876,-0.00001423,-0.00000297,
 0.00001580,-0.00000063,0.00000061,0.00001449,-0.00001257,-0.00000376,0
 .00001102,0.00000794,-0.00000571,-0.00000199,0.00001378,-0.00000086,-0
 .00000706,-0.00000919,0.00000455,-0.00001840,-0.00000025\\\@
 The archive entry for this job was punched.


 NATURE REVEALS EVERY SECRET ONCE.
                    - RALPH WALDO EMERSON
 Job cpu time:       0 days  1 hours 13 minutes 39.4 seconds.
 Elapsed time:       0 days  0 hours  2 minutes  3.7 seconds.
 File lengths (MBytes):  RWF=    171 Int=      0 D2E=      0 Chk=     13 Scr=      1
 Normal termination of Gaussian 16 at Fri Aug 20 12:38:06 2021.
