 Entering Gaussian System, Link 0=g16
 Initial command:
 /nopt/nrel/apps/gaussian/g16B/g16/l1.exe "/dev/shm/Gau-132760.inp" -scrdir="/dev/shm/"
 Default is to use a total of  36 processors:
                               36 via shared-memory
                                1 via Linda
 Entering Link 1 = /nopt/nrel/apps/gaussian/g16B/g16/l1.exe PID=    132761.
  
 Copyright (c) 1988-2017, Gaussian, Inc.  All Rights Reserved.
 ...
 ******************************************
 Gaussian 16:  ES64L-G16RevB.01 20-Dec-2017
                23-Feb-2020
 ******************************************
 %RWF=/dev/shm/,5GB,/scratch/hmayes/g_dimer_102_2487668/,-1
 %NoSave
 %Chk=/dev/shm/g_dimer_102.chk
 %CPU=0-35
 SetSPE:  set environment variable "MP_BIND" = "yes"
 SetSPE:  set environment variable "MP_BLIST" = "0,1,2,3,4,5,6,7,8,9,10,11,12,13,14,15,16,17,18,19,20,21,22,23,24,25,26,27,28,29,30,31,32,33,34,35"
 Will use up to   36 processors via shared memory.
 %Mem=72983493KB
 Default route: CacheSize=180224 MaxDisk=256GB
 ----------------------------------------------------------------------
 # b3lyp/Def2SVP nosymm opt scf=(xqc,maxconventionalcycles=400) CPHF=Gr
 id=Fine SCRF=(CPCM,Solvent=Water,Read) guess=mix EmpiricalDispersion=G
 D3BJ geom=connectivity
 ----------------------------------------------------------------------
 1/4=180224,18=20,19=15,26=3,38=1,40=2,57=2/1,3;
 2/4=180224,9=110,12=2,15=1,17=6,18=5,40=1/2;
 3/4=180224,5=43,7=101,11=2,25=1,30=1,70=2103,71=1,72=1,74=-5,124=41/1,2,3;
 4/4=180224,13=-1/1;
 5/4=180224,5=2,8=3,13=1,38=5,53=1,85=400/2,8;
 6/4=180224,7=2,8=2,9=2,10=2,28=1/1;
 7/4=180224,30=1/1,2,3,16;
 1/4=180224,18=20,19=15,26=3/3(2);
 2/4=180224,9=110,15=1/2;
 99/4=180224/99;
 2/4=180224,9=110,15=1/2;
 3/4=180224,5=43,7=101,11=2,25=1,30=1,70=2105,71=1,72=1,74=-5,124=41/1,2,3;
 4/4=180224,5=5,16=3,69=1/1;
 5/4=180224,5=2,8=3,13=1,38=5,53=1,85=400/2,8;
 7/4=180224,30=1/1,2,3,16;
 1/4=180224,18=20,19=15,26=3/3(-5);
 2/4=180224,9=110,15=1/2;
 6/4=180224,7=2,8=2,9=2,10=2,19=2,28=1/1;
 99/4=180224,9=1/99;
 -------------------------------------------------------------------
 obabel g_dimer_0.pdb -O g_dimer.pdb --confab --conf10000 --original
 -------------------------------------------------------------------
 Symbolic Z-matrix:
 Charge =  0 Multiplicity = 1
 C                    -4.626    -5.477    -0.672 
 C                    -5.292    -4.7       0.3 
 C                    -4.876    -3.402     0.598 
 C                    -3.773    -2.842    -0.095 
 C                    -3.115    -3.608    -1.053 
 C                    -3.527    -4.913    -1.338 
 H                    -6.139    -5.124     0.835 
 H                    -2.266    -3.165    -1.578 
 H                    -2.996    -5.496    -2.093 
 C                    -5.036    -6.848    -1.006 
 H                    -6.102    -7.06     -0.89 
 C                    -4.25     -7.85     -1.433 
 H                    -3.173    -7.706    -1.569 
 C                    -4.739    -9.227    -1.757 
 H                    -5.844    -9.246    -1.635 
 H                    -4.558    -9.42     -2.836 
 O                    -3.302    -1.589     0.204 
 O                    -4.109    -10.189   -0.942 
 H                    -4.448    -11.06    -1.189 
 O                    -5.459    -2.611     1.536 
 C                    -6.841    -2.768     1.811 
 H                    -7.099    -1.994     2.544 
 H                    -7.448    -2.627     0.903 
 H                    -7.053    -3.762     2.24 
 C                    -1.697    -0.956     3.414 
 C                    -2.598    -1.354     4.483 
 C                    -2.154    -1.481     5.764 
 C                    -0.732    -1.201     6.131 
 C                     0.144    -0.784     5.029 
 C                    -0.309    -0.67      3.76 
 H                    -3.636    -1.558     4.226 
 H                     1.182    -0.574     5.294 
 H                     0.363    -0.36      2.955 
 C                    -2.08     -0.846     2.111 
 H                    -1.326    -0.553     1.377 
 C                    -3.454    -1.125     1.574 
 H                    -3.939    -1.919     2.165 
 C                    -4.327     0.124     1.573 
 H                    -5.337    -0.143     1.21 
 H                    -4.433     0.493     2.604 
 O                    -0.334    -1.312     7.287 
 O                    -3.747     1.155     0.802 
 H                    -3.45      0.753    -0.028 
 O                    -2.896    -1.855     6.819 
 C                    -2.267    -1.934     8.086 
 H                    -3.041    -2.225     8.805 
 H                    -1.466    -2.69      8.082 
 H                    -1.836    -0.963     8.382 
 

 GradGradGradGradGradGradGradGradGradGradGradGradGradGradGradGradGradGrad
 Berny optimization.
 Initialization pass.
                           ----------------------------
                           !    Initial Parameters    !
                           ! (Angstroms and Degrees)  !
 --------------------------                            --------------------------
 ! Name  Definition              Value          Derivative Info.                !
 --------------------------------------------------------------------------------
 ! R1    R(1,2)                  1.4114         estimate D2E/DX2                !
 ! R2    R(1,6)                  1.4034         estimate D2E/DX2                !
 ! R3    R(1,10)                 1.4695         estimate D2E/DX2                !
 ! R4    R(2,3)                  1.3952         estimate D2E/DX2                !
 ! R5    R(2,7)                  1.0878         estimate D2E/DX2                !
 ! R6    R(3,4)                  1.4179         estimate D2E/DX2                !
 ! R7    R(3,20)                 1.3585         estimate D2E/DX2                !
 ! R8    R(4,5)                  1.3919         estimate D2E/DX2                !
 ! R9    R(4,17)                 1.3716         estimate D2E/DX2                !
 ! R10   R(5,6)                  1.3979         estimate D2E/DX2                !
 ! R11   R(5,8)                  1.0921         estimate D2E/DX2                !
 ! R12   R(6,9)                  1.0917         estimate D2E/DX2                !
 ! R13   R(10,11)                1.093          estimate D2E/DX2                !
 ! R14   R(10,12)                1.3432         estimate D2E/DX2                !
 ! R15   R(12,13)                1.0951         estimate D2E/DX2                !
 ! R16   R(12,14)                1.4967         estimate D2E/DX2                !
 ! R17   R(14,15)                1.1119         estimate D2E/DX2                !
 ! R18   R(14,16)                1.111          estimate D2E/DX2                !
 ! R19   R(14,18)                1.4095         estimate D2E/DX2                !
 ! R20   R(17,36)                1.4544         estimate D2E/DX2                !
 ! R21   R(18,19)                0.9667         estimate D2E/DX2                !
 ! R22   R(20,21)                1.4178         estimate D2E/DX2                !
 ! R23   R(21,22)                1.0968         estimate D2E/DX2                !
 ! R24   R(21,23)                1.1013         estimate D2E/DX2                !
 ! R25   R(21,24)                1.1032         estimate D2E/DX2                !
 ! R26   R(25,26)                1.4536         estimate D2E/DX2                !
 ! R27   R(25,30)                1.4588         estimate D2E/DX2                !
 ! R28   R(25,34)                1.3626         estimate D2E/DX2                !
 ! R29   R(26,27)                1.3617         estimate D2E/DX2                !
 ! R30   R(26,31)                1.0886         estimate D2E/DX2                !
 ! R31   R(27,28)                1.495          estimate D2E/DX2                !
 ! R32   R(27,44)                1.3429         estimate D2E/DX2                !
 ! R33   R(28,29)                1.4682         estimate D2E/DX2                !
 ! R34   R(28,41)                1.2276         estimate D2E/DX2                !
 ! R35   R(29,30)                1.3522         estimate D2E/DX2                !
 ! R36   R(29,32)                1.0917         estimate D2E/DX2                !
 ! R37   R(30,33)                1.0935         estimate D2E/DX2                !
 ! R38   R(34,35)                1.0923         estimate D2E/DX2                !
 ! R39   R(34,36)                1.5014         estimate D2E/DX2                !
 ! R40   R(36,37)                1.1022         estimate D2E/DX2                !
 ! R41   R(36,38)                1.5239         estimate D2E/DX2                !
 ! R42   R(38,39)                1.106          estimate D2E/DX2                !
 ! R43   R(38,40)                1.1002         estimate D2E/DX2                !
 ! R44   R(38,42)                1.412          estimate D2E/DX2                !
 ! R45   R(42,43)                0.9689         estimate D2E/DX2                !
 ! R46   R(44,45)                1.4167         estimate D2E/DX2                !
 ! R47   R(45,46)                1.0958         estimate D2E/DX2                !
 ! R48   R(45,47)                1.1014         estimate D2E/DX2                !
 ! R49   R(45,48)                1.1028         estimate D2E/DX2                !
 ! A1    A(2,1,6)              118.3663         estimate D2E/DX2                !
 ! A2    A(2,1,10)             122.5818         estimate D2E/DX2                !
 ! A3    A(6,1,10)             119.0515         estimate D2E/DX2                !
 ! A4    A(1,2,3)              121.235          estimate D2E/DX2                !
 ! A5    A(1,2,7)              119.4404         estimate D2E/DX2                !
 ! A6    A(3,2,7)              119.3213         estimate D2E/DX2                !
 ! A7    A(2,3,4)              119.6682         estimate D2E/DX2                !
 ! A8    A(2,3,20)             124.1402         estimate D2E/DX2                !
 ! A9    A(4,3,20)             116.1903         estimate D2E/DX2                !
 ! A10   A(3,4,5)              119.1286         estimate D2E/DX2                !
 ! A11   A(3,4,17)             121.4254         estimate D2E/DX2                !
 ! A12   A(5,4,17)             119.3693         estimate D2E/DX2                !
 ! A13   A(4,5,6)              120.9809         estimate D2E/DX2                !
 ! A14   A(4,5,8)              118.3676         estimate D2E/DX2                !
 ! A15   A(6,5,8)              120.6515         estimate D2E/DX2                !
 ! A16   A(1,6,5)              120.6138         estimate D2E/DX2                !
 ! A17   A(1,6,9)              119.6351         estimate D2E/DX2                !
 ! A18   A(5,6,9)              119.7479         estimate D2E/DX2                !
 ! A19   A(1,10,11)            115.4007         estimate D2E/DX2                !
 ! A20   A(1,10,12)            127.2284         estimate D2E/DX2                !
 ! A21   A(11,10,12)           117.3709         estimate D2E/DX2                !
 ! A22   A(10,12,13)           121.1253         estimate D2E/DX2                !
 ! A23   A(10,12,14)           124.3291         estimate D2E/DX2                !
 ! A24   A(13,12,14)           114.5456         estimate D2E/DX2                !
 ! A25   A(12,14,15)           108.461          estimate D2E/DX2                !
 ! A26   A(12,14,16)           108.4718         estimate D2E/DX2                !
 ! A27   A(12,14,18)           110.8992         estimate D2E/DX2                !
 ! A28   A(15,14,16)           105.3974         estimate D2E/DX2                !
 ! A29   A(15,14,18)           111.6605         estimate D2E/DX2                !
 ! A30   A(16,14,18)           111.7282         estimate D2E/DX2                !
 ! A31   A(4,17,36)            117.4454         estimate D2E/DX2                !
 ! A32   A(14,18,19)           108.0871         estimate D2E/DX2                !
 ! A33   A(3,20,21)            119.1942         estimate D2E/DX2                !
 ! A34   A(20,21,22)           106.3064         estimate D2E/DX2                !
 ! A35   A(20,21,23)           111.2944         estimate D2E/DX2                !
 ! A36   A(20,21,24)           111.2548         estimate D2E/DX2                !
 ! A37   A(22,21,23)           109.3307         estimate D2E/DX2                !
 ! A38   A(22,21,24)           109.3148         estimate D2E/DX2                !
 ! A39   A(23,21,24)           109.2729         estimate D2E/DX2                !
 ! A40   A(26,25,30)           117.9703         estimate D2E/DX2                !
 ! A41   A(26,25,34)           123.4451         estimate D2E/DX2                !
 ! A42   A(30,25,34)           118.5832         estimate D2E/DX2                !
 ! A43   A(25,26,27)           121.0148         estimate D2E/DX2                !
 ! A44   A(25,26,31)           117.9504         estimate D2E/DX2                !
 ! A45   A(27,26,31)           121.0314         estimate D2E/DX2                !
 ! A46   A(26,27,28)           121.5736         estimate D2E/DX2                !
 ! A47   A(26,27,44)           125.7927         estimate D2E/DX2                !
 ! A48   A(28,27,44)           112.6337         estimate D2E/DX2                !
 ! A49   A(27,28,29)           115.8765         estimate D2E/DX2                !
 ! A50   A(27,28,41)           121.5057         estimate D2E/DX2                !
 ! A51   A(29,28,41)           122.6173         estimate D2E/DX2                !
 ! A52   A(28,29,30)           121.8997         estimate D2E/DX2                !
 ! A53   A(28,29,32)           116.0873         estimate D2E/DX2                !
 ! A54   A(30,29,32)           122.0129         estimate D2E/DX2                !
 ! A55   A(25,30,29)           121.6546         estimate D2E/DX2                !
 ! A56   A(25,30,33)           117.7555         estimate D2E/DX2                !
 ! A57   A(29,30,33)           120.5897         estimate D2E/DX2                !
 ! A58   A(25,34,35)           118.0488         estimate D2E/DX2                !
 ! A59   A(25,34,36)           125.752          estimate D2E/DX2                !
 ! A60   A(35,34,36)           116.1822         estimate D2E/DX2                !
 ! A61   A(17,36,34)           107.4912         estimate D2E/DX2                !
 ! A62   A(17,36,37)           108.7376         estimate D2E/DX2                !
 ! A63   A(17,36,38)           108.7078         estimate D2E/DX2                !
 ! A64   A(34,36,37)           110.1678         estimate D2E/DX2                !
 ! A65   A(34,36,38)           111.8521         estimate D2E/DX2                !
 ! A66   A(37,36,38)           109.7974         estimate D2E/DX2                !
 ! A67   A(36,38,39)           108.9971         estimate D2E/DX2                !
 ! A68   A(36,38,40)           109.2379         estimate D2E/DX2                !
 ! A69   A(36,38,42)           111.3154         estimate D2E/DX2                !
 ! A70   A(39,38,40)           107.4918         estimate D2E/DX2                !
 ! A71   A(39,38,42)           111.8498         estimate D2E/DX2                !
 ! A72   A(40,38,42)           107.841          estimate D2E/DX2                !
 ! A73   A(38,42,43)           106.9012         estimate D2E/DX2                !
 ! A74   A(27,44,45)           118.2151         estimate D2E/DX2                !
 ! A75   A(44,45,46)           106.7389         estimate D2E/DX2                !
 ! A76   A(44,45,47)           110.9713         estimate D2E/DX2                !
 ! A77   A(44,45,48)           111.3737         estimate D2E/DX2                !
 ! A78   A(46,45,47)           109.4988         estimate D2E/DX2                !
 ! A79   A(46,45,48)           109.4972         estimate D2E/DX2                !
 ! A80   A(47,45,48)           108.7292         estimate D2E/DX2                !
 ! D1    D(6,1,2,3)              0.0301         estimate D2E/DX2                !
 ! D2    D(6,1,2,7)           -179.305          estimate D2E/DX2                !
 ! D3    D(10,1,2,3)           179.7958         estimate D2E/DX2                !
 ! D4    D(10,1,2,7)             0.4608         estimate D2E/DX2                !
 ! D5    D(2,1,6,5)             -0.7026         estimate D2E/DX2                !
 ! D6    D(2,1,6,9)            179.9391         estimate D2E/DX2                !
 ! D7    D(10,1,6,5)           179.5232         estimate D2E/DX2                !
 ! D8    D(10,1,6,9)             0.1649         estimate D2E/DX2                !
 ! D9    D(2,1,10,11)           30.2544         estimate D2E/DX2                !
 ! D10   D(2,1,10,12)         -149.8147         estimate D2E/DX2                !
 ! D11   D(6,1,10,11)         -149.9814         estimate D2E/DX2                !
 ! D12   D(6,1,10,12)           29.9495         estimate D2E/DX2                !
 ! D13   D(1,2,3,4)              0.6751         estimate D2E/DX2                !
 ! D14   D(1,2,3,20)          -178.8899         estimate D2E/DX2                !
 ! D15   D(7,2,3,4)           -179.989          estimate D2E/DX2                !
 ! D16   D(7,2,3,20)             0.4459         estimate D2E/DX2                !
 ! D17   D(2,3,4,5)             -0.7102         estimate D2E/DX2                !
 ! D18   D(2,3,4,17)          -177.5041         estimate D2E/DX2                !
 ! D19   D(20,3,4,5)           178.8886         estimate D2E/DX2                !
 ! D20   D(20,3,4,17)            2.0948         estimate D2E/DX2                !
 ! D21   D(2,3,20,21)          -29.9628         estimate D2E/DX2                !
 ! D22   D(4,3,20,21)          150.4584         estimate D2E/DX2                !
 ! D23   D(3,4,5,6)              0.046          estimate D2E/DX2                !
 ! D24   D(3,4,5,8)           -179.8953         estimate D2E/DX2                !
 ! D25   D(17,4,5,6)           176.9067         estimate D2E/DX2                !
 ! D26   D(17,4,5,8)            -3.0346         estimate D2E/DX2                !
 ! D27   D(3,4,17,36)           29.9744         estimate D2E/DX2                !
 ! D28   D(5,4,17,36)         -146.8118         estimate D2E/DX2                !
 ! D29   D(4,5,6,1)              0.6708         estimate D2E/DX2                !
 ! D30   D(4,5,6,9)           -179.9716         estimate D2E/DX2                !
 ! D31   D(8,5,6,1)           -179.3892         estimate D2E/DX2                !
 ! D32   D(8,5,6,9)             -0.0316         estimate D2E/DX2                !
 ! D33   D(1,10,12,13)           0.1796         estimate D2E/DX2                !
 ! D34   D(1,10,12,14)        -179.9322         estimate D2E/DX2                !
 ! D35   D(11,10,12,13)       -179.8907         estimate D2E/DX2                !
 ! D36   D(11,10,12,14)         -0.0025         estimate D2E/DX2                !
 ! D37   D(10,12,14,15)          2.958          estimate D2E/DX2                !
 ! D38   D(10,12,14,16)        116.9518         estimate D2E/DX2                !
 ! D39   D(10,12,14,18)       -119.9991         estimate D2E/DX2                !
 ! D40   D(13,12,14,15)       -177.1472         estimate D2E/DX2                !
 ! D41   D(13,12,14,16)        -63.1533         estimate D2E/DX2                !
 ! D42   D(13,12,14,18)         59.8957         estimate D2E/DX2                !
 ! D43   D(12,14,18,19)       -179.5667         estimate D2E/DX2                !
 ! D44   D(15,14,18,19)         59.3447         estimate D2E/DX2                !
 ! D45   D(16,14,18,19)        -58.4177         estimate D2E/DX2                !
 ! D46   D(4,17,36,34)         120.0208         estimate D2E/DX2                !
 ! D47   D(4,17,36,37)           0.7715         estimate D2E/DX2                !
 ! D48   D(4,17,36,38)        -118.7315         estimate D2E/DX2                !
 ! D49   D(3,20,21,22)        -176.5992         estimate D2E/DX2                !
 ! D50   D(3,20,21,23)         -57.6397         estimate D2E/DX2                !
 ! D51   D(3,20,21,24)          64.4822         estimate D2E/DX2                !
 ! D52   D(30,25,26,27)         -1.2416         estimate D2E/DX2                !
 ! D53   D(30,25,26,31)        179.4191         estimate D2E/DX2                !
 ! D54   D(34,25,26,27)        178.309          estimate D2E/DX2                !
 ! D55   D(34,25,26,31)         -1.0302         estimate D2E/DX2                !
 ! D56   D(26,25,30,29)          0.8385         estimate D2E/DX2                !
 ! D57   D(26,25,30,33)       -179.3249         estimate D2E/DX2                !
 ! D58   D(34,25,30,29)       -178.7346         estimate D2E/DX2                !
 ! D59   D(34,25,30,33)          1.1021         estimate D2E/DX2                !
 ! D60   D(26,25,34,35)       -179.1712         estimate D2E/DX2                !
 ! D61   D(26,25,34,36)         -0.7363         estimate D2E/DX2                !
 ! D62   D(30,25,34,35)          0.3769         estimate D2E/DX2                !
 ! D63   D(30,25,34,36)        178.8118         estimate D2E/DX2                !
 ! D64   D(25,26,27,28)          0.8216         estimate D2E/DX2                !
 ! D65   D(25,26,27,44)       -179.2415         estimate D2E/DX2                !
 ! D66   D(31,26,27,28)       -179.8596         estimate D2E/DX2                !
 ! D67   D(31,26,27,44)          0.0774         estimate D2E/DX2                !
 ! D68   D(26,27,28,29)          0.0151         estimate D2E/DX2                !
 ! D69   D(26,27,28,41)        179.7769         estimate D2E/DX2                !
 ! D70   D(44,27,28,29)       -179.9295         estimate D2E/DX2                !
 ! D71   D(44,27,28,41)         -0.1676         estimate D2E/DX2                !
 ! D72   D(26,27,44,45)       -179.9808         estimate D2E/DX2                !
 ! D73   D(28,27,44,45)         -0.0391         estimate D2E/DX2                !
 ! D74   D(27,28,29,30)         -0.4252         estimate D2E/DX2                !
 ! D75   D(27,28,29,32)        179.7162         estimate D2E/DX2                !
 ! D76   D(41,28,29,30)        179.8158         estimate D2E/DX2                !
 ! D77   D(41,28,29,32)         -0.0428         estimate D2E/DX2                !
 ! D78   D(28,29,30,25)         -0.0136         estimate D2E/DX2                !
 ! D79   D(28,29,30,33)       -179.8456         estimate D2E/DX2                !
 ! D80   D(32,29,30,25)        179.8367         estimate D2E/DX2                !
 ! D81   D(32,29,30,33)          0.0046         estimate D2E/DX2                !
 ! D82   D(25,34,36,17)       -149.9573         estimate D2E/DX2                !
 ! D83   D(25,34,36,37)        -31.6272         estimate D2E/DX2                !
 ! D84   D(25,34,36,38)         90.7875         estimate D2E/DX2                !
 ! D85   D(35,34,36,17)         28.5035         estimate D2E/DX2                !
 ! D86   D(35,34,36,37)        146.8336         estimate D2E/DX2                !
 ! D87   D(35,34,36,38)        -90.7517         estimate D2E/DX2                !
 ! D88   D(17,36,38,39)         63.8175         estimate D2E/DX2                !
 ! D89   D(17,36,38,40)       -178.9999         estimate D2E/DX2                !
 ! D90   D(17,36,38,42)        -60.0206         estimate D2E/DX2                !
 ! D91   D(34,36,38,39)       -177.6478         estimate D2E/DX2                !
 ! D92   D(34,36,38,40)        -60.4652         estimate D2E/DX2                !
 ! D93   D(34,36,38,42)         58.5141         estimate D2E/DX2                !
 ! D94   D(37,36,38,39)        -55.0218         estimate D2E/DX2                !
 ! D95   D(37,36,38,40)         62.1608         estimate D2E/DX2                !
 ! D96   D(37,36,38,42)       -178.8599         estimate D2E/DX2                !
 ! D97   D(36,38,42,43)         45.855          estimate D2E/DX2                !
 ! D98   D(39,38,42,43)        -76.3485         estimate D2E/DX2                !
 ! D99   D(40,38,42,43)        165.6659         estimate D2E/DX2                !
 ! D100  D(27,44,45,46)        178.4735         estimate D2E/DX2                !
 ! D101  D(27,44,45,47)        -62.2807         estimate D2E/DX2                !
 ! D102  D(27,44,45,48)         59.003          estimate D2E/DX2                !
 --------------------------------------------------------------------------------
 Trust Radius=3.00D-01 FncErr=1.00D-07 GrdErr=1.00D-06 EigMax=2.50D+02 EigMin=1.00D-04
 Number of steps in this run=    241 maximum allowed number of steps=    288.
 GradGradGradGradGradGradGradGradGradGradGradGradGradGradGradGradGradGrad

                          Input orientation:                          
 ---------------------------------------------------------------------
 Center     Atomic      Atomic             Coordinates (Angstroms)
 Number     Number       Type             X           Y           Z
 ---------------------------------------------------------------------
      1          6           0       -4.626000   -5.477000   -0.672000
      2          6           0       -5.292000   -4.700000    0.300000
      3          6           0       -4.876000   -3.402000    0.598000
      4          6           0       -3.773000   -2.842000   -0.095000
      5          6           0       -3.115000   -3.608000   -1.053000
      6          6           0       -3.527000   -4.913000   -1.338000
      7          1           0       -6.139000   -5.124000    0.835000
      8          1           0       -2.266000   -3.165000   -1.578000
      9          1           0       -2.996000   -5.496000   -2.093000
     10          6           0       -5.036000   -6.848000   -1.006000
     11          1           0       -6.102000   -7.060000   -0.890000
     12          6           0       -4.250000   -7.850000   -1.433000
     13          1           0       -3.173000   -7.706000   -1.569000
     14          6           0       -4.739000   -9.227000   -1.757000
     15          1           0       -5.844000   -9.246000   -1.635000
     16          1           0       -4.558000   -9.420000   -2.836000
     17          8           0       -3.302000   -1.589000    0.204000
     18          8           0       -4.109000  -10.189000   -0.942000
     19          1           0       -4.448000  -11.060000   -1.189000
     20          8           0       -5.459000   -2.611000    1.536000
     21          6           0       -6.841000   -2.768000    1.811000
     22          1           0       -7.099000   -1.994000    2.544000
     23          1           0       -7.448000   -2.627000    0.903000
     24          1           0       -7.053000   -3.762000    2.240000
     25          6           0       -1.697000   -0.956000    3.414000
     26          6           0       -2.598000   -1.354000    4.483000
     27          6           0       -2.154000   -1.481000    5.764000
     28          6           0       -0.732000   -1.201000    6.131000
     29          6           0        0.144000   -0.784000    5.029000
     30          6           0       -0.309000   -0.670000    3.760000
     31          1           0       -3.636000   -1.558000    4.226000
     32          1           0        1.182000   -0.574000    5.294000
     33          1           0        0.363000   -0.360000    2.955000
     34          6           0       -2.080000   -0.846000    2.111000
     35          1           0       -1.326000   -0.553000    1.377000
     36          6           0       -3.454000   -1.125000    1.574000
     37          1           0       -3.939000   -1.919000    2.165000
     38          6           0       -4.327000    0.124000    1.573000
     39          1           0       -5.337000   -0.143000    1.210000
     40          1           0       -4.433000    0.493000    2.604000
     41          8           0       -0.334000   -1.312000    7.287000
     42          8           0       -3.747000    1.155000    0.802000
     43          1           0       -3.450000    0.753000   -0.028000
     44          8           0       -2.896000   -1.855000    6.819000
     45          6           0       -2.267000   -1.934000    8.086000
     46          1           0       -3.041000   -2.225000    8.805000
     47          1           0       -1.466000   -2.690000    8.082000
     48          1           0       -1.836000   -0.963000    8.382000
 ---------------------------------------------------------------------
                    Distance matrix (angstroms):
                    1          2          3          4          5
     1  C    0.000000
     2  C    1.411407   0.000000
     3  C    2.445613   1.395229   0.000000
     4  C    2.829092   2.432190   1.417906   0.000000
     5  C    2.433402   2.786109   2.422676   1.391935   0.000000
     6  C    1.403372   2.417362   2.801967   2.427881   1.397853
     7  H    2.164446   1.087846   2.148633   3.416194   3.873935
     8  H    3.425752   3.878116   3.406354   2.138847   1.092097
     9  H    2.162522   3.410525   3.893677   3.411664   2.158774
    10  C    1.469455   2.526871   3.804383   4.298037   3.766968
    11  H    2.175314   2.764381   4.134995   4.883420   4.567827
    12  C    2.520243   3.743201   4.929659   5.205558   4.407629
    13  H    2.807892   4.125452   5.110823   5.117731   4.130766
    14  C    3.905444   5.003078   6.284538   6.668105   5.891193
    15  H    4.076304   4.971423   6.330533   6.904481   6.290724
    16  H    4.498307   5.714162   6.936123   7.169337   6.248254
    17  O    4.199630   3.694271   2.433039   1.371587   2.385661
    18  O    4.747961   5.750754   7.001661   7.403291   6.656570
    19  H    5.609711   6.586278   7.875374   8.317932   7.571505
    20  O    3.712561   2.433003   1.358460   2.357142   3.631978
    21  C    4.290710   2.900887   2.394692   3.612608   4.774010
    22  H    5.346931   3.952622   3.272783   4.329631   5.604968
    23  H    4.308922   3.051110   2.703486   3.814165   4.854193
    24  H    4.160685   2.782906   2.750471   4.130015   5.135699
    25  C    6.761204   6.052979   4.900899   4.492199   5.384971
    26  C    6.905501   5.995902   4.947405   4.955084   5.999592
    27  C    7.968745   7.075613   6.147120   6.229074   7.205494
    28  C    8.929066   8.187622   7.254738   7.120649   7.942430
    29  C    8.790822   8.200524   7.189443   6.770054   7.455654
    30  C    7.834945   7.283048   6.190279   5.619422   6.298448
    31  H    6.350517   5.294145   4.254447   4.509819   5.686984
    32  H    9.662579   9.158416   8.170028   7.664018   8.243408
    33  H    8.014296   7.606816   6.500487   5.706954   6.221740
    34  C    5.972718   5.333852   4.079206   3.422967   4.325594
    35  H    6.271697   5.838381   4.618024   3.659797   4.294001
    36  C    5.035673   4.216864   2.856464   2.415660   3.630611
    37  H    4.602163   3.611481   2.352179   2.446852   3.726556
    38  C    6.041575   5.081607   3.699284   3.447651   4.721509
    39  H    5.700790   4.647190   3.347857   3.381379   4.697305
    40  H    6.812512   5.745742   4.403557   4.340786   5.650573
    41  O    9.955610   9.212952   8.351083   8.286226   9.086318
    42  O    6.850456   6.076187   4.699203   4.096498   5.150400
    43  H    6.372646   5.765046   4.437271   3.610103   4.492346
    44  O    8.498639   7.505478   6.709281   7.038941   8.067797
    45  C    9.737571   8.799044   8.064245   8.367871   9.329668
    46  H   10.144026   9.139346   8.491608   8.951341   9.954814
    47  H    9.715219   8.901567   8.255017   8.497569   9.327923
    48  H   10.494532   9.551326   8.705227   8.896187   9.881857
                    6          7          8          9         10
     6  C    0.000000
     7  H    3.404261   0.000000
     8  H    2.168692   4.965922   0.000000
     9  H    1.091730   4.311614   2.496335   0.000000
    10  C    2.476193   2.752829   4.643767   2.677886   0.000000
    11  H    3.382446   2.593278   5.509924   3.679747   1.093049
    12  C    3.026173   4.017863   5.089843   2.747623   1.343179
    13  H    2.824805   4.609023   4.630703   2.278158   2.126947
    14  C    4.500567   5.051047   6.549474   4.131744   2.512340
    15  H    4.922559   4.814438   7.055770   4.731106   2.607472
    16  H    4.860043   5.867829   6.779443   4.288318   3.192580
    17  O    3.671153   4.576347   2.594725   4.542521   5.668151
    18  O    5.322755   5.738715   7.289562   4.958611   3.467810
    19  H    6.217399   6.495549   8.200212   5.820963   4.256780
    20  O    4.158329   2.696103   4.494348   5.249689   4.959119
    21  C    5.049735   2.645017   5.707325   6.121048   5.276354
    22  H    6.029069   3.693126   6.459103   7.113395   6.357656
    23  H    5.061830   2.820127   5.770436   6.085021   5.222917
    24  H    5.153597   2.159737   6.152146   6.183922   4.912047
    25  C    6.448895   6.614743   5.488488   7.254381   8.087088
    26  C    6.885751   6.329256   6.334482   7.781924   8.139840
    27  C    8.006382   7.310726   7.533483   8.863500   9.107333
    28  C    8.796416   8.524857   8.101798   9.550230  10.067263
    29  C    8.429921   8.712137   7.424938   9.098650  10.001286
    30  C    7.372122   7.898268   6.208794   8.047848   9.122882
    31  H    6.498154   5.520892   6.176226   7.473099   7.570860
    32  H    9.218732   9.704753   8.113345   9.810685  10.849728
    33  H    7.368294   8.334633   5.943716   7.946300   9.323780
    34  C    5.525387   6.033651   4.361316   6.335233   7.380896
    35  H    5.587954   6.659788   4.054401   6.266023   7.685689
    36  C    4.778495   4.873125   3.938026   5.723836   6.473936
    37  H    4.626531   4.108640   4.285031   5.640456   5.962692
    38  C    5.872418   5.600847   4.999404   6.840725   7.467443
    39  H    5.702745   5.059070   5.131907   6.711535   7.068117
    40  H    6.751669   6.131108   5.963722   7.745637   8.202804
    41  O    9.876896   9.479329   9.260370  10.610207  11.024062
    42  O    6.438061   6.719270   5.149773   7.292519   8.305323
    43  H    5.815977   6.520324   4.376652   6.596995   7.826051
    44  O    8.734196   7.550607   8.521890   9.627597   9.525769
    45  C    9.963625   8.817340   9.742087  10.808854  10.699496
    46  H   10.504380   9.028992  10.454229  11.378395  11.027596
    47  H    9.895749   8.959927   9.704701  10.665138  10.612521
    48  H   10.627341   9.632598  10.209569  11.472546  11.532899
                   11         12         13         14         15
    11  H    0.000000
    12  C    2.085390   0.000000
    13  H    3.075288   1.095062   0.000000
    14  C    2.702841   1.496738   2.191151   0.000000
    15  H    2.323830   2.128487   3.083861   1.111877   0.000000
    16  H    3.426434   2.127950   2.541911   1.110968   1.768184
    17  O    6.242490   6.540535   6.370075   8.015581   8.274862
    18  O    3.710174   2.394135   2.726631   1.409457   2.092779
    19  H    4.338792   3.225343   3.608232   1.940926   2.332022
    20  O    5.108084   6.141967   6.389511   7.425207   7.363877
    21  C    5.124723   6.562282   7.018723   7.672530   7.404958
    22  H    6.200865   7.630601   8.059602   8.739822   8.463485
    23  H    4.967701   6.554680   7.083971   7.614084   7.268110
    24  H    4.645224   6.169237   6.716995   7.155196   6.822871
    25  C    8.671059   8.805592   8.518883  10.217752  10.555288
    26  C    8.585195   8.940144   8.792339  10.271592  10.500005
    27  C    9.538745   9.836371   9.672739  11.101720  11.342686
    28  C   10.604679  10.667691  10.371283  11.945429  12.294931
    29  C   10.650599  10.535323  10.121767  11.881824  12.323574
    30  C    9.798645   9.697996   9.279334  11.103353  11.545130
    31  H    7.907377   8.484724   8.461341   9.789099   9.916246
    32  H   11.548450  11.300413  10.813520  12.635238  13.136944
    33  H   10.073244   9.830280   9.323818  11.263083  11.770979
    34  C    7.987257   8.144007   7.861084   9.605877   9.937817
    35  H    8.383944   8.348179   7.953347   9.834063  10.249523
    36  C    6.950354   7.409540   7.298423   8.853767   9.053200
    37  H    6.359361   6.943996   6.929566   8.332403   8.470771
    38  C    7.799157   8.522127   8.515444   9.934780  10.019454
    39  H    7.269121   8.219785   8.342943   9.574954   9.550690
    40  H    8.487721   9.270195   9.285749  10.657878  10.714857
    41  O   11.540046  11.580971  11.285916  12.800203  13.149545
    42  O    8.711780   9.291838   9.190671  10.738644  10.886560
    43  H    8.295729   8.753607   8.602679  10.210356  10.406425
    44  O    9.838655  10.289259  10.230810  11.458220  11.609811
    45  C   11.025048  11.381683  11.285205  12.497331  12.679042
    46  H   11.257885  11.743890  11.733655  12.785423  12.889719
    47  H   11.003917  11.176380  11.009810  12.257684  12.512718
    48  H   11.888740  12.230797  12.094545  13.398523  13.601928
                   16         17         18         19         20
    16  H    0.000000
    17  O    8.493745   0.000000
    18  O    2.092892   8.713470   0.000000
    19  H    2.326867   9.641245   0.966732   0.000000
    20  O    8.141785   2.733378   8.086351   8.934951   0.000000
    21  C    8.429460   4.061651   8.373415   9.136942   1.417815
    22  H    9.515595   4.478486   9.394164  10.156547   2.021473
    23  H    8.275087   4.330746   8.469757   9.191950   2.087359
    24  H    8.000235   4.789282   7.752328   8.473775   2.088361
    25  C   10.903537   3.644285  10.490032  11.438812   4.518689
    26  C   11.066604   4.342889  10.477164  11.393003   4.295367
    27  C   11.948512   5.678307  11.163410  12.056695   5.484151
    28  C   12.751366   6.471845  11.925418  12.829300   6.741413
    29  C   12.591566   5.983608  11.924549  12.858700   6.850736
    30  C   11.752605   4.737905  11.276532  12.230128   5.936005
    31  H   10.608156   4.035963  10.071053  10.966749   3.415880
    32  H   13.315263   6.858905  12.622623  13.552947   7.897773
    33  H   11.825207   4.744541  11.480184  12.442205   6.401269
    34  C   10.204252   2.383691  10.036399  10.991962   3.855320
    35  H   10.335322   2.520675  10.294433  11.257366   4.619776
    36  C    9.459067   1.454407   9.429495  10.359847   2.495930
    37  H    9.036491   2.088107   8.836020   9.750194   1.784630
    38  C   10.515730   2.420569  10.617472  11.520640   2.960240
    39  H   10.150847   2.691501  10.347038  11.212779   2.492425
    40  H   11.308262   3.372519  11.259850  12.159724   3.439203
    41  O   13.640270   7.684702  12.679440  13.556957   7.811980
    42  O   11.212644   2.843442  11.482984  12.396036   4.201483
    43  H   10.611430   2.358112  10.999865  11.911796   4.218847
    44  O   12.377823   6.632784  11.452513  12.299138   5.920354
    45  C   13.437967   7.957146  12.371046  13.193417   7.317766
    46  H   13.768885   8.628431  12.632099  13.413311   7.670338
    47  H   13.193032   8.163699  12.027179  12.841365   7.668142
    48  H   14.309915   8.331910  13.312497  14.155423   7.918949
                   21         22         23         24         25
    21  C    0.000000
    22  H    1.096781   0.000000
    23  H    1.101269   1.793146   0.000000
    24  H    1.103187   1.794535   1.797726   0.000000
    25  C    5.684513   5.569196   6.493948   6.159436   0.000000
    26  C    5.209801   4.942502   6.161122   5.538640   1.453604
    27  C    6.265026   5.923225   7.277986   6.451491   2.450913
    28  C    7.644460   7.350790   8.629607   7.851983   2.893672
    29  C    7.942418   7.752443   8.835100   8.273078   2.455013
    30  C    7.132127   7.023940   7.934584   7.573137   1.458786
    31  H    4.191462   3.874479   5.168794   4.525229   2.186657
    32  H    9.017397   8.840467   9.898110   9.343740   3.459619
    33  H    7.681459   7.649858   8.388189   8.190353   2.193057
    34  C    5.143073   5.166793   5.783308   5.766318   1.362570
    35  H    5.959010   6.063489   6.481129   6.621252   2.109365
    36  C    3.771921   3.870670   4.319523   4.511111   2.549747
    37  H    3.044293   3.183530   3.795654   3.619291   2.741156
    38  C    3.839336   3.621153   4.213970   4.793429   3.387120
    39  H    3.084452   2.882777   3.274267   4.135543   4.332226
    40  H    4.130549   3.646413   4.660260   5.010182   3.200218
    41  O    8.628300   8.290139   9.648506   8.753266   4.121242
    42  O    5.097141   4.917994   5.292554   6.097079   3.934637
    43  H    5.222858   5.241793   5.317440   6.205696   4.223867
    44  O    6.440237   5.996679   7.504382   6.471827   3.720192
    45  C    7.809780   7.352931   8.883608   7.773229   4.807179
    46  H    7.978150   7.464640   9.056758   7.845874   5.699086
    47  H    8.259670   7.929978   9.344856   8.154307   4.985012
    48  H    8.454945   7.927444   9.497309   8.530865   4.969949
                   26         27         28         29         30
    26  C    0.000000
    27  C    1.361700   0.000000
    28  C    2.494247   1.495049   0.000000
    29  C    2.853345   2.511342   1.468220   0.000000
    30  C    2.496018   2.842140   2.466279   1.352245   0.000000
    31  H    1.088627   2.137217   3.491374   3.941102   3.474857
    32  H    3.943922   3.488903   2.181076   1.091682   2.141367
    33  H    3.477117   3.934769   3.463132   2.128195   1.093485
    34  C    2.480478   3.708519   4.254824   3.669434   2.426235
    35  H    3.450626   4.559883   4.834590   3.943522   2.593582
    36  C    3.040963   4.401458   5.308607   4.999891   3.857026
    37  H    2.736902   4.041147   5.150682   5.114842   4.157033
    38  C    3.693511   4.986225   5.954411   5.723482   4.643030
    39  H    4.436347   5.714950   6.822143   6.710961   5.662245
    40  H    3.210806   4.367621   5.385793   5.334818   4.438049
    41  O    3.604147   2.379178   1.227624   2.367664   3.585041
    42  O    4.600548   5.840170   6.560427   6.063591   4.888786
    43  H    5.051185   6.341738   7.009916   6.391592   5.122475
    44  O    2.407634   1.342931   2.363040   3.686833   4.177831
    45  C    3.664365   2.368473   2.591436   4.059639   4.913831
    46  H    4.431092   3.253919   3.678360   5.145764   5.944230
    47  H    4.002389   2.703359   2.561694   3.942809   4.909046
    48  H    3.991958   2.687633   2.518424   3.898083   4.876522
                   31         32         33         34         35
    31  H    0.000000
    32  H    5.032097   0.000000
    33  H    4.363788   2.487464   0.000000
    34  C    2.720534   4.565755   2.629977   0.000000
    35  H    3.803015   4.651171   2.319494   1.092301   0.000000
    36  C    2.693273   5.969464   4.130602   1.501361   2.212324
    37  H    2.114202   6.150147   4.643467   2.147120   3.051994
    38  C    3.216367   6.684469   4.913276   2.505864   3.082652
    39  H    3.740572   7.704685   5.965075   3.451675   4.035357
    40  H    2.733623   6.316867   4.883895   2.751832   3.500442
    41  O    4.509262   2.610546   4.489804   5.482394   6.040550
    42  O    4.369950   6.889307   4.880854   2.914854   3.018134
    43  H    4.844774   7.179139   4.967497   3.001503   2.861999
    44  O    2.712832   4.538355   5.271300   4.883564   5.811667
    45  C    4.112802   4.641171   5.976750   6.076129   6.913995
    46  H    4.665421   5.734688   7.020537   6.901797   7.804614
    47  H    4.567172   4.388884   5.921171   6.279345   7.038707
    48  H    4.567971   4.335365   5.886556   6.276836   7.035497
                   36         37         38         39         40
    36  C    0.000000
    37  H    1.102244   0.000000
    38  C    1.523854   2.162142   0.000000
    39  H    2.154648   2.453692   1.105965   0.000000
    40  H    2.153431   2.500900   1.100163   1.779030   0.000000
    41  O    6.512122   6.292802   7.117299   7.957795   6.479993
    42  O    2.424919   3.368102   1.412021   2.092694   2.038638
    43  H    2.468462   3.491125   1.930795   2.428215   2.821580
    44  O    5.324875   4.769870   5.786598   6.352189   5.063763
    45  C    6.668553   6.152565   7.134293   7.740281   6.374497
    46  H    7.325840   6.707432   7.711901   8.203070   6.912133
    47  H    6.982509   6.459184   7.646633   8.288319   6.995932
    48  H    6.999502   6.632317   7.331380   8.022904   6.499971
                   41         42         43         44         45
    41  O    0.000000
    42  O    7.732392   0.000000
    43  H    8.214798   0.968872   0.000000
    44  O    2.660398   6.781489   7.347788   0.000000
    45  C    2.182149   8.049160   8.628815   1.416747   0.000000
    46  H    3.235080   8.716126   9.330469   2.025369   1.095773
    47  H    1.952520   8.543148   9.031202   2.082617   1.101432
    48  H    1.891251   8.099027   8.733714   2.088596   1.102823
                   46         47         48
    46  H    0.000000
    47  H    1.794319   0.000000
    48  H    1.795438   1.791488   0.000000
 Symmetry turned off by external request.
 Stoichiometry    C20H22O6
 Framework group  C1[X(C20H22O6)]
 Deg. of freedom   138
 Full point group                 C1      NOp   1
 Rotational constants (GHZ):           0.2666638           0.0838965           0.0741841
 Standard basis: def2SVP (5D, 7F)
   474 basis functions,   804 primitive gaussians,   500 cartesian basis functions
    95 alpha electrons       95 beta electrons
       nuclear repulsion energy      2222.5512029672 Hartrees.
 NAtoms=   48 NActive=   48 NUniq=   48 SFac= 1.00D+00 NAtFMM=   60 NAOKFM=F Big=F
 Integral buffers will be    131072 words long.
 Raffenetti 2 integral format.
 Two-electron integral symmetry is turned off.
 Nuclear repulsion after empirical dispersion term =     2222.4547896328 Hartrees.
 Using the following non-standard input for PCM:
 PDENS=7.0
 --- end of non-standard input.
 ------------------------------------------------------------------------------
 Polarizable Continuum Model (PCM)
 =================================
 Model                : C-PCM.
 Atomic radii         : UFF (Universal Force Field).
 Polarization charges : Total charges.
 Charge compensation  : None.
 Solution method      : On-the-fly selection.
 Cavity type          : Scaled VdW (van der Waals Surface) (Alpha=1.100).
 Cavity algorithm     : GePol (No added spheres)
                        Default sphere list used, NSphG=   48.
                        Lebedev-Laikov grids with approx.  7.0 points / Ang**2.
                        Smoothing algorithm: York/Karplus (Gamma=1.0000).
                        Polarization charges: spherical gaussians, with
                                              point-specific exponents (IZeta= 3).
                        Self-potential: point-specific (ISelfS= 7).
                        Self-field    : sphere-specific E.n sum rule (ISelfD= 2).
 1st derivatives      : Analytical E(r).r(x)/FMM algorithm (CHGder, D1EAlg=3).
                        Cavity 1st derivative terms included.
 Solvent              : Water, Eps=  78.355300 Eps(inf)=   1.777849
 ------------------------------------------------------------------------------
 One-electron integrals computed using PRISM.
   1 Symmetry operations used in ECPInt.
 ECPInt:  NShTT=   24753 NPrTT=   89657 LenC2=   19710 LenP2D=   47553.
 LDataN:  DoStor=T MaxTD1= 4 Len=   56
 NBasis=   474 RedAO= T EigKep=  2.10D-04  NBF=   474
 NBsUse=   474 1.00D-06 EigRej= -1.00D+00 NBFU=   474
 ExpMin= 1.22D-01 ExpMax= 2.27D+03 ExpMxC= 3.41D+02 IAcc=3 IRadAn=         5 AccDes= 0.00D+00
 Harris functional with IExCor=  402 and IRadAn=       5 diagonalized for initial guess.
 HarFok:  IExCor=  402 AccDes= 0.00D+00 IRadAn=         5 IDoV= 1 UseB2=F ITyADJ=14
 ICtDFT=  3500011 ScaDFX=  1.000000  1.000000  1.000000  1.000000
 FoFCou: FMM=F IPFlag=           0 FMFlag=      100000 FMFlg1=           0
         NFxFlg=           0 DoJE=T BraDBF=F KetDBF=T FulRan=T
         wScrn=  0.000000 ICntrl=       500 IOpCl=  0 I1Cent=   200000004 NGrid=           0
         NMat0=    1 NMatS0=      1 NMatT0=    0 NMatD0=    1 NMtDS0=    0 NMtDT0=    0
 Symmetry not used in FoFCou.
 Mixing orbitals, IMix= 1 IMixAn=  0 NRI=1 NE=   95 Coef=  7.07106781D-01  7.07106781D-01
 Requested convergence on RMS density matrix=1.00D-08 within 400 cycles.
 Requested convergence on MAX density matrix=1.00D-06.
 Requested convergence on             energy=1.00D-06.
 No special actions if energy rises.
 Inv3:  Mode=1 IEnd=    82561548.
 Iteration    1 A*A^-1 deviation from unit magnitude is 4.00D-15 for   2267.
 Iteration    1 A*A^-1 deviation from orthogonality  is 2.22D-15 for   3471   1385.
 Iteration    1 A^-1*A deviation from unit magnitude is 4.22D-15 for   2267.
 Iteration    1 A^-1*A deviation from orthogonality  is 2.89D-15 for   2977   1509.
 Error on total polarization charges =  0.01358
 SCF Done:  E(RB3LYP) =  -1225.77228520     A.U. after   14 cycles
            NFock= 14  Conv=0.54D-08     -V/T= 2.0096
 QCSCF skips out because SCF is already converged.

 **********************************************************************

            Population analysis using the SCF Density.

 **********************************************************************

 Alpha  occ. eigenvalues --  -19.17380 -19.17296 -19.17123 -19.13298 -19.12925
 Alpha  occ. eigenvalues --  -19.11992 -10.27757 -10.26141 -10.25704 -10.25549
 Alpha  occ. eigenvalues --  -10.24662 -10.24552 -10.23521 -10.23421 -10.22337
 Alpha  occ. eigenvalues --  -10.21663 -10.21648 -10.21476 -10.20272 -10.20042
 Alpha  occ. eigenvalues --  -10.19835 -10.19776 -10.19638 -10.19577 -10.19334
 Alpha  occ. eigenvalues --  -10.19024  -1.07957  -1.07906  -1.05210  -1.02747
 Alpha  occ. eigenvalues --   -1.01020  -1.00804  -0.86257  -0.85720  -0.80460
 Alpha  occ. eigenvalues --   -0.78839  -0.76637  -0.75644  -0.75062  -0.73102
 Alpha  occ. eigenvalues --   -0.69981  -0.68958  -0.66931  -0.65745  -0.62711
 Alpha  occ. eigenvalues --   -0.61685  -0.61205  -0.59810  -0.57621  -0.55776
 Alpha  occ. eigenvalues --   -0.54987  -0.52823  -0.52319  -0.51707  -0.51245
 Alpha  occ. eigenvalues --   -0.50470  -0.49806  -0.48801  -0.48185  -0.48088
 Alpha  occ. eigenvalues --   -0.47393  -0.46467  -0.45358  -0.45034  -0.44599
 Alpha  occ. eigenvalues --   -0.43854  -0.43550  -0.43144  -0.42965  -0.42132
 Alpha  occ. eigenvalues --   -0.41180  -0.40532  -0.40239  -0.39500  -0.38876
 Alpha  occ. eigenvalues --   -0.38782  -0.37399  -0.37285  -0.36570  -0.36149
 Alpha  occ. eigenvalues --   -0.35774  -0.35057  -0.34054  -0.33465  -0.33161
 Alpha  occ. eigenvalues --   -0.32547  -0.31107  -0.28568  -0.27801  -0.26948
 Alpha  occ. eigenvalues --   -0.26569  -0.24948  -0.23833  -0.22212  -0.21580
 Alpha virt. eigenvalues --   -0.09681  -0.03814  -0.01319  -0.00600   0.02485
 Alpha virt. eigenvalues --    0.03597   0.05684   0.06233   0.06953   0.07057
 Alpha virt. eigenvalues --    0.07782   0.07938   0.08984   0.09999   0.10485
 Alpha virt. eigenvalues --    0.10808   0.11400   0.11782   0.12022   0.12714
 Alpha virt. eigenvalues --    0.12946   0.13436   0.13714   0.13818   0.14104
 Alpha virt. eigenvalues --    0.14785   0.15137   0.16038   0.16613   0.17218
 Alpha virt. eigenvalues --    0.17779   0.18586   0.20513   0.20589   0.21455
 Alpha virt. eigenvalues --    0.21512   0.22892   0.23551   0.23879   0.24798
 Alpha virt. eigenvalues --    0.25518   0.25830   0.27643   0.28523   0.29207
 Alpha virt. eigenvalues --    0.30209   0.31112   0.31459   0.32049   0.32222
 Alpha virt. eigenvalues --    0.33552   0.34040   0.35146   0.37406   0.38219
 Alpha virt. eigenvalues --    0.38487   0.38717   0.39416   0.40321   0.41364
 Alpha virt. eigenvalues --    0.42158   0.43027   0.43624   0.44150   0.45254
 Alpha virt. eigenvalues --    0.45876   0.46078   0.46307   0.46469   0.46984
 Alpha virt. eigenvalues --    0.47571   0.48607   0.48940   0.49254   0.49979
 Alpha virt. eigenvalues --    0.50325   0.51408   0.51517   0.52403   0.52865
 Alpha virt. eigenvalues --    0.53279   0.53911   0.54414   0.54927   0.55477
 Alpha virt. eigenvalues --    0.55739   0.56942   0.57293   0.58442   0.58847
 Alpha virt. eigenvalues --    0.59331   0.60038   0.60816   0.61205   0.61945
 Alpha virt. eigenvalues --    0.62344   0.63123   0.63144   0.63277   0.63425
 Alpha virt. eigenvalues --    0.64137   0.64419   0.64558   0.65039   0.65372
 Alpha virt. eigenvalues --    0.65635   0.66010   0.66240   0.66466   0.66694
 Alpha virt. eigenvalues --    0.66841   0.67631   0.67878   0.68218   0.68442
 Alpha virt. eigenvalues --    0.69336   0.69508   0.70445   0.70718   0.71886
 Alpha virt. eigenvalues --    0.71972   0.73050   0.73330   0.73579   0.74860
 Alpha virt. eigenvalues --    0.75590   0.75823   0.76414   0.77248   0.77512
 Alpha virt. eigenvalues --    0.79227   0.80209   0.80465   0.81880   0.82193
 Alpha virt. eigenvalues --    0.84010   0.85054   0.86099   0.87390   0.87843
 Alpha virt. eigenvalues --    0.88703   0.89637   0.91845   0.94530   0.96070
 Alpha virt. eigenvalues --    0.97049   0.97933   0.98703   0.99375   1.01108
 Alpha virt. eigenvalues --    1.01660   1.02541   1.03250   1.03944   1.05569
 Alpha virt. eigenvalues --    1.06458   1.06715   1.09363   1.11102   1.11544
 Alpha virt. eigenvalues --    1.11932   1.12830   1.13514   1.14289   1.16311
 Alpha virt. eigenvalues --    1.18198   1.19418   1.20516   1.21082   1.21702
 Alpha virt. eigenvalues --    1.23387   1.24392   1.24980   1.25537   1.26804
 Alpha virt. eigenvalues --    1.27270   1.27719   1.27999   1.29117   1.29996
 Alpha virt. eigenvalues --    1.31658   1.32002   1.32932   1.34801   1.37923
 Alpha virt. eigenvalues --    1.38507   1.40055   1.41780   1.42199   1.42481
 Alpha virt. eigenvalues --    1.42791   1.44208   1.47001   1.47255   1.48151
 Alpha virt. eigenvalues --    1.48952   1.49981   1.50751   1.52575   1.53496
 Alpha virt. eigenvalues --    1.54804   1.57509   1.58927   1.59227   1.60286
 Alpha virt. eigenvalues --    1.60792   1.61760   1.63281   1.63766   1.65403
 Alpha virt. eigenvalues --    1.65714   1.65939   1.66541   1.67109   1.68339
 Alpha virt. eigenvalues --    1.69173   1.69538   1.70023   1.71834   1.72072
 Alpha virt. eigenvalues --    1.72817   1.73397   1.73866   1.74318   1.74833
 Alpha virt. eigenvalues --    1.75308   1.75944   1.76202   1.76464   1.77173
 Alpha virt. eigenvalues --    1.77776   1.78821   1.79430   1.79888   1.80401
 Alpha virt. eigenvalues --    1.81305   1.81423   1.82254   1.83089   1.83492
 Alpha virt. eigenvalues --    1.84207   1.84855   1.85456   1.85716   1.86831
 Alpha virt. eigenvalues --    1.87720   1.87943   1.88571   1.89201   1.89712
 Alpha virt. eigenvalues --    1.90595   1.91148   1.91204   1.92050   1.93095
 Alpha virt. eigenvalues --    1.93656   1.95002   1.96800   1.98584   1.98705
 Alpha virt. eigenvalues --    2.00673   2.00874   2.02485   2.03463   2.03620
 Alpha virt. eigenvalues --    2.05155   2.05796   2.06812   2.07858   2.09282
 Alpha virt. eigenvalues --    2.09978   2.11746   2.12263   2.12891   2.13044
 Alpha virt. eigenvalues --    2.14336   2.15099   2.16082   2.17218   2.17624
 Alpha virt. eigenvalues --    2.18074   2.19887   2.21329   2.21807   2.22312
 Alpha virt. eigenvalues --    2.23334   2.24553   2.25008   2.25735   2.27550
 Alpha virt. eigenvalues --    2.27691   2.28187   2.30537   2.31559   2.31985
 Alpha virt. eigenvalues --    2.32768   2.34397   2.34777   2.35433   2.36088
 Alpha virt. eigenvalues --    2.37371   2.38673   2.39487   2.39860   2.41963
 Alpha virt. eigenvalues --    2.43640   2.45515   2.46487   2.49929   2.51172
 Alpha virt. eigenvalues --    2.51643   2.53855   2.54506   2.55417   2.57048
 Alpha virt. eigenvalues --    2.59979   2.60720   2.63101   2.63630   2.64110
 Alpha virt. eigenvalues --    2.64521   2.65217   2.67683   2.70890   2.71035
 Alpha virt. eigenvalues --    2.71783   2.72470   2.72900   2.74909   2.75684
 Alpha virt. eigenvalues --    2.78375   2.79825   2.80539   2.80828   2.83359
 Alpha virt. eigenvalues --    2.84010   2.84730   2.85095   2.86982   2.87436
 Alpha virt. eigenvalues --    2.89454   2.89990   2.90362   2.91619   2.91974
 Alpha virt. eigenvalues --    2.93035   2.96252   2.96898   2.99069   3.02281
 Alpha virt. eigenvalues --    3.03058   3.05865   3.06212   3.06361   3.07646
 Alpha virt. eigenvalues --    3.08033   3.09993   3.11123   3.11785   3.14069
 Alpha virt. eigenvalues --    3.15146   3.16497   3.21134   3.24436   3.26956
 Alpha virt. eigenvalues --    3.30254   3.31921   3.32782   3.36458   3.39639
 Alpha virt. eigenvalues --    3.41430   3.49000   3.51528   3.55248   3.59060
 Alpha virt. eigenvalues --    3.69687   3.72782   3.75985   3.76572
          Condensed to atoms (all electrons):
               1          2          3          4          5          6
     1  C    5.363935   0.168570   0.172280  -0.191141   0.134688   0.199872
     2  C    0.168570   5.444323   0.136968   0.119751  -0.136040   0.073466
     3  C    0.172280   0.136968   5.381962   0.045712   0.107977  -0.174934
     4  C   -0.191141   0.119751   0.045712   5.239474   0.223875   0.163354
     5  C    0.134688  -0.136040   0.107977   0.223875   5.223559   0.175633
     6  C    0.199872   0.073466  -0.174934   0.163354   0.175633   5.295899
     7  H   -0.075216   0.457587  -0.085279   0.018435  -0.003252   0.017976
     8  H    0.018628  -0.004321   0.024879  -0.089409   0.450995  -0.082193
     9  H   -0.076956   0.017458  -0.002904   0.017814  -0.075327   0.454617
    10  C    0.301506  -0.098840   0.015809  -0.002218   0.018042  -0.098123
    11  H   -0.045259  -0.014776   0.000746  -0.000023  -0.000463   0.010089
    12  C   -0.054350   0.010969  -0.000746   0.000095   0.000838  -0.015618
    13  H   -0.020985  -0.000512   0.000057  -0.000059   0.000222   0.006786
    14  C    0.009732  -0.000194   0.000002   0.000002  -0.000016   0.000393
    15  H    0.001316  -0.000053   0.000000  -0.000000   0.000003   0.000058
    16  H   -0.001094   0.000012  -0.000000  -0.000000  -0.000003  -0.000038
    17  O   -0.000313   0.006392  -0.073467   0.372955  -0.065148   0.004908
    18  O   -0.000310   0.000002  -0.000000  -0.000000   0.000000   0.000005
    19  H    0.000034  -0.000001   0.000000   0.000000  -0.000000  -0.000001
    20  O    0.005059  -0.067316   0.344124  -0.086113   0.004016  -0.000124
    21  C    0.001124  -0.006148  -0.043829   0.004210  -0.000079  -0.000003
    22  H   -0.000020   0.000079   0.006247  -0.000053   0.000014   0.000002
    23  H   -0.000263   0.005142  -0.000390   0.001911  -0.000247   0.000011
    24  H    0.000851   0.005681  -0.013158  -0.001284   0.000099  -0.000067
    25  C   -0.000000   0.000002   0.000249  -0.000431  -0.000149   0.000001
    26  C    0.000000  -0.000000   0.000016   0.000061   0.000002  -0.000000
    27  C    0.000000  -0.000000   0.000001  -0.000001   0.000000  -0.000000
    28  C   -0.000000   0.000000   0.000000  -0.000000  -0.000000   0.000000
    29  C    0.000000  -0.000000  -0.000000  -0.000000   0.000000   0.000000
    30  C   -0.000000   0.000000   0.000000  -0.000006   0.000002  -0.000000
    31  H   -0.000001   0.000015   0.000046  -0.000088  -0.000007   0.000000
    32  H   -0.000000   0.000000   0.000000   0.000000   0.000000  -0.000000
    33  H   -0.000000   0.000000  -0.000000  -0.000002   0.000000  -0.000000
    34  C   -0.000002   0.000110  -0.000666   0.000529  -0.000051  -0.000011
    35  H    0.000003  -0.000026   0.000101   0.000468   0.000103   0.000000
    36  C    0.000091  -0.000325  -0.014531  -0.025394   0.003323  -0.000068
    37  H    0.000111  -0.003629  -0.014355  -0.007825   0.001594   0.000107
    38  C    0.000001  -0.000083  -0.001009  -0.000050  -0.000458   0.000023
    39  H   -0.000002   0.000052  -0.001021  -0.001321  -0.000174   0.000002
    40  H   -0.000000   0.000008  -0.000096   0.000301   0.000038  -0.000001
    41  O    0.000000  -0.000000   0.000000   0.000000  -0.000000  -0.000000
    42  O    0.000000   0.000000  -0.000030   0.000078   0.000024  -0.000000
    43  H    0.000002  -0.000012   0.000124   0.000477   0.000064  -0.000009
    44  O   -0.000000  -0.000000   0.000000   0.000000  -0.000000  -0.000000
    45  C    0.000000  -0.000000  -0.000000  -0.000000   0.000000  -0.000000
    46  H    0.000000  -0.000000  -0.000000   0.000000   0.000000  -0.000000
    47  H   -0.000000   0.000000   0.000000  -0.000000  -0.000000   0.000000
    48  H   -0.000000   0.000000   0.000000   0.000000  -0.000000  -0.000000
               7          8          9         10         11         12
     1  C   -0.075216   0.018628  -0.076956   0.301506  -0.045259  -0.054350
     2  C    0.457587  -0.004321   0.017458  -0.098840  -0.014776   0.010969
     3  C   -0.085279   0.024879  -0.002904   0.015809   0.000746  -0.000746
     4  C    0.018435  -0.089409   0.017814  -0.002218  -0.000023   0.000095
     5  C   -0.003252   0.450995  -0.075327   0.018042  -0.000463   0.000838
     6  C    0.017976  -0.082193   0.454617  -0.098123   0.010089  -0.015618
     7  H    0.706774   0.000015  -0.000277  -0.017495   0.005557   0.000366
     8  H    0.000015   0.708327  -0.014290  -0.000386   0.000011   0.000004
     9  H   -0.000277  -0.014290   0.705395  -0.022696   0.000138   0.006819
    10  C   -0.017495  -0.000386  -0.022696   4.981452   0.399548   0.607933
    11  H    0.005557   0.000011   0.000138   0.399548   0.694297  -0.051927
    12  C    0.000366   0.000004   0.006819   0.607933  -0.051927   4.949747
    13  H    0.000026   0.000043   0.000500  -0.034013   0.010186   0.375419
    14  C   -0.000030  -0.000001  -0.000078  -0.025308  -0.017461   0.362942
    15  H    0.000015   0.000000  -0.000013  -0.011298   0.010632  -0.044300
    16  H   -0.000000   0.000000  -0.000044  -0.001625   0.000131  -0.000760
    17  O   -0.000067   0.000336  -0.000074   0.000001  -0.000000  -0.000000
    18  O   -0.000001  -0.000000  -0.000000  -0.001294  -0.000092  -0.057141
    19  H    0.000000   0.000000  -0.000001  -0.000027  -0.000077   0.007310
    20  O   -0.007736  -0.000076   0.000004  -0.000059   0.000001   0.000000
    21  C    0.005166   0.000015  -0.000000  -0.000033  -0.000008   0.000000
    22  H   -0.000307  -0.000000  -0.000000  -0.000001   0.000000   0.000000
    23  H    0.000814   0.000000  -0.000001  -0.000020   0.000013   0.000000
    24  H   -0.001066  -0.000001   0.000000   0.000091  -0.000034  -0.000002
    25  C    0.000001   0.000023  -0.000000   0.000000   0.000000  -0.000000
    26  C   -0.000000   0.000001   0.000000  -0.000000  -0.000000  -0.000000
    27  C    0.000000   0.000000   0.000000   0.000000  -0.000000  -0.000000
    28  C    0.000000  -0.000000   0.000000   0.000000   0.000000  -0.000000
    29  C   -0.000000  -0.000000   0.000000  -0.000000   0.000000  -0.000000
    30  C   -0.000000  -0.000002   0.000000   0.000000  -0.000000   0.000000
    31  H    0.000002   0.000000  -0.000000   0.000000   0.000000  -0.000000
    32  H    0.000000  -0.000000  -0.000000   0.000000  -0.000000   0.000000
    33  H   -0.000000  -0.000001   0.000000   0.000000  -0.000000   0.000000
    34  C   -0.000002  -0.000132  -0.000000   0.000000  -0.000000   0.000000
    35  H    0.000000   0.000278  -0.000000  -0.000000   0.000000   0.000000
    36  C   -0.000085  -0.000917   0.000009  -0.000000  -0.000000  -0.000000
    37  H    0.000042   0.000159  -0.000003  -0.000002   0.000000   0.000000
    38  C    0.000001  -0.000012  -0.000000  -0.000000   0.000000  -0.000000
    39  H   -0.000010  -0.000019   0.000000   0.000000  -0.000000  -0.000000
    40  H   -0.000000  -0.000001   0.000000   0.000000  -0.000000   0.000000
    41  O    0.000000   0.000000  -0.000000   0.000000  -0.000000   0.000000
    42  O   -0.000000  -0.000003  -0.000000   0.000000   0.000000  -0.000000
    43  H    0.000000   0.000094   0.000000   0.000000  -0.000000   0.000000
    44  O    0.000000   0.000000  -0.000000   0.000000  -0.000000   0.000000
    45  C    0.000000   0.000000   0.000000  -0.000000   0.000000  -0.000000
    46  H   -0.000000   0.000000  -0.000000  -0.000000   0.000000   0.000000
    47  H   -0.000000  -0.000000   0.000000   0.000000  -0.000000  -0.000000
    48  H    0.000000   0.000000  -0.000000   0.000000  -0.000000  -0.000000
              13         14         15         16         17         18
     1  C   -0.020985   0.009732   0.001316  -0.001094  -0.000313  -0.000310
     2  C   -0.000512  -0.000194  -0.000053   0.000012   0.006392   0.000002
     3  C    0.000057   0.000002   0.000000  -0.000000  -0.073467  -0.000000
     4  C   -0.000059   0.000002  -0.000000  -0.000000   0.372955  -0.000000
     5  C    0.000222  -0.000016   0.000003  -0.000003  -0.065148   0.000000
     6  C    0.006786   0.000393   0.000058  -0.000038   0.004908   0.000005
     7  H    0.000026  -0.000030   0.000015  -0.000000  -0.000067  -0.000001
     8  H    0.000043  -0.000001   0.000000   0.000000   0.000336  -0.000000
     9  H    0.000500  -0.000078  -0.000013  -0.000044  -0.000074  -0.000000
    10  C   -0.034013  -0.025308  -0.011298  -0.001625   0.000001  -0.001294
    11  H    0.010186  -0.017461   0.010632   0.000131  -0.000000  -0.000092
    12  C    0.375419   0.362942  -0.044300  -0.000760  -0.000000  -0.057141
    13  H    0.692927  -0.043431   0.010553  -0.008328   0.000000   0.005286
    14  C   -0.043431   4.417285   0.384177   0.343988   0.000000   0.337369
    15  H    0.010553   0.384177   0.740219  -0.048137   0.000000  -0.029319
    16  H   -0.008328   0.343988  -0.048137   0.747755  -0.000000  -0.032731
    17  O    0.000000   0.000000   0.000000  -0.000000   7.971492   0.000000
    18  O    0.005286   0.337369  -0.029319  -0.032731   0.000000   7.802347
    19  H   -0.000414  -0.015777  -0.005392  -0.005153  -0.000000   0.317945
    20  O    0.000000  -0.000000   0.000000  -0.000000  -0.001524   0.000000
    21  C   -0.000000  -0.000000   0.000000   0.000000  -0.000256  -0.000000
    22  H    0.000000   0.000000  -0.000000   0.000000  -0.000016   0.000000
    23  H    0.000000   0.000000  -0.000000  -0.000000   0.000025   0.000000
    24  H   -0.000000  -0.000000   0.000000   0.000000  -0.000013   0.000000
    25  C    0.000000   0.000000   0.000000  -0.000000   0.005541   0.000000
    26  C   -0.000000  -0.000000   0.000000  -0.000000  -0.000134  -0.000000
    27  C   -0.000000  -0.000000  -0.000000   0.000000  -0.000007   0.000000
    28  C    0.000000   0.000000   0.000000  -0.000000   0.000000   0.000000
    29  C    0.000000   0.000000   0.000000  -0.000000   0.000001   0.000000
    30  C   -0.000000  -0.000000  -0.000000   0.000000  -0.000166  -0.000000
    31  H    0.000000   0.000000  -0.000000  -0.000000   0.000027   0.000000
    32  H   -0.000000  -0.000000  -0.000000   0.000000  -0.000000   0.000000
    33  H   -0.000000  -0.000000   0.000000  -0.000000  -0.000028   0.000000
    34  C    0.000000  -0.000000  -0.000000   0.000000  -0.047171  -0.000000
    35  H    0.000000  -0.000000  -0.000000   0.000000   0.003373  -0.000000
    36  C   -0.000000  -0.000000   0.000000  -0.000000   0.231462   0.000000
    37  H    0.000000   0.000000  -0.000000  -0.000000  -0.025002  -0.000000
    38  C    0.000000   0.000000  -0.000000  -0.000000  -0.042512   0.000000
    39  H   -0.000000  -0.000000   0.000000   0.000000  -0.001206  -0.000000
    40  H   -0.000000  -0.000000  -0.000000   0.000000   0.004289  -0.000000
    41  O   -0.000000   0.000000   0.000000   0.000000  -0.000000   0.000000
    42  O    0.000000   0.000000   0.000000  -0.000000  -0.006498   0.000000
    43  H   -0.000000  -0.000000  -0.000000   0.000000   0.019563  -0.000000
    44  O   -0.000000  -0.000000  -0.000000   0.000000  -0.000000   0.000000
    45  C   -0.000000  -0.000000   0.000000   0.000000  -0.000000   0.000000
    46  H   -0.000000   0.000000  -0.000000   0.000000  -0.000000   0.000000
    47  H    0.000000  -0.000000   0.000000  -0.000000   0.000000   0.000000
    48  H    0.000000  -0.000000   0.000000   0.000000   0.000000   0.000000
              19         20         21         22         23         24
     1  C    0.000034   0.005059   0.001124  -0.000020  -0.000263   0.000851
     2  C   -0.000001  -0.067316  -0.006148   0.000079   0.005142   0.005681
     3  C    0.000000   0.344124  -0.043829   0.006247  -0.000390  -0.013158
     4  C    0.000000  -0.086113   0.004210  -0.000053   0.001911  -0.001284
     5  C   -0.000000   0.004016  -0.000079   0.000014  -0.000247   0.000099
     6  C   -0.000001  -0.000124  -0.000003   0.000002   0.000011  -0.000067
     7  H    0.000000  -0.007736   0.005166  -0.000307   0.000814  -0.001066
     8  H    0.000000  -0.000076   0.000015  -0.000000   0.000000  -0.000001
     9  H   -0.000001   0.000004  -0.000000  -0.000000  -0.000001   0.000000
    10  C   -0.000027  -0.000059  -0.000033  -0.000001  -0.000020   0.000091
    11  H   -0.000077   0.000001  -0.000008   0.000000   0.000013  -0.000034
    12  C    0.007310   0.000000   0.000000   0.000000   0.000000  -0.000002
    13  H   -0.000414   0.000000  -0.000000   0.000000   0.000000  -0.000000
    14  C   -0.015777  -0.000000  -0.000000   0.000000   0.000000  -0.000000
    15  H   -0.005392   0.000000   0.000000  -0.000000  -0.000000   0.000000
    16  H   -0.005153  -0.000000   0.000000   0.000000  -0.000000   0.000000
    17  O   -0.000000  -0.001524  -0.000256  -0.000016   0.000025  -0.000013
    18  O    0.317945   0.000000  -0.000000   0.000000   0.000000   0.000000
    19  H    0.516088  -0.000000   0.000000  -0.000000  -0.000000   0.000000
    20  O   -0.000000   7.975180   0.292802  -0.027305  -0.029946  -0.024335
    21  C    0.000000   0.292802   4.377026   0.394501   0.390403   0.401595
    22  H   -0.000000  -0.027305   0.394501   0.629650  -0.023592  -0.024905
    23  H   -0.000000  -0.029946   0.390403  -0.023592   0.661639  -0.038715
    24  H    0.000000  -0.024335   0.401595  -0.024905  -0.038715   0.652767
    25  C   -0.000000   0.000190  -0.000009  -0.000004   0.000002  -0.000002
    26  C   -0.000000  -0.000615  -0.000002   0.000007  -0.000003   0.000007
    27  C   -0.000000  -0.000012   0.000003   0.000004  -0.000000   0.000000
    28  C   -0.000000   0.000000  -0.000000  -0.000000   0.000000   0.000000
    29  C   -0.000000  -0.000000   0.000000   0.000000  -0.000000   0.000000
    30  C    0.000000   0.000001  -0.000000  -0.000000   0.000000  -0.000000
    31  H   -0.000000   0.001673   0.000124   0.000043   0.000008  -0.000003
    32  H    0.000000  -0.000000  -0.000000   0.000000  -0.000000   0.000000
    33  H    0.000000   0.000000  -0.000000  -0.000000  -0.000000   0.000000
    34  C    0.000000   0.002562  -0.000099  -0.000064  -0.000002   0.000029
    35  H   -0.000000  -0.000086   0.000005   0.000001  -0.000001  -0.000000
    36  C   -0.000000  -0.048079   0.001763   0.000456  -0.000821   0.000197
    37  H    0.000000   0.029315  -0.000197  -0.000973   0.001440  -0.001105
    38  C   -0.000000  -0.004984  -0.000235   0.000392   0.000262  -0.000088
    39  H    0.000000   0.011088  -0.000051   0.000000  -0.000374   0.000406
    40  H    0.000000   0.000444  -0.000048   0.000094  -0.000040   0.000006
    41  O    0.000000   0.000000   0.000000  -0.000000   0.000000  -0.000000
    42  O   -0.000000   0.000042  -0.000000  -0.000006  -0.000002   0.000000
    43  H    0.000000   0.000022   0.000017   0.000002  -0.000007   0.000000
    44  O    0.000000  -0.000000  -0.000000   0.000000  -0.000000   0.000000
    45  C   -0.000000  -0.000000   0.000000  -0.000000  -0.000000   0.000000
    46  H    0.000000  -0.000000   0.000000  -0.000000  -0.000000  -0.000000
    47  H   -0.000000  -0.000000  -0.000000   0.000000   0.000000   0.000000
    48  H    0.000000   0.000000  -0.000000   0.000000   0.000000  -0.000000
              25         26         27         28         29         30
     1  C   -0.000000   0.000000   0.000000  -0.000000   0.000000  -0.000000
     2  C    0.000002  -0.000000  -0.000000   0.000000  -0.000000   0.000000
     3  C    0.000249   0.000016   0.000001   0.000000  -0.000000   0.000000
     4  C   -0.000431   0.000061  -0.000001  -0.000000  -0.000000  -0.000006
     5  C   -0.000149   0.000002   0.000000  -0.000000   0.000000   0.000002
     6  C    0.000001  -0.000000  -0.000000   0.000000   0.000000  -0.000000
     7  H    0.000001  -0.000000   0.000000   0.000000  -0.000000  -0.000000
     8  H    0.000023   0.000001   0.000000  -0.000000  -0.000000  -0.000002
     9  H   -0.000000   0.000000   0.000000   0.000000   0.000000   0.000000
    10  C    0.000000  -0.000000   0.000000   0.000000  -0.000000   0.000000
    11  H    0.000000  -0.000000  -0.000000   0.000000   0.000000  -0.000000
    12  C   -0.000000  -0.000000  -0.000000  -0.000000  -0.000000   0.000000
    13  H    0.000000  -0.000000  -0.000000   0.000000   0.000000  -0.000000
    14  C    0.000000  -0.000000  -0.000000   0.000000   0.000000  -0.000000
    15  H    0.000000   0.000000  -0.000000   0.000000   0.000000  -0.000000
    16  H   -0.000000  -0.000000   0.000000  -0.000000  -0.000000   0.000000
    17  O    0.005541  -0.000134  -0.000007   0.000000   0.000001  -0.000166
    18  O    0.000000  -0.000000   0.000000   0.000000   0.000000  -0.000000
    19  H   -0.000000  -0.000000  -0.000000  -0.000000  -0.000000   0.000000
    20  O    0.000190  -0.000615  -0.000012   0.000000  -0.000000   0.000001
    21  C   -0.000009  -0.000002   0.000003  -0.000000   0.000000  -0.000000
    22  H   -0.000004   0.000007   0.000004  -0.000000   0.000000  -0.000000
    23  H    0.000002  -0.000003  -0.000000   0.000000  -0.000000   0.000000
    24  H   -0.000002   0.000007   0.000000   0.000000   0.000000  -0.000000
    25  C    5.185183   0.165100   0.139272  -0.143642   0.114509   0.132980
    26  C    0.165100   5.450468   0.195963   0.072277  -0.082318   0.032499
    27  C    0.139272   0.195963   5.383312  -0.006997   0.001534  -0.115492
    28  C   -0.143642   0.072277  -0.006997   5.164909   0.130766   0.133026
    29  C    0.114509  -0.082318   0.001534   0.130766   5.400058   0.190712
    30  C    0.132980   0.032499  -0.115492   0.133026   0.190712   5.291490
    31  H   -0.056805   0.424113  -0.065943   0.016249  -0.004631   0.015339
    32  H    0.015743  -0.003625   0.021204  -0.063724   0.419157  -0.072356
    33  H   -0.077980   0.014658  -0.004175   0.015452  -0.068168   0.454829
    34  C    0.507090  -0.108965   0.022188  -0.001656   0.016830  -0.098414
    35  H   -0.034014   0.011920  -0.000058  -0.000102   0.001544  -0.025051
    36  C   -0.013566  -0.006957  -0.000511   0.000122  -0.001151   0.014328
    37  H   -0.017744   0.005964   0.001681  -0.000098   0.000085  -0.000767
    38  C   -0.004295  -0.001456  -0.000015   0.000001   0.000008  -0.000352
    39  H   -0.000504   0.000049   0.000014  -0.000000  -0.000001   0.000019
    40  H    0.002456   0.002195  -0.000549  -0.000003  -0.000010  -0.000062
    41  O   -0.000261   0.005158  -0.122712   0.657885  -0.074239   0.004512
    42  O   -0.002965   0.000135   0.000007  -0.000000   0.000000  -0.000083
    43  H    0.000306  -0.000007   0.000001  -0.000000  -0.000000  -0.000015
    44  O    0.002926  -0.076185   0.400410  -0.063363   0.007059  -0.000402
    45  C   -0.000221   0.007967  -0.037749  -0.014114   0.001323   0.000045
    46  H    0.000007  -0.000578  -0.002831   0.003834   0.000292  -0.000018
    47  H    0.000032   0.000355   0.009672  -0.010436  -0.002165   0.000094
    48  H    0.000007   0.000381   0.010065  -0.011879  -0.002507   0.000129
              31         32         33         34         35         36
     1  C   -0.000001  -0.000000  -0.000000  -0.000002   0.000003   0.000091
     2  C    0.000015   0.000000   0.000000   0.000110  -0.000026  -0.000325
     3  C    0.000046   0.000000  -0.000000  -0.000666   0.000101  -0.014531
     4  C   -0.000088   0.000000  -0.000002   0.000529   0.000468  -0.025394
     5  C   -0.000007   0.000000   0.000000  -0.000051   0.000103   0.003323
     6  C    0.000000  -0.000000  -0.000000  -0.000011   0.000000  -0.000068
     7  H    0.000002   0.000000  -0.000000  -0.000002   0.000000  -0.000085
     8  H    0.000000  -0.000000  -0.000001  -0.000132   0.000278  -0.000917
     9  H   -0.000000  -0.000000   0.000000  -0.000000  -0.000000   0.000009
    10  C    0.000000   0.000000   0.000000   0.000000  -0.000000  -0.000000
    11  H    0.000000  -0.000000  -0.000000  -0.000000   0.000000  -0.000000
    12  C   -0.000000   0.000000   0.000000   0.000000   0.000000  -0.000000
    13  H    0.000000  -0.000000  -0.000000   0.000000   0.000000  -0.000000
    14  C    0.000000  -0.000000  -0.000000  -0.000000  -0.000000  -0.000000
    15  H   -0.000000  -0.000000   0.000000  -0.000000  -0.000000   0.000000
    16  H   -0.000000   0.000000  -0.000000   0.000000   0.000000  -0.000000
    17  O    0.000027  -0.000000  -0.000028  -0.047171   0.003373   0.231462
    18  O    0.000000   0.000000   0.000000  -0.000000  -0.000000   0.000000
    19  H   -0.000000   0.000000   0.000000   0.000000  -0.000000  -0.000000
    20  O    0.001673  -0.000000   0.000000   0.002562  -0.000086  -0.048079
    21  C    0.000124  -0.000000  -0.000000  -0.000099   0.000005   0.001763
    22  H    0.000043   0.000000  -0.000000  -0.000064   0.000001   0.000456
    23  H    0.000008  -0.000000  -0.000000  -0.000002  -0.000001  -0.000821
    24  H   -0.000003   0.000000   0.000000   0.000029  -0.000000   0.000197
    25  C   -0.056805   0.015743  -0.077980   0.507090  -0.034014  -0.013566
    26  C    0.424113  -0.003625   0.014658  -0.108965   0.011920  -0.006957
    27  C   -0.065943   0.021204  -0.004175   0.022188  -0.000058  -0.000511
    28  C    0.016249  -0.063724   0.015452  -0.001656  -0.000102   0.000122
    29  C   -0.004631   0.419157  -0.068168   0.016830   0.001544  -0.001151
    30  C    0.015339  -0.072356   0.454829  -0.098414  -0.025051   0.014328
    31  H    0.704169   0.000059  -0.000206  -0.032916  -0.000077   0.009759
    32  H    0.000059   0.701397  -0.015924  -0.000392  -0.000032   0.000010
    33  H   -0.000206  -0.015924   0.686223  -0.018741   0.004935   0.000866
    34  C   -0.032916  -0.000392  -0.018741   5.322246   0.396055   0.162988
    35  H   -0.000077  -0.000032   0.004935   0.396055   0.665794  -0.048108
    36  C    0.009759   0.000010   0.000866   0.162988  -0.048108   4.955494
    37  H    0.001600  -0.000000  -0.000065  -0.019058   0.007241   0.344712
    38  C   -0.002188  -0.000000   0.000023  -0.064773  -0.003879   0.430601
    39  H   -0.000067   0.000000  -0.000001   0.016196  -0.000279  -0.027003
    40  H    0.001395   0.000000   0.000002  -0.013868  -0.000287  -0.000334
    41  O   -0.000125   0.005253  -0.000101   0.000003   0.000000  -0.000000
    42  O   -0.000080   0.000000  -0.000035   0.014364   0.004788  -0.052410
    43  H    0.000007   0.000000  -0.000002  -0.004904   0.001829  -0.011561
    44  O    0.002756  -0.000107   0.000004  -0.000010   0.000001  -0.000001
    45  C   -0.000496  -0.000172   0.000001   0.000006  -0.000000   0.000000
    46  H   -0.000150  -0.000013   0.000000  -0.000000   0.000000  -0.000000
    47  H    0.000132   0.000170  -0.000002   0.000001  -0.000000   0.000000
    48  H    0.000150   0.000198  -0.000002   0.000001  -0.000000   0.000000
              37         38         39         40         41         42
     1  C    0.000111   0.000001  -0.000002  -0.000000   0.000000   0.000000
     2  C   -0.003629  -0.000083   0.000052   0.000008  -0.000000   0.000000
     3  C   -0.014355  -0.001009  -0.001021  -0.000096   0.000000  -0.000030
     4  C   -0.007825  -0.000050  -0.001321   0.000301   0.000000   0.000078
     5  C    0.001594  -0.000458  -0.000174   0.000038  -0.000000   0.000024
     6  C    0.000107   0.000023   0.000002  -0.000001  -0.000000  -0.000000
     7  H    0.000042   0.000001  -0.000010  -0.000000   0.000000  -0.000000
     8  H    0.000159  -0.000012  -0.000019  -0.000001   0.000000  -0.000003
     9  H   -0.000003  -0.000000   0.000000   0.000000  -0.000000  -0.000000
    10  C   -0.000002  -0.000000   0.000000   0.000000   0.000000   0.000000
[...]
    17  O   -0.003225  -0.002792   0.000026  -0.000005   0.000030  -0.000628
    18  O   -0.000000   0.000000   0.000003   0.000004   0.000000  -0.000000
    19  H    0.000000  -0.000000  -0.000001   0.000002  -0.000000  -0.000000
    20  O    0.000371  -0.003682   0.000160   0.000001   0.000000  -0.000002
    21  C    0.000001  -0.000026  -0.000020  -0.000002   0.000000  -0.000000
    22  H   -0.000001   0.000002   0.000002  -0.000000  -0.000000   0.000000
    23  H    0.000003  -0.000041   0.000008   0.000000   0.000000  -0.000000
    24  H   -0.000034   0.000451  -0.000090   0.000004  -0.000001   0.000000
    25  C    5.300079   0.104959   0.140174  -0.138848   0.102914   0.141621
    26  C    0.104959   5.438549   0.245049   0.068008  -0.078517   0.039639
    27  C    0.140174   0.245049   5.456520  -0.078718  -0.005847  -0.115646
    28  C   -0.138848   0.068008  -0.078718   5.134938   0.163806   0.124107
    29  C    0.102914  -0.078517  -0.005847   0.163806   5.376438   0.207201
    30  C    0.141621   0.039639  -0.115646   0.124107   0.207201   5.272180
    31  H   -0.053252   0.397156  -0.043625   0.018101  -0.004044   0.014154
    32  H    0.016776  -0.004402   0.023017  -0.062526   0.417948  -0.075035
    33  H   -0.078053   0.015304  -0.004113   0.015021  -0.065454   0.450881
    34  C    0.432468  -0.107273   0.018858  -0.003246   0.020039  -0.097609
    35  H   -0.036046   0.013918  -0.000282   0.000003   0.000677  -0.022123
    36  C   -0.012596  -0.011879   0.000578   0.000118  -0.000950   0.012073
    37  H   -0.027564   0.006684   0.001194  -0.000065   0.000065  -0.000542
    38  C    0.010638  -0.000124  -0.000017  -0.000000   0.000005  -0.000167
    39  H   -0.000342   0.000079   0.000000   0.000000  -0.000000   0.000003
    40  H    0.000977  -0.000178   0.000001  -0.000000  -0.000000   0.000031
    41  O   -0.000376   0.005871  -0.114328   0.689370  -0.081459   0.005363
    42  O    0.001424   0.000014   0.000000   0.000000  -0.000000  -0.000056
    43  H   -0.000392  -0.000004   0.000001  -0.000000  -0.000001   0.000010
    44  O    0.004106  -0.089563   0.391981  -0.060279   0.004056  -0.000239
    45  C   -0.000117   0.006605  -0.044157  -0.006279   0.000846  -0.000062
    46  H   -0.000005  -0.000100   0.002530   0.000687   0.000091  -0.000005
    47  H    0.000057  -0.000471  -0.004194   0.002627   0.000076  -0.000020
    48  H   -0.000043   0.000882  -0.002086   0.002980  -0.000300  -0.000026
              31         32         33         34         35         36
     1  C   -0.001065  -0.000035   0.000006   0.000296   0.000006  -0.000040
     2  C   -0.004409   0.000005  -0.000001   0.000428  -0.000009   0.000372
     3  C    0.002058  -0.000004   0.000000  -0.005013   0.000083  -0.009910
     4  C   -0.007797   0.000014  -0.000023   0.006569  -0.002004  -0.060355
     5  C   -0.001173  -0.000059   0.000115   0.000604   0.000449  -0.013334
     6  C    0.001624   0.000059  -0.000047  -0.001488   0.000058   0.000931
     7  H   -0.000210   0.000000  -0.000000   0.000013   0.000000  -0.000036
     8  H   -0.000084  -0.000005   0.000078   0.001836   0.000538  -0.001692
     9  H    0.000002   0.000011  -0.000002  -0.000086  -0.000002  -0.000006
    10  C   -0.000018   0.000006  -0.000000   0.000014  -0.000000  -0.000004
    11  H    0.000002   0.000000  -0.000000  -0.000000   0.000000   0.000000
    12  C   -0.000022  -0.000016   0.000000  -0.000001   0.000000  -0.000000
    13  H    0.000004   0.000029  -0.000000   0.000004  -0.000000  -0.000000
    14  C    0.000000   0.000000  -0.000000  -0.000000   0.000000   0.000000
    15  H   -0.000000  -0.000000  -0.000000   0.000000  -0.000000   0.000000
    16  H   -0.000000   0.000000  -0.000000   0.000000  -0.000000  -0.000000
    17  O   -0.000191  -0.000000  -0.000019  -0.063492   0.000642   0.281493
    18  O   -0.000000  -0.000000  -0.000000  -0.000000  -0.000000   0.000000
    19  H    0.000000   0.000000   0.000000   0.000000  -0.000000  -0.000000
    20  O    0.006407  -0.000000   0.000000   0.000221  -0.000013  -0.000813
    21  C    0.000126  -0.000000   0.000000  -0.000015   0.000000  -0.000070
    22  H    0.000009   0.000000   0.000000  -0.000004   0.000000   0.000031
    23  H    0.000175   0.000000  -0.000000  -0.000001  -0.000000   0.000002
    24  H   -0.000785   0.000000  -0.000000   0.000042   0.000000  -0.000012
    25  C   -0.053252   0.016776  -0.078053   0.432468  -0.036046  -0.012596
    26  C    0.397156  -0.004402   0.015304  -0.107273   0.013918  -0.011879
    27  C   -0.043625   0.023017  -0.004113   0.018858  -0.000282   0.000578
    28  C    0.018101  -0.062526   0.015021  -0.003246   0.000003   0.000118
    29  C   -0.004044   0.417948  -0.065454   0.020039   0.000677  -0.000950
    30  C    0.014154  -0.075035   0.450881  -0.097609  -0.022123   0.012073
    31  H    0.706720   0.000052  -0.000209  -0.030465  -0.000046   0.007930
    32  H    0.000052   0.700717  -0.015771  -0.000482  -0.000012   0.000009
    33  H   -0.000209  -0.015771   0.687481  -0.016663   0.003851   0.000805
    34  C   -0.030465  -0.000482  -0.016663   5.364652   0.390155   0.248719
    35  H   -0.000046  -0.000012   0.003851   0.390155   0.688401  -0.063775
    36  C    0.007930   0.000009   0.000805   0.248719  -0.063775   4.799506
    37  H    0.000279  -0.000000  -0.000040  -0.015545   0.008307   0.352579
    38  C    0.000044  -0.000000  -0.000009  -0.046090  -0.016976   0.396643
    39  H    0.000013   0.000000  -0.000002   0.013122   0.002054  -0.027796
    40  H    0.000025  -0.000000   0.000015  -0.008403  -0.003664  -0.006037
    41  O   -0.000134   0.006406  -0.000115   0.000005   0.000000  -0.000000
    42  O   -0.000002   0.000000  -0.000052  -0.013824   0.032809  -0.041663
    43  H   -0.000004  -0.000000   0.000003  -0.003327  -0.000309  -0.005651
    44  O    0.005970  -0.000065   0.000003  -0.000005   0.000001  -0.000002
    45  C   -0.000632  -0.000061   0.000001   0.000004  -0.000000   0.000001
    46  H   -0.000312  -0.000003   0.000000  -0.000000   0.000000  -0.000000
    47  H    0.000118   0.000014   0.000000  -0.000001   0.000000   0.000000
    48  H    0.000157   0.000027  -0.000000   0.000003  -0.000000  -0.000000
              37         38         39         40         41         42
     1  C    0.000085  -0.000001  -0.000001   0.000000   0.000238   0.000000
     2  C   -0.000990   0.000012   0.000016  -0.000002  -0.000019   0.000000
     3  C    0.006325  -0.000695  -0.000069  -0.000026   0.000003  -0.000012
     4  C   -0.019363   0.006479  -0.000243   0.000078  -0.000001  -0.000475
     5  C    0.000750  -0.000151   0.000014   0.000030   0.000018   0.000121
     6  C    0.000158   0.000010  -0.000004  -0.000001  -0.000469   0.000000
     7  H    0.000043  -0.000001  -0.000000   0.000000  -0.000000  -0.000000
     8  H    0.000318  -0.000289  -0.000009   0.000010   0.000000   0.000031
     9  H   -0.000006  -0.000000   0.000000   0.000000  -0.000146  -0.000000
    10  C    0.000002  -0.000000   0.000000  -0.000000  -0.000533  -0.000000
    11  H    0.000000  -0.000000  -0.000000   0.000000  -0.000006  -0.000000
    12  C   -0.000000   0.000000  -0.000000   0.000000   0.000483   0.000000
    13  H    0.000000  -0.000000  -0.000000  -0.000000   0.004596   0.000000
    14  C    0.000000  -0.000000  -0.000000   0.000000  -0.000376   0.000000
    15  H   -0.000000  -0.000000  -0.000000  -0.000000   0.000000   0.000000
    16  H   -0.000000   0.000000   0.000000  -0.000000  -0.000006  -0.000000
    17  O   -0.031652  -0.053742   0.001614   0.004008  -0.000000  -0.005768
    18  O    0.000000  -0.000000  -0.000000  -0.000000  -0.000010   0.000000
    19  H   -0.000000   0.000000   0.000000  -0.000000   0.000011  -0.000000
    20  O    0.016832  -0.001179   0.001056  -0.000015  -0.000000  -0.000000
    21  C   -0.000234   0.000019  -0.000040   0.000002   0.000000   0.000000
    22  H   -0.000447   0.000030  -0.000019   0.000001   0.000000  -0.000000
    23  H    0.000277  -0.000001   0.000001  -0.000000  -0.000000  -0.000000
    24  H   -0.000457  -0.000016   0.000010   0.000000  -0.000000   0.000000
    25  C   -0.027564   0.010638  -0.000342   0.000977  -0.000376   0.001424
    26  C    0.006684  -0.000124   0.000079  -0.000178   0.005871   0.000014
    27  C    0.001194  -0.000017   0.000000   0.000001  -0.114328   0.000000
    28  C   -0.000065  -0.000000   0.000000  -0.000000   0.689370   0.000000
    29  C    0.000065   0.000005  -0.000000  -0.000000  -0.081459  -0.000000
    30  C   -0.000542  -0.000167   0.000003   0.000031   0.005363  -0.000056
    31  H    0.000279   0.000044   0.000013   0.000025  -0.000134  -0.000002
    32  H   -0.000000  -0.000000   0.000000  -0.000000   0.006406   0.000000
    33  H   -0.000040  -0.000009  -0.000002   0.000015  -0.000115  -0.000052
    34  C   -0.015545  -0.046090   0.013122  -0.008403   0.000005  -0.013824
    35  H    0.008307  -0.016976   0.002054  -0.003664   0.000000   0.032809
    36  C    0.352579   0.396643  -0.027796  -0.006037  -0.000000  -0.041663
    37  H    0.689772  -0.019648  -0.004321  -0.002717   0.000000   0.003782
    38  C   -0.019648   4.464263   0.354698   0.360378   0.000000   0.334683
    39  H   -0.004321   0.354698   0.716997  -0.031834  -0.000000  -0.028044
    40  H   -0.002717   0.360378  -0.031834   0.687733  -0.000000  -0.028445
    41  O    0.000000   0.000000  -0.000000  -0.000000   7.729261   0.000000
    42  O    0.003782   0.334683  -0.028044  -0.028445   0.000000   7.760155
    43  H    0.001160  -0.050078  -0.005268   0.009928   0.000000   0.333095
    44  O   -0.000052  -0.000000   0.000000   0.000000  -0.002319   0.000000
    45  C    0.000000   0.000000   0.000000   0.000000   0.006427   0.000000
    46  H    0.000001   0.000000  -0.000000  -0.000000   0.001390  -0.000000
    47  H   -0.000000  -0.000000   0.000000   0.000000   0.007489  -0.000000
    48  H   -0.000000  -0.000000   0.000000  -0.000000   0.000926  -0.000000
              43         44         45         46         47         48
     1  C    0.000002  -0.002571   0.000997   0.000096  -0.001741  -0.000045
     2  C   -0.000012   0.007473  -0.000082  -0.000145   0.000020   0.000047
     3  C    0.000221  -0.002359   0.000070   0.000044  -0.000002  -0.000013
     4  C   -0.000002   0.000244  -0.000009  -0.000003   0.000006   0.000002
     5  C    0.000050   0.000159  -0.000007   0.000002  -0.000020   0.000000
     6  C   -0.000008  -0.001878   0.000019  -0.000019   0.000146  -0.000009
     7  H    0.000000   0.000512   0.000008   0.000003  -0.000001   0.000006
     8  H    0.000567   0.000003   0.000000   0.000000  -0.000000   0.000000
     9  H   -0.000000  -0.000027   0.000004  -0.000001  -0.000002   0.000000
    10  C    0.000000   0.005990  -0.003056   0.000058   0.003591   0.000277
    11  H   -0.000000  -0.000144   0.000035   0.000043   0.000069  -0.000006
    12  C    0.000000  -0.000709   0.002310   0.000050  -0.003909  -0.000024
    13  H    0.000000   0.000194  -0.000129   0.000001  -0.000361   0.000002
    14  C   -0.000000  -0.000134   0.000268  -0.000015  -0.002424  -0.000028
    15  H   -0.000000   0.000002   0.000200   0.000005  -0.000737  -0.000005
    16  H    0.000000   0.000001  -0.000135   0.000002   0.000904   0.000001
    17  O    0.022630  -0.000000   0.000000  -0.000000   0.000000  -0.000000
    18  O   -0.000000   0.000013  -0.008162   0.000098   0.035052   0.000092
    19  H    0.000000  -0.000002   0.000296  -0.000009  -0.001363  -0.000003
    20  O   -0.000001   0.000000  -0.000000  -0.000000   0.000000   0.000000
    21  C    0.000001  -0.000198   0.000003   0.000007  -0.000001  -0.000001
    22  H   -0.000000  -0.000000   0.000000  -0.000000   0.000000  -0.000000
    23  H   -0.000000  -0.000001  -0.000000  -0.000001   0.000000  -0.000000
    24  H    0.000000   0.000841  -0.000014  -0.000015   0.000004   0.000003
    25  C   -0.000392   0.004106  -0.000117  -0.000005   0.000057  -0.000043
    26  C   -0.000004  -0.089563   0.006605  -0.000100  -0.000471   0.000882
    27  C    0.000001   0.391981  -0.044157   0.002530  -0.004194  -0.002086
    28  C   -0.000000  -0.060279  -0.006279   0.000687   0.002627   0.002980
    29  C   -0.000001   0.004056   0.000846   0.000091   0.000076  -0.000300
    30  C    0.000010  -0.000239  -0.000062  -0.000005  -0.000020  -0.000026
    31  H   -0.000004   0.005970  -0.000632  -0.000312   0.000118   0.000157
    32  H   -0.000000  -0.000065  -0.000061  -0.000003   0.000014   0.000027
    33  H    0.000003   0.000003   0.000001   0.000000   0.000000  -0.000000
    34  C   -0.003327  -0.000005   0.000004  -0.000000  -0.000001   0.000003
    35  H   -0.000309   0.000001  -0.000000   0.000000   0.000000  -0.000000
    36  C   -0.005651  -0.000002   0.000001  -0.000000   0.000000  -0.000000
    37  H    0.001160  -0.000052   0.000000   0.000001  -0.000000  -0.000000
    38  C   -0.050078  -0.000000   0.000000   0.000000  -0.000000  -0.000000
    39  H   -0.005268   0.000000   0.000000  -0.000000   0.000000   0.000000
    40  H    0.009928   0.000000   0.000000  -0.000000   0.000000  -0.000000
    41  O    0.000000  -0.002319   0.006427   0.001390   0.007489   0.000926
    42  O    0.333095   0.000000   0.000000  -0.000000  -0.000000  -0.000000
    43  H    0.516468   0.000000  -0.000000   0.000000  -0.000000   0.000000
    44  O    0.000000   7.864320   0.286805  -0.027567  -0.023241  -0.026125
    45  C   -0.000000   0.286805   4.440656   0.378013   0.360824   0.385781
    46  H    0.000000  -0.027567   0.378013   0.673129  -0.023316  -0.026681
    47  H   -0.000000  -0.023241   0.360824  -0.023316   0.651916  -0.028233
    48  H    0.000000  -0.026125   0.385781  -0.026681  -0.028233   0.675685
 Mulliken charges:
               1
     1  C    0.130003
     2  C   -0.153248
     3  C    0.186753
     4  C    0.139096
     5  C    0.004427
     6  C   -0.055845
     7  H   -0.021916
     8  H   -0.018446
     9  H   -0.016267
    10  C   -0.016576
    11  H   -0.005515
    12  C   -0.078643
    13  H    0.005890
    14  C    0.245818
    15  H   -0.002140
    16  H    0.012281
    17  O   -0.366615
    18  O   -0.330531
    19  H    0.183735
    20  O   -0.328087
    21  C    0.174742
    22  H    0.044003
    23  H    0.036104
    24  H    0.036722
    25  C    0.108553
    26  C   -0.050965
    27  C    0.144581
    28  C    0.125465
    29  C   -0.057587
    30  C    0.041662
    31  H   -0.012648
    32  H   -0.006615
    33  H    0.007010
    34  C   -0.085018
    35  H    0.003311
    36  C    0.154831
    37  H    0.035032
    38  C    0.261282
    39  H    0.008313
    40  H    0.018105
    41  O   -0.257563
    42  O   -0.347774
    43  H    0.180921
    44  O   -0.335194
    45  C    0.192730
    46  H    0.021948
    47  H    0.027123
    48  H    0.016753
 Sum of Mulliken charges =  -0.00000
 Mulliken charges with hydrogens summed into heavy atoms:
               1
     1  C    0.130003
     2  C   -0.175164
     3  C    0.186753
     4  C    0.139096
     5  C   -0.014018
     6  C   -0.072112
    10  C   -0.022091
    12  C   -0.072753
    14  C    0.255959
    17  O   -0.366615
    18  O   -0.146796
    20  O   -0.328087
    21  C    0.291572
    25  C    0.108553
    26  C   -0.063614
    27  C    0.144581
    28  C    0.125465
    29  C   -0.064203
    30  C    0.048672
    34  C   -0.081707
    36  C    0.189863
    38  C    0.287700
    41  O   -0.257563
    42  O   -0.166854
    44  O   -0.335194
    45  C    0.258554
 Electronic spatial extent (au):  <R**2>=          25633.6716
 Charge=             -0.0000 electrons
 Dipole moment (field-independent basis, Debye):
    X=             -3.9147    Y=             -1.0439    Z=              0.5669  Tot=              4.0910
 Quadrupole moment (field-independent basis, Debye-Ang):
   XX=           -114.0899   YY=           -132.7907   ZZ=           -151.9736
   XY=             22.9626   XZ=            -20.9898   YZ=              4.4746
 Traceless Quadrupole moment (field-independent basis, Debye-Ang):
   XX=             18.8615   YY=              0.1607   ZZ=            -19.0222
   XY=             22.9626   XZ=            -20.9898   YZ=              4.4746
 Octapole moment (field-independent basis, Debye-Ang**2):
  XXX=           1241.4194  YYY=           1007.5968  ZZZ=           -850.1250  XYY=            332.1056
  XXY=            324.3291  XXZ=           -128.0032  XZZ=            458.3997  YZZ=            492.5757
  YYZ=           -255.7880  XYZ=             68.5215
 Hexadecapole moment (field-independent basis, Debye-Ang**3):
 XXXX=         -10781.6872 YYYY=         -10691.1540 ZZZZ=          -4883.5809 XXXY=          -3570.1651
 XXXZ=           1494.7102 YYYX=          -2672.1592 YYYZ=           2376.4040 ZZZX=           2382.5804
 ZZZY=           3077.9304 XXYY=          -3899.8970 XXZZ=          -2639.3644 YYZZ=          -3394.4745
 XXYZ=            573.0982 YYXZ=            326.2433 ZZXY=          -1343.4542
 N-N= 2.474373565006D+03 E-N=-7.806144447974D+03  KE= 1.213731209123D+03
 1\1\GINC-R1I0N5\FOpt\RB3LYP\def2SVP\C20H22O6\HMAYES\23-Feb-2020\0\\# b
 3lyp/Def2SVP nosymm opt scf=(xqc,maxconventionalcycles=400) CPHF=Grid=
 Fine SCRF=(CPCM,Solvent=Water,Read) guess=mix EmpiricalDispersion=GD3B
 J geom=connectivity\\obabel g_dimer_0.pdb -O g_dimer.pdb --confab --co
 nf10000 --original\\0,1\C,-4.2633555943,-4.618913253,0.7324500149\C,-5
 .3349466569,-3.8270763223,1.1864863148\C,-5.3278708211,-2.4414375058,1
 .0156464433\C,-4.2458765732,-1.833215295,0.3384705497\C,-3.2218753677,
 -2.6255508656,-0.1778514966\C,-3.2206572525,-4.0067437577,0.016920231\
 H,-6.143839697,-4.3071680659,1.7356247029\H,-2.4000124475,-2.129672647
 5,-0.696962731\H,-2.3981903598,-4.6070324057,-0.3747791345\C,-4.261947
 8544,-6.0453485608,1.084561807\H,-5.2386572355,-6.4645768522,1.3545695
 172\C,-3.1858487298,-6.8432257788,1.168365636\H,-2.1821694642,-6.44646
 21901,0.9798523826\C,-3.2512746217,-8.283141638,1.5669222315\H,-4.3038
 574509,-8.571287691,1.7536724888\H,-2.8853579619,-8.9122331432,0.72938
 73041\O,-4.1790023094,-0.4681455969,0.2523517408\O,-2.4412821842,-8.47
 85280839,2.7196006782\H,-2.4131285151,-9.4267791142,2.9070361858\O,-6.
 2708145103,-1.6002184286,1.5050961347\C,-7.3363274059,-2.1389731083,2.
 2696620155\H,-7.9543562039,-1.2884759543,2.5827252593\H,-7.9500391356,
 -2.8329472194,1.6714672184\H,-6.9631126869,-2.6669696362,3.1632560952\
 C,-2.0391372096,-1.2870472093,2.486941194\C,-2.9608204004,-2.197855116
 7,3.1363916511\C,-2.6060177129,-3.4625247239,3.5014237307\C,-1.2125876
 097,-3.9403419388,3.2752890715\C,-0.2600145794,-2.9353296334,2.7795528
 706\C,-0.6402913926,-1.6903015194,2.4176321724\H,-3.9927137183,-1.8940
 053304,3.3047891446\H,0.7727157594,-3.2770985722,2.6801439313\H,0.0805
 100403,-0.9803978028,2.0043908916\C,-2.4190241282,-0.1465019388,1.8395
 001135\H,-1.6486060231,0.4645684139,1.3611197206\C,-3.8260347449,0.225
 0564358,1.49899001\H,-4.5443044303,-0.0681423682,2.2779927587\C,-4.003
 5819104,1.6988356518,1.1681643883\H,-5.0702173448,1.8697770844,0.92792
 75512\H,-3.7525752965,2.3044134571,2.0526588973\O,-0.8602025141,-5.101
 2772369,3.4859926916\O,-3.1575639247,2.1031289705,0.114266801\H,-3.313
 8971889,1.4816531235,-0.6135029747\O,-3.5682326931,-4.2589017535,4.007
 5070252\C,-3.2944688264,-5.4491907797,4.7477386629\H,-4.2432783626,-5.
 7030458061,5.2413009769\H,-2.9829059117,-6.274241147,4.094830956\H,-2.
 5239488374,-5.2791071456,5.5144261743\\Version=ES64L-G16RevB.01\HF=-12
 25.8348134\RMSD=5.790e-09\RMSF=2.708e-06\Dipole=-1.5401585,-0.4106864,
 0.2230521\Quadrupole=14.0230745,0.1194451,-14.1425195,17.0721183,-15.6
 053808,3.3267772\PG=C01 [X(C20H22O6)]\\@

 Job cpu time:       1 days  7 hours 29 minutes 30.1 seconds.
 Elapsed time:       0 days  0 hours 55 minutes 24.1 seconds.
 File lengths (MBytes):  RWF=    545 Int=      0 D2E=      0 Chk=     26 Scr=      1
 Normal termination of Gaussian 16 at Sun Feb 23 13:24:48 2020.
