 Entering Gaussian System, Link 0=g16
 Initial command:
 /nopt/nrel/apps/gaussian/g16B/g16/l1.exe "/dev/shm/Gau-65666.inp" -scrdir="/dev/shm/"
 Default is to use a total of  36 processors:
                               36 via shared-memory
                                1 via Linda
 Entering Link 1 = /nopt/nrel/apps/gaussian/g16B/g16/l1.exe PID=     65667.
  
 Copyright (c) 1988-2017, Gaussian, Inc.  All Rights Reserved.
 ...
 ******************************************
 Gaussian 16:  ES64L-G16RevB.01 20-Dec-2017
                24-Feb-2020 
 ******************************************
 %RWF=/dev/shm/,5GB,/scratch/hmayes/g_dimer_901_2489343/,-1
 %NoSave
 %Chk=/dev/shm/g_dimer_901.chk
 %CPU=0-35
 SetSPE:  set environment variable "MP_BIND" = "yes"
 SetSPE:  set environment variable "MP_BLIST" = "0,1,2,3,4,5,6,7,8,9,10,11,12,13,14,15,16,17,18,19,20,21,22,23,24,25,26,27,28,29,30,31,32,33,34,35"
 Will use up to   36 processors via shared memory.
 %Mem=72983493KB
 Default route: CacheSize=180224 MaxDisk=256GB
 ----------------------------------------------------------------------
 # b3lyp/Def2SVP nosymm opt scf=(xqc,maxconventionalcycles=400) CPHF=Gr
 id=Fine SCRF=(CPCM,Solvent=Water,Read) guess=mix EmpiricalDispersion=G
 D3BJ geom=connectivity
 ----------------------------------------------------------------------
 1/4=180224,18=20,19=15,26=3,38=1,40=2,57=2/1,3;
 2/4=180224,9=110,12=2,15=1,17=6,18=5,40=1/2;
 3/4=180224,5=43,7=101,11=2,25=1,30=1,70=2103,71=1,72=1,74=-5,124=41/1,2,3;
 4/4=180224,13=-1/1;
 5/4=180224,5=2,8=3,13=1,38=5,53=1,85=400/2,8;
 6/4=180224,7=2,8=2,9=2,10=2,28=1/1;
 7/4=180224,30=1/1,2,3,16;
 1/4=180224,18=20,19=15,26=3/3(2);
 2/4=180224,9=110,15=1/2;
 99/4=180224/99;
 2/4=180224,9=110,15=1/2;
 3/4=180224,5=43,7=101,11=2,25=1,30=1,70=2105,71=1,72=1,74=-5,124=41/1,2,3;
 4/4=180224,5=5,16=3,69=1/1;
 5/4=180224,5=2,8=3,13=1,38=5,53=1,85=400/2,8;
 7/4=180224,30=1/1,2,3,16;
 1/4=180224,18=20,19=15,26=3/3(-5);
 2/4=180224,9=110,15=1/2;
 6/4=180224,7=2,8=2,9=2,10=2,19=2,28=1/1;
 99/4=180224,9=1/99;
 -------------------------------------------------------------------
 obabel g_dimer_0.pdb -O g_dimer.pdb --confab --conf10000 --original
 -------------------------------------------------------------------
 Symbolic Z-matrix:
 Charge =  0 Multiplicity = 1
 C                    -4.861    -5.37     -0.75 
 C                    -3.719    -4.881    -1.42 
 C                    -3.177    -3.633    -1.11 
 C                    -3.773    -2.842    -0.095 
 C                    -4.9      -3.323     0.565 
 C                    -5.446    -4.568     0.242 
 H                    -3.258    -5.483    -2.2 
 H                    -5.349    -2.703     1.344 
 H                    -6.332    -4.926     0.772 
 C                    -5.458    -6.678    -1.055 
 H                    -6.538    -6.748    -0.9 
 C                    -4.825    -7.777    -1.496 
 H                    -3.744    -7.776    -1.671 
 C                    -5.501    -9.08     -1.787 
 H                    -4.725    -9.82     -2.084 
 H                    -5.934    -9.471    -0.842 
 O                    -3.302    -1.589     0.204 
 O                    -6.482    -8.927    -2.787 
 H                    -6.895    -9.787    -2.937 
 O                    -2.096    -3.096    -1.732 
 C                    -1.633    -1.817    -1.332 
 H                    -0.804    -1.565    -2.004 
 H                    -2.425    -1.057    -1.431 
 H                    -1.269    -1.829    -0.292 
 C                    -2.198    -2.354     3.422 
 C                    -3.392    -2.929     4.021 
 C                    -3.304    -3.765     5.092 
 C                    -1.988    -4.113     5.71 
 C                    -0.808    -3.498     5.09 
 C                    -0.908    -2.676     4.021 
 H                    -4.355    -2.681     3.58 
 H                     0.156    -3.746     5.542 
 H                    -0.014    -2.232     3.575 
 C                    -2.225    -1.54      2.33 
 H                    -1.273    -1.166     1.945 
 C                    -3.454    -1.125     1.574 
 H                    -4.347    -1.6       2.011 
 C                    -3.628     0.389     1.561 
 H                    -3.674     0.755     2.604 
 H                    -2.748     0.85      1.087 
 O                    -1.912    -4.864     6.678 
 O                    -4.768     0.769     0.819 
 H                    -5.49      0.185     1.096 
 O                    -4.339    -4.361     5.709 
 C                    -4.063    -5.203     6.815 
 H                    -5.03     -5.562     7.186 
 H                    -3.444    -6.062     6.511 
 H                    -3.54     -4.656     7.617 
 

 GradGradGradGradGradGradGradGradGradGradGradGradGradGradGradGradGradGrad
 Berny optimization.
 Initialization pass.
                           ----------------------------
                           !    Initial Parameters    !
                           ! (Angstroms and Degrees)  !
 --------------------------                            --------------------------
 ! Name  Definition              Value          Derivative Info.                !
 --------------------------------------------------------------------------------
 ! R1    R(1,2)                  1.4114         estimate D2E/DX2                !
 ! R2    R(1,6)                  1.4034         estimate D2E/DX2                !
 ! R3    R(1,10)                 1.4698         estimate D2E/DX2                !
 ! R4    R(2,3)                  1.3955         estimate D2E/DX2                !
 ! R5    R(2,7)                  1.0878         estimate D2E/DX2                !
 ! R6    R(3,4)                  1.4181         estimate D2E/DX2                !
 ! R7    R(3,20)                 1.3579         estimate D2E/DX2                !
 ! R8    R(4,5)                  1.3918         estimate D2E/DX2                !
 ! R9    R(4,17)                 1.3716         estimate D2E/DX2                !
 ! R10   R(5,6)                  1.3973         estimate D2E/DX2                !
 ! R11   R(5,8)                  1.0922         estimate D2E/DX2                !
 ! R12   R(6,9)                  1.0927         estimate D2E/DX2                !
 ! R13   R(10,11)                1.0933         estimate D2E/DX2                !
 ! R14   R(10,12)                1.3427         estimate D2E/DX2                !
 ! R15   R(12,13)                1.0951         estimate D2E/DX2                !
 ! R16   R(12,14)                1.4965         estimate D2E/DX2                !
 ! R17   R(14,15)                1.1126         estimate D2E/DX2                !
 ! R18   R(14,16)                1.1106         estimate D2E/DX2                !
 ! R19   R(14,18)                1.4092         estimate D2E/DX2                !
 ! R20   R(17,36)                1.4544         estimate D2E/DX2                !
 ! R21   R(18,19)                0.9657         estimate D2E/DX2                !
 ! R22   R(20,21)                1.4178         estimate D2E/DX2                !
 ! R23   R(21,22)                1.0965         estimate D2E/DX2                !
 ! R24   R(21,23)                1.1021         estimate D2E/DX2                !
 ! R25   R(21,24)                1.1019         estimate D2E/DX2                !
 ! R26   R(25,26)                1.4543         estimate D2E/DX2                !
 ! R27   R(25,30)                1.4583         estimate D2E/DX2                !
 ! R28   R(25,34)                1.3623         estimate D2E/DX2                !
 ! R29   R(26,27)                1.3615         estimate D2E/DX2                !
 ! R30   R(26,31)                1.0878         estimate D2E/DX2                !
 ! R31   R(27,28)                1.495          estimate D2E/DX2                !
 ! R32   R(27,44)                1.3443         estimate D2E/DX2                !
 ! R33   R(28,29)                1.468          estimate D2E/DX2                !
 ! R34   R(28,41)                1.2275         estimate D2E/DX2                !
 ! R35   R(29,30)                1.3522         estimate D2E/DX2                !
 ! R36   R(29,32)                1.0932         estimate D2E/DX2                !
 ! R37   R(30,33)                1.0933         estimate D2E/DX2                !
 ! R38   R(34,35)                1.0929         estimate D2E/DX2                !
 ! R39   R(34,36)                1.5014         estimate D2E/DX2                !
 ! R40   R(36,37)                1.1018         estimate D2E/DX2                !
 ! R41   R(36,38)                1.524          estimate D2E/DX2                !
 ! R42   R(38,39)                1.1063         estimate D2E/DX2                !
 ! R43   R(38,40)                1.1007         estimate D2E/DX2                !
 ! R44   R(38,42)                1.4123         estimate D2E/DX2                !
 ! R45   R(42,43)                0.9691         estimate D2E/DX2                !
 ! R46   R(44,45)                1.4172         estimate D2E/DX2                !
 ! R47   R(45,46)                1.0962         estimate D2E/DX2                !
 ! R48   R(45,47)                1.1016         estimate D2E/DX2                !
 ! R49   R(45,48)                1.1027         estimate D2E/DX2                !
 ! A1    A(2,1,6)              118.3478         estimate D2E/DX2                !
 ! A2    A(2,1,10)             122.5782         estimate D2E/DX2                !
 ! A3    A(6,1,10)             119.0737         estimate D2E/DX2                !
 ! A4    A(1,2,3)              121.241          estimate D2E/DX2                !
 ! A5    A(1,2,7)              119.4411         estimate D2E/DX2                !
 ! A6    A(3,2,7)              119.3149         estimate D2E/DX2                !
 ! A7    A(2,3,4)              119.6427         estimate D2E/DX2                !
 ! A8    A(2,3,20)             124.1333         estimate D2E/DX2                !
 ! A9    A(4,3,20)             116.2216         estimate D2E/DX2                !
 ! A10   A(3,4,5)              119.1403         estimate D2E/DX2                !
 ! A11   A(3,4,17)             121.4164         estimate D2E/DX2                !
 ! A12   A(5,4,17)             119.3673         estimate D2E/DX2                !
 ! A13   A(4,5,6)              120.9787         estimate D2E/DX2                !
 ! A14   A(4,5,8)              118.3553         estimate D2E/DX2                !
 ! A15   A(6,5,8)              120.666          estimate D2E/DX2                !
 ! A16   A(1,6,5)              120.6436         estimate D2E/DX2                !
 ! A17   A(1,6,9)              119.5778         estimate D2E/DX2                !
 ! A18   A(5,6,9)              119.7765         estimate D2E/DX2                !
 ! A19   A(1,10,11)            115.391          estimate D2E/DX2                !
 ! A20   A(1,10,12)            127.2321         estimate D2E/DX2                !
 ! A21   A(11,10,12)           117.3769         estimate D2E/DX2                !
 ! A22   A(10,12,13)           121.138          estimate D2E/DX2                !
 ! A23   A(10,12,14)           124.3024         estimate D2E/DX2                !
 ! A24   A(13,12,14)           114.5596         estimate D2E/DX2                !
 ! A25   A(12,14,15)           108.418          estimate D2E/DX2                !
 ! A26   A(12,14,16)           108.494          estimate D2E/DX2                !
 ! A27   A(12,14,18)           110.9729         estimate D2E/DX2                !
 ! A28   A(15,14,16)           105.361          estimate D2E/DX2                !
 ! A29   A(15,14,18)           111.6113         estimate D2E/DX2                !
 ! A30   A(16,14,18)           111.755          estimate D2E/DX2                !
 ! A31   A(4,17,36)            117.4454         estimate D2E/DX2                !
 ! A32   A(14,18,19)           108.1342         estimate D2E/DX2                !
 ! A33   A(3,20,21)            119.1758         estimate D2E/DX2                !
 ! A34   A(20,21,22)           106.3383         estimate D2E/DX2                !
 ! A35   A(20,21,23)           111.2263         estimate D2E/DX2                !
 ! A36   A(20,21,24)           111.3656         estimate D2E/DX2                !
 ! A37   A(22,21,23)           109.2548         estimate D2E/DX2                !
 ! A38   A(22,21,24)           109.3401         estimate D2E/DX2                !
 ! A39   A(23,21,24)           109.2487         estimate D2E/DX2                !
 ! A40   A(26,25,30)           118.0198         estimate D2E/DX2                !
 ! A41   A(26,25,34)           123.3762         estimate D2E/DX2                !
 ! A42   A(30,25,34)           118.6029         estimate D2E/DX2                !
 ! A43   A(25,26,27)           120.9106         estimate D2E/DX2                !
 ! A44   A(25,26,31)           118.0139         estimate D2E/DX2                !
 ! A45   A(27,26,31)           121.0712         estimate D2E/DX2                !
 ! A46   A(26,27,28)           121.6696         estimate D2E/DX2                !
 ! A47   A(26,27,44)           125.6982         estimate D2E/DX2                !
 ! A48   A(28,27,44)           112.6322         estimate D2E/DX2                !
 ! A49   A(27,28,29)           115.8158         estimate D2E/DX2                !
 ! A50   A(27,28,41)           121.5278         estimate D2E/DX2                !
 ! A51   A(29,28,41)           122.6559         estimate D2E/DX2                !
 ! A52   A(28,29,30)           121.9457         estimate D2E/DX2                !
 ! A53   A(28,29,32)           116.0496         estimate D2E/DX2                !
 ! A54   A(30,29,32)           122.0045         estimate D2E/DX2                !
 ! A55   A(25,30,29)           121.6264         estimate D2E/DX2                !
 ! A56   A(25,30,33)           117.7823         estimate D2E/DX2                !
 ! A57   A(29,30,33)           120.591          estimate D2E/DX2                !
 ! A58   A(25,34,35)           118.0086         estimate D2E/DX2                !
 ! A59   A(25,34,36)           125.8042         estimate D2E/DX2                !
 ! A60   A(35,34,36)           116.1723         estimate D2E/DX2                !
 ! A61   A(17,36,34)           107.4922         estimate D2E/DX2                !
 ! A62   A(17,36,37)           108.709          estimate D2E/DX2                !
 ! A63   A(17,36,38)           108.7131         estimate D2E/DX2                !
 ! A64   A(34,36,37)           110.1548         estimate D2E/DX2                !
 ! A65   A(34,36,38)           111.8602         estimate D2E/DX2                !
 ! A66   A(37,36,38)           109.823          estimate D2E/DX2                !
 ! A67   A(36,38,39)           108.9874         estimate D2E/DX2                !
 ! A68   A(36,38,40)           109.1751         estimate D2E/DX2                !
 ! A69   A(36,38,42)           111.3422         estimate D2E/DX2                !
 ! A70   A(39,38,40)           107.4977         estimate D2E/DX2                !
 ! A71   A(39,38,42)           111.8849         estimate D2E/DX2                !
 ! A72   A(40,38,42)           107.8424         estimate D2E/DX2                !
 ! A73   A(38,42,43)           106.8026         estimate D2E/DX2                !
 ! A74   A(27,44,45)           118.1426         estimate D2E/DX2                !
 ! A75   A(44,45,46)           106.6732         estimate D2E/DX2                !
 ! A76   A(44,45,47)           110.9389         estimate D2E/DX2                !
 ! A77   A(44,45,48)           111.4232         estimate D2E/DX2                !
 ! A78   A(46,45,47)           109.4948         estimate D2E/DX2                !
 ! A79   A(46,45,48)           109.5544         estimate D2E/DX2                !
 ! A80   A(47,45,48)           108.7247         estimate D2E/DX2                !
 ! D1    D(6,1,2,3)              0.0578         estimate D2E/DX2                !
 ! D2    D(6,1,2,7)           -179.3009         estimate D2E/DX2                !
 ! D3    D(10,1,2,3)           179.849          estimate D2E/DX2                !
 ! D4    D(10,1,2,7)             0.4903         estimate D2E/DX2                !
 ! D5    D(2,1,6,5)             -0.6572         estimate D2E/DX2                !
 ! D6    D(2,1,6,9)            179.8758         estimate D2E/DX2                !
 ! D7    D(10,1,6,5)           179.5441         estimate D2E/DX2                !
 ! D8    D(10,1,6,9)             0.0771         estimate D2E/DX2                !
 ! D9    D(2,1,10,11)         -149.7862         estimate D2E/DX2                !
 ! D10   D(2,1,10,12)           30.2511         estimate D2E/DX2                !
 ! D11   D(6,1,10,11)           30.0036         estimate D2E/DX2                !
 ! D12   D(6,1,10,12)         -149.9591         estimate D2E/DX2                !
 ! D13   D(1,2,3,4)              0.5965         estimate D2E/DX2                !
 ! D14   D(1,2,3,20)          -178.8197         estimate D2E/DX2                !
 ! D15   D(7,2,3,4)            179.956          estimate D2E/DX2                !
 ! D16   D(7,2,3,20)             0.5398         estimate D2E/DX2                !
 ! D17   D(2,3,4,5)             -0.6547         estimate D2E/DX2                !
 ! D18   D(2,3,4,17)          -177.4635         estimate D2E/DX2                !
 ! D19   D(20,3,4,5)           178.8067         estimate D2E/DX2                !
 ! D20   D(20,3,4,17)            1.9979         estimate D2E/DX2                !
 ! D21   D(2,3,20,21)          179.9973         estimate D2E/DX2                !
 ! D22   D(4,3,20,21)            0.5629         estimate D2E/DX2                !
 ! D23   D(3,4,5,6)              0.0633         estimate D2E/DX2                !
 ! D24   D(3,4,5,8)           -179.959          estimate D2E/DX2                !
 ! D25   D(17,4,5,6)           176.9384         estimate D2E/DX2                !
 ! D26   D(17,4,5,8)            -3.0839         estimate D2E/DX2                !
 ! D27   D(3,4,17,36)         -149.9885         estimate D2E/DX2                !
 ! D28   D(5,4,17,36)           33.2098         estimate D2E/DX2                !
 ! D29   D(4,5,6,1)              0.6025         estimate D2E/DX2                !
 ! D30   D(4,5,6,9)           -179.9315         estimate D2E/DX2                !
 ! D31   D(8,5,6,1)           -179.3747         estimate D2E/DX2                !
 ! D32   D(8,5,6,9)              0.0913         estimate D2E/DX2                !
 ! D33   D(1,10,12,13)           0.0403         estimate D2E/DX2                !
 ! D34   D(1,10,12,14)        -179.9825         estimate D2E/DX2                !
 ! D35   D(11,10,12,13)       -179.9217         estimate D2E/DX2                !
 ! D36   D(11,10,12,14)          0.0555         estimate D2E/DX2                !
 ! D37   D(10,12,14,15)       -177.0874         estimate D2E/DX2                !
 ! D38   D(10,12,14,16)        -63.1469         estimate D2E/DX2                !
 ! D39   D(10,12,14,18)         59.9983         estimate D2E/DX2                !
 ! D40   D(13,12,14,15)          2.8911         estimate D2E/DX2                !
 ! D41   D(13,12,14,16)        116.8316         estimate D2E/DX2                !
 ! D42   D(13,12,14,18)       -120.0232         estimate D2E/DX2                !
 ! D43   D(12,14,18,19)       -179.5745         estimate D2E/DX2                !
 ! D44   D(15,14,18,19)         59.3744         estimate D2E/DX2                !
 ! D45   D(16,14,18,19)        -58.3274         estimate D2E/DX2                !
 ! D46   D(4,17,36,34)          89.9875         estimate D2E/DX2                !
 ! D47   D(4,17,36,37)         -29.2312         estimate D2E/DX2                !
 ! D48   D(4,17,36,38)        -148.7514         estimate D2E/DX2                !
 ! D49   D(3,20,21,22)        -176.5645         estimate D2E/DX2                !
 ! D50   D(3,20,21,23)         -57.7146         estimate D2E/DX2                !
 ! D51   D(3,20,21,24)          64.4061         estimate D2E/DX2                !
 ! D52   D(30,25,26,27)         -1.3377         estimate D2E/DX2                !
 ! D53   D(30,25,26,31)        179.4175         estimate D2E/DX2                !
 ! D54   D(34,25,26,27)        178.2703         estimate D2E/DX2                !
 ! D55   D(34,25,26,31)         -0.9746         estimate D2E/DX2                !
 ! D56   D(26,25,30,29)          0.9116         estimate D2E/DX2                !
 ! D57   D(26,25,30,33)       -179.2768         estimate D2E/DX2                !
 ! D58   D(34,25,30,29)       -178.7155         estimate D2E/DX2                !
 ! D59   D(34,25,30,33)          1.0962         estimate D2E/DX2                !
 ! D60   D(26,25,34,35)       -179.2801         estimate D2E/DX2                !
 ! D61   D(26,25,34,36)         -0.7466         estimate D2E/DX2                !
 ! D62   D(30,25,34,35)          0.3256         estimate D2E/DX2                !
 ! D63   D(30,25,34,36)        178.8591         estimate D2E/DX2                !
 ! D64   D(25,26,27,28)          0.8846         estimate D2E/DX2                !
 ! D65   D(25,26,27,44)       -179.1542         estimate D2E/DX2                !
 ! D66   D(31,26,27,28)       -179.8937         estimate D2E/DX2                !
 ! D67   D(31,26,27,44)          0.0675         estimate D2E/DX2                !
 ! D68   D(26,27,28,29)          0.0096         estimate D2E/DX2                !
 ! D69   D(26,27,28,41)        179.7869         estimate D2E/DX2                !
 ! D70   D(44,27,28,29)       -179.9562         estimate D2E/DX2                !
 ! D71   D(44,27,28,41)         -0.179          estimate D2E/DX2                !
 ! D72   D(26,27,44,45)       -179.9348         estimate D2E/DX2                !
 ! D73   D(28,27,44,45)          0.0294         estimate D2E/DX2                !
 ! D74   D(27,28,29,30)         -0.445          estimate D2E/DX2                !
 ! D75   D(27,28,29,32)        179.7095         estimate D2E/DX2                !
 ! D76   D(41,28,29,30)        179.7805         estimate D2E/DX2                !
 ! D77   D(41,28,29,32)         -0.0649         estimate D2E/DX2                !
 ! D78   D(28,29,30,25)         -0.0287         estimate D2E/DX2                !
 ! D79   D(28,29,30,33)       -179.8351         estimate D2E/DX2                !
 ! D80   D(32,29,30,25)        179.8076         estimate D2E/DX2                !
 ! D81   D(32,29,30,33)          0.0011         estimate D2E/DX2                !
 ! D82   D(25,34,36,17)       -119.9809         estimate D2E/DX2                !
 ! D83   D(25,34,36,37)         -1.6919         estimate D2E/DX2                !
 ! D84   D(25,34,36,38)        120.752          estimate D2E/DX2                !
 ! D85   D(35,34,36,17)         58.5764         estimate D2E/DX2                !
 ! D86   D(35,34,36,37)        176.8655         estimate D2E/DX2                !
 ! D87   D(35,34,36,38)        -60.6907         estimate D2E/DX2                !
 ! D88   D(17,36,38,39)       -176.1334         estimate D2E/DX2                !
 ! D89   D(17,36,38,40)        -58.9848         estimate D2E/DX2                !
 ! D90   D(17,36,38,42)         59.9726         estimate D2E/DX2                !
 ! D91   D(34,36,38,39)        -57.5892         estimate D2E/DX2                !
 ! D92   D(34,36,38,40)         59.5594         estimate D2E/DX2                !
 ! D93   D(34,36,38,42)        178.5169         estimate D2E/DX2                !
 ! D94   D(37,36,38,39)         65.0438         estimate D2E/DX2                !
 ! D95   D(37,36,38,40)       -177.8076         estimate D2E/DX2                !
 ! D96   D(37,36,38,42)        -58.8502         estimate D2E/DX2                !
 ! D97   D(36,38,42,43)         45.8328         estimate D2E/DX2                !
 ! D98   D(39,38,42,43)        -76.4024         estimate D2E/DX2                !
 ! D99   D(40,38,42,43)        165.5836         estimate D2E/DX2                !
 ! D100  D(27,44,45,46)        178.4631         estimate D2E/DX2                !
 ! D101  D(27,44,45,47)        -62.3537         estimate D2E/DX2                !
 ! D102  D(27,44,45,48)         58.9359         estimate D2E/DX2                !
 --------------------------------------------------------------------------------
 Trust Radius=3.00D-01 FncErr=1.00D-07 GrdErr=1.00D-06 EigMax=2.50D+02 EigMin=1.00D-04
 Number of steps in this run=    241 maximum allowed number of steps=    288.
 GradGradGradGradGradGradGradGradGradGradGradGradGradGradGradGradGradGrad

                          Input orientation:                          
 ---------------------------------------------------------------------
 Center     Atomic      Atomic             Coordinates (Angstroms)
 Number     Number       Type             X           Y           Z
 ---------------------------------------------------------------------
      1          6           0       -4.861000   -5.370000   -0.750000
      2          6           0       -3.719000   -4.881000   -1.420000
      3          6           0       -3.177000   -3.633000   -1.110000
      4          6           0       -3.773000   -2.842000   -0.095000
      5          6           0       -4.900000   -3.323000    0.565000
      6          6           0       -5.446000   -4.568000    0.242000
      7          1           0       -3.258000   -5.483000   -2.200000
      8          1           0       -5.349000   -2.703000    1.344000
      9          1           0       -6.332000   -4.926000    0.772000
     10          6           0       -5.458000   -6.678000   -1.055000
     11          1           0       -6.538000   -6.748000   -0.900000
     12          6           0       -4.825000   -7.777000   -1.496000
     13          1           0       -3.744000   -7.776000   -1.671000
     14          6           0       -5.501000   -9.080000   -1.787000
     15          1           0       -4.725000   -9.820000   -2.084000
     16          1           0       -5.934000   -9.471000   -0.842000
     17          8           0       -3.302000   -1.589000    0.204000
     18          8           0       -6.482000   -8.927000   -2.787000
     19          1           0       -6.895000   -9.787000   -2.937000
     20          8           0       -2.096000   -3.096000   -1.732000
     21          6           0       -1.633000   -1.817000   -1.332000
     22          1           0       -0.804000   -1.565000   -2.004000
     23          1           0       -2.425000   -1.057000   -1.431000
     24          1           0       -1.269000   -1.829000   -0.292000
     25          6           0       -2.198000   -2.354000    3.422000
     26          6           0       -3.392000   -2.929000    4.021000
     27          6           0       -3.304000   -3.765000    5.092000
     28          6           0       -1.988000   -4.113000    5.710000
     29          6           0       -0.808000   -3.498000    5.090000
     30          6           0       -0.908000   -2.676000    4.021000
     31          1           0       -4.355000   -2.681000    3.580000
     32          1           0        0.156000   -3.746000    5.542000
     33          1           0       -0.014000   -2.232000    3.575000
     34          6           0       -2.225000   -1.540000    2.330000
     35          1           0       -1.273000   -1.166000    1.945000
     36          6           0       -3.454000   -1.125000    1.574000
     37          1           0       -4.347000   -1.600000    2.011000
     38          6           0       -3.628000    0.389000    1.561000
     39          1           0       -3.674000    0.755000    2.604000
     40          1           0       -2.748000    0.850000    1.087000
     41          8           0       -1.912000   -4.864000    6.678000
     42          8           0       -4.768000    0.769000    0.819000
     43          1           0       -5.490000    0.185000    1.096000
     44          8           0       -4.339000   -4.361000    5.709000
     45          6           0       -4.063000   -5.203000    6.815000
     46          1           0       -5.030000   -5.562000    7.186000
     47          1           0       -3.444000   -6.062000    6.511000
     48          1           0       -3.540000   -4.656000    7.617000
 ---------------------------------------------------------------------
                    Distance matrix (angstroms):
                    1          2          3          4          5
     1  C    0.000000
     2  C    1.411448   0.000000
     3  C    2.445941   1.395481   0.000000
     4  C    2.829055   2.432296   1.418140   0.000000
     5  C    2.433301   2.786099   2.422902   1.391794   0.000000
     6  C    1.403386   2.417176   2.801873   2.427256   1.397308
     7  H    2.164458   1.087807   2.148758   3.416304   3.873886
     8  H    3.425765   3.878180   3.406553   2.138649   1.092173
     9  H    2.162744   3.410961   3.894586   3.412217   2.159417
    10  C    1.469795   2.527163   3.804998   4.298339   3.767199
    11  H    2.175710   3.420943   4.587335   4.852843   4.069385
    12  C    2.520211   3.100940   4.476342   5.236767   4.908305
    13  H    2.807983   2.905968   4.219083   5.179669   5.115197
    14  C    3.905006   4.576223   5.960630   6.690403   6.247892
    15  H    4.647639   5.083960   6.451662   7.318122   7.018464
    16  H    4.240046   5.129172   6.461820   7.012244   6.391143
    17  O    4.199590   3.694392   2.433137   1.371587   2.385515
    18  O    4.407863   5.086548   6.462336   7.184203   6.718887
    19  H    5.331980   6.037972   7.418434   8.127538   7.617567
    20  O    3.712226   2.432632   1.357871   2.357247   3.631825
    21  C    4.835547   3.707727   2.393967   2.675891   4.066932
    22  H    5.701736   4.453553   3.272154   3.753661   5.144661
    23  H    4.999983   4.037020   2.702651   2.605422   3.904407
    24  H    5.064673   4.073032   2.750273   2.708319   4.018787
    25  C    5.795982   5.669580   4.809710   3.884335   4.049965
    26  C    5.556877   5.789794   5.183532   4.134512   3.791205
    27  C    6.255337   6.619957   6.204704   5.289316   4.820405
    28  C    7.180932   7.377200   6.939490   6.204812   5.964467
    29  C    7.350972   7.264070   6.638553   6.008809   6.103336
    30  C    6.756204   6.509088   5.691342   5.017692   5.319644
    31  H    5.122075   5.499500   4.928498   3.724281   3.130402
    32  H    8.209563   8.048186   7.441153   6.930370   7.107221
    33  H    7.214297   6.759752   5.823796   5.288769   5.841522
    34  C    5.577078   5.239925   4.137699   3.157868   3.667416
    35  H    6.149015   5.577398   4.363981   3.636011   4.439840
    36  C    5.039906   4.810592   3.683836   2.415660   2.817836
    37  H    4.701087   4.788643   3.904181   2.511429   2.316345
    38  C    6.326697   6.055373   4.849137   3.633555   4.048326
    39  H    7.083354   6.925251   5.770212   4.498090   4.721301
    40  H    6.821124   6.330265   5.010802   4.009815   4.724142
    41  O    8.007985   8.297177   7.985520   7.309264   6.976503
    42  O    6.337013   6.167335   5.062601   3.855482   4.102000
    43  H    5.887392   5.927145   4.979310   3.678220   3.596682
    44  O    6.558143   7.174778   6.955501   6.026121   5.277585
    45  C    7.608805   8.248469   8.127455   7.307977   6.580081
    46  H    7.940121   8.731879   8.716551   7.873462   6.990541
    47  H    7.430267   8.023163   8.003185   7.356349   6.706487
    48  H    8.500678   9.041573   8.794250   7.925896   7.304601
                    6          7          8          9         10
     6  C    0.000000
     7  H    3.404105   0.000000
     8  H    2.168418   4.965946   0.000000
     9  H    1.092731   4.311903   2.497039   0.000000
    10  C    2.476783   2.753007   4.644105   2.677930   0.000000
    11  H    2.692402   3.748150   4.776116   2.481472   1.093309
    12  C    3.701887   2.865928   5.838292   3.942471   1.342748
    13  H    4.104587   2.402891   6.115683   4.559440   2.126701
    14  C    4.947526   4.259111   7.105800   4.949218   2.511429
    15  H    5.789095   4.579860   7.924156   5.889857   3.386487
    16  H    5.045058   4.990920   7.136291   4.839465   2.841266
    17  O    3.670507   4.576504   2.594380   4.543027   5.668451
    18  O    5.408236   4.753933   7.555596   5.356956   3.017681
    19  H    6.280414   5.682900   8.420222   6.140275   3.908040
    20  O    4.157639   2.695744   4.494245   5.250011   4.959042
    21  C    4.958270   4.102878   4.664186   6.014424   6.191662
    22  H    5.967469   4.627230   5.758574   7.039977   6.978760
    23  H    4.924682   4.568887   4.354276   5.923430   6.398133
    24  H    5.023406   4.576931   4.481827   6.029716   6.453115
    25  C    5.056056   6.520822   3.790605   5.543252   7.026244
    26  C    4.602834   6.726196   3.323741   4.815351   6.639965
    27  C    5.362413   7.491789   4.399701   5.401769   7.135187
    28  C    6.485662   8.127601   5.687388   6.626851   8.024048
    29  C    6.794045   7.942722   5.940137   7.155340   8.336422
    30  C    6.201125   7.218212   5.185512   6.711056   7.904700
    31  H    3.986639   6.516365   2.447083   4.102855   6.218991
    32  H    7.755520   8.637773   7.001148   8.138762   9.145164
    33  H    6.787666   7.378561   5.801847   7.418327   8.416707
    34  C    4.889107   6.093869   3.476225   5.546153   6.950508
    35  H    5.646923   6.305374   4.397425   6.411475   7.542968
    36  C    4.194823   5.768332   2.476693   4.834634   6.462466
    37  H    3.625767   5.830620   1.632637   4.066648   6.034962
    38  C    5.442126   6.983008   3.545334   6.015261   7.754666
    39  H    6.087147   7.884422   4.043636   6.534137   8.474693
    40  H    6.111297   7.153416   4.410789   6.804885   8.282696
    41  O    7.348392   9.000764   6.703316   7.377064   8.698506
    42  O    5.410747   7.105066   3.559209   5.906042   7.710109
    43  H    4.829313   6.926158   2.902056   5.190016   7.192259
    44  O    5.581791   8.061000   4.777268   5.353993   7.236874
    45  C    6.746869   9.055200   6.151068   6.460878   8.127641
    46  H    7.027107   9.552132   6.511882   6.575644   8.327228
    47  H    6.748363   8.732202   6.450565   6.524351   7.853662
    48  H    7.617822   9.855808   6.814486   7.397445   9.108830
                   11         12         13         14         15
    11  H    0.000000
    12  C    2.085288   0.000000
    13  H    3.075331   1.095074   0.000000
    14  C    2.701918   1.496485   2.191100   0.000000
    15  H    3.758458   2.128284   2.304532   1.112648   0.000000
    16  H    2.789787   2.127730   2.890738   1.110583   1.768063
    17  O    6.189167   6.595519   6.479966   8.056970   8.660787
    18  O    2.883045   2.394751   3.172838   1.409174   2.092536
    19  H    3.675913   3.225133   3.946603   1.940512   2.331866
    20  O    5.810395   5.423550   4.962059   6.885151   7.228259
    21  C    6.968530   6.762940   6.330950   8.241336   8.612432
    22  H    7.807756   7.417240   6.879754   8.864769   9.139238
    23  H    7.041748   7.136009   6.851447   8.599828   9.083313
    24  H    7.233850   7.033737   6.587418   8.527711   8.888829
    25  C    7.538071   7.777968   7.597819   9.125928   9.614724
    26  C    6.978418   7.482906   7.484396   8.718689   9.302354
    27  C    7.433782   7.862018   7.875271   8.966419   9.496170
    28  C    8.446172   8.567374   8.424979   9.654909  10.040292
    29  C    8.903679   8.821651   8.522470  10.023777  10.333288
    30  C    8.514360   8.473510   8.151795   9.789777  10.142842
    31  H    6.432447   7.208044   7.342026   8.430018   9.120478
    32  H    9.763248   9.518023   9.136644  10.684917  10.902913
    33  H    9.109471   8.922320   8.495255  10.283643  10.573341
    34  C    7.493873   7.765207   7.563270   9.194208   9.710396
    35  H    8.183702   8.256059   7.929275   9.717778  10.150904
    36  C    6.873853   7.453432   7.406074   8.875165   9.518373
    37  H    6.306846   7.119190   7.215519   8.467994   9.191317
    38  C    8.090821   8.801228   8.782170  10.216614  10.895555
    39  H    8.762164   9.535713   9.542457  10.924561  11.615187
    40  H    8.720199   9.241804   9.110788  10.697840  11.305427
    41  O    9.076090   9.153437   9.030048  10.114930  10.452155
    42  O    7.911583   8.854185   8.959113  10.214271  10.979808
    43  H    7.290323   8.399651   8.607109   9.703197  10.526046
    44  O    7.362897   7.988572   8.153567   8.933601   9.522632
    45  C    8.248265   8.733776   8.873234   9.544285  10.047245
    46  H    8.310479   8.962442   9.219655   9.649502  10.205709
    47  H    8.060171   8.304242   8.364982   9.066222   9.467711
    48  H    9.268428   9.717954   9.800151  10.576035  11.053530
                   16         17         18         19         20
    16  H    0.000000
    17  O    8.375408   0.000000
    18  O    2.092669   8.538426   0.000000
    19  H    2.326457   9.485923   0.965748   0.000000
    20  O    7.494196   2.733785   7.372285   8.321773   0.000000
    21  C    8.793317   2.279658   8.728226   9.684295   1.417819
    22  H    9.495893   3.334043   9.330156  10.274826   2.021685
    23  H    9.135393   1.930124   8.957393   9.922794   2.087190
    24  H    8.970222   2.106349   9.153251  10.098399   2.088736
    25  C    9.098960   3.487057  10.005432  10.851183   5.208136
    26  C    8.538636   4.046380   9.585039  10.378677   5.899535
    27  C    8.642204   5.350470   9.941055  10.659484   6.962313
    28  C    9.338511   6.197839  10.750332  11.447425   7.511945
    29  C    9.856025   5.808383  11.122745  11.875850   6.954152
    30  C    9.750973   4.634900  10.793208  11.611385   5.889376
    31  H    8.255388   3.701169   9.169260   9.970864   5.787283
    32  H   10.517565   6.716000  11.843903  12.573930   7.642322
    33  H   10.342118   4.752687  11.275331  12.117439   5.765888
    34  C    9.312305   2.383738   9.943516  10.842656   4.351738
    35  H    9.922969   2.706816  10.476575  11.391332   4.233504
    36  C    9.035661   1.454407   9.437071  10.354702   4.081500
    37  H    8.521198   2.087437   9.014652   9.899595   4.616824
    38  C   10.407288   2.420787  10.669502  11.595528   5.033498
    39  H   11.025135   3.375310  11.431923  12.337394   6.010090
    40  H   10.972451   2.652419  11.159765  12.105204   4.893136
    41  O    9.692850   7.387178  11.268500  11.895984   8.595800
    42  O   10.439161   2.843861  10.485869  11.404420   5.346533
    43  H    9.858566   2.954672   9.954411  10.848037   5.502888
    44  O    8.460007   6.250150   9.880426  10.522734   7.873992
    45  C    8.963599   7.572677  10.579137  11.141579   9.019964
    46  H    8.974758   8.216997  10.625077  11.126724   9.706711
    47  H    8.478679   7.733443  10.192668  10.726124   8.863482
    48  H   10.023480   8.025939  11.624974  12.205331   9.587624
                   21         22         23         24         25
    21  C    0.000000
    22  H    1.096508   0.000000
    23  H    1.102118   1.792773   0.000000
    24  H    1.101926   1.793562   1.797120   0.000000
    25  C    4.817480   5.657494   5.028454   3.864254   0.000000
    26  C    5.743277   6.697676   5.844979   4.931440   1.454325
    27  C    6.917711   7.838572   7.117263   6.072625   2.450114
    28  C    7.415349   8.209748   7.779716   6.462014   2.893635
    29  C    6.689430   7.352642   7.148189   5.653672   2.454192
    30  C    5.469745   6.127460   5.886149   4.410181   1.458282
    31  H    5.681859   6.710895   5.610026   5.024110   2.187360
    32  H    7.360261   7.913310   7.906643   6.304052   3.460257
    33  H    5.183824   5.673996   5.679224   4.085477   2.192749
    34  C    3.719871   4.561077   3.797158   2.805769   1.362273
    35  H    3.360376   3.996719   3.568804   2.333185   2.109146
    36  C    3.498534   4.474169   3.177025   2.958344   2.550114
    37  H    4.311442   5.354839   3.979485   3.851017   2.679111
    38  C    4.149206   4.949982   3.534146   3.730685   3.610024
    39  H    5.125716   5.903640   4.596147   4.565950   3.537454
    40  H    3.769307   4.377858   3.175107   3.356505   4.002542
    41  O    8.574506   9.353512   8.972865   7.629258   4.121096
    42  O    4.598089   5.397238   3.726449   4.497435   4.809744
    43  H    4.977915   5.884819   4.162033   4.878481   4.763828
    44  O    7.960531   8.933320   8.096877   7.200550   3.720524
    45  C    9.151148  10.081215   9.373840   8.348638   4.807024
    46  H    9.905602  10.876175  10.066466   9.165200   5.699051
    47  H    9.100132   9.984880   9.442656   8.302393   4.984346
    48  H    9.580249  10.469175   9.801139   8.700670   4.969728
                   26         27         28         29         30
    26  C    0.000000
    27  C    1.361500   0.000000
    28  C    2.495154   1.494953   0.000000
    29  C    2.853695   2.510241   1.468000   0.000000
    30  C    2.496851   2.841439   2.466595   1.352200   0.000000
    31  H    1.087821   2.136774   3.491449   3.940660   3.475099
    32  H    3.945787   3.489192   2.181662   1.093208   2.142531
    33  H    3.477874   3.933888   3.463100   2.128008   1.093292
    34  C    2.480059   3.707224   4.254515   3.668685   2.425792
    35  H    3.450812   4.558878   4.834383   3.942775   2.592894
    36  C    3.040735   4.400957   5.308841   4.999470   3.856880
    37  H    2.591981   3.907382   5.055952   5.060352   4.126087
    38  C    4.137200   5.461561   6.338123   5.959447   4.779563
    39  H    3.957179   5.172760   6.015584   5.699312   4.629299
    40  H    4.827415   6.135747   6.825035   6.220347   4.942331
    41  O    3.604757   2.379256   1.227518   2.367808   3.585388
    42  O    5.081475   6.399920   7.448772   7.220134   6.084442
    43  H    4.759645   6.029022   7.212892   7.172005   6.142937
    44  O    2.407650   1.344295   2.364044   3.687261   4.178556
    45  C    3.664390   2.369104   2.591283   4.059270   4.913877
    46  H    4.430909   3.254708   3.678579   5.145736   5.944502
    47  H    4.002311   2.703585   2.561277   3.942313   4.908808
    48  H    3.991948   2.687974   2.517976   3.897501   4.876376
                   31         32         33         34         35
    31  H    0.000000
    32  H    5.033169   0.000000
    33  H    4.364162   2.488008   0.000000
    34  C    2.720530   4.566458   2.630097   0.000000
    35  H    3.803574   4.651543   2.319124   1.092888   0.000000
    36  C    2.693877   5.970491   4.130744   1.501400   2.212709
    37  H    1.905357   6.111488   4.649775   2.146682   3.105187
    38  C    3.745636   6.874972   4.897635   2.506155   2.848071
    39  H    3.636266   6.599981   4.822925   2.727948   3.144729
    40  H    4.611449   7.028759   4.812860   2.744208   2.641220
    41  O    4.509029   2.610947   4.489815   5.481975   6.040266
    42  O    4.438039   8.181548   6.261154   3.752526   4.150557
    43  H    3.958843   8.191275   6.478727   3.893405   4.508779
    44  O    2.712065   4.539949   5.271833   4.883101   5.811719
    45  C    4.112295   4.641480   5.976524   6.075445   6.913636
    46  H    4.664657   5.735433   7.020575   6.901105   7.804354
    47  H    4.566382   4.388943   5.920633   6.278153   7.037927
    48  H    4.567518   4.335221   5.886104   6.276229   7.034982
                   36         37         38         39         40
    36  C    0.000000
    37  H    1.101836   0.000000
    38  C    1.524021   2.162309   0.000000
    39  H    2.154925   2.520040   1.106310   0.000000
    40  H    2.153191   3.068074   1.100726   1.779829   0.000000
    41  O    6.512196   6.193853   7.531424   7.160676   8.037908
    42  O    2.425666   2.685194   1.412290   2.093623   2.039310
    43  H    2.467768   2.308657   1.929996   2.428337   2.821501
    44  O    5.324767   4.615018   6.346174   6.021354   7.144836
    45  C    6.668512   6.011712   7.685324   7.306272   8.436707
    46  H    7.325660   6.553210   8.307866   7.920729   9.138877
    47  H    6.981980   6.401160   8.133373   7.860600   8.813622
    48  H    6.999515   6.435652   7.882570   7.377469   8.578123
                   41         42         43         44         45
    41  O    0.000000
    42  O    8.614831   0.000000
    43  H    8.333859   0.969056   0.000000
    44  O    2.661259   7.100214   6.578046   0.000000
    45  C    2.181855   8.491986   7.985852   1.417172   0.000000
    46  H    3.235304   8.982700   8.386162   2.025194   1.096180
    47  H    1.951952   8.989683   8.516651   2.082698   1.101571
    48  H    1.890865   8.783588   8.352318   2.089471   1.102698
                   46         47         48
    46  H    0.000000
    47  H    1.794720   0.000000
    48  H    1.796301   1.791449   0.000000
 Symmetry turned off by external request.
 Stoichiometry    C20H22O6
 Framework group  C1[X(C20H22O6)]
 Deg. of freedom   138
 Full point group                 C1      NOp   1
 Rotational constants (GHZ):           0.2034626           0.1175266           0.0867128
 Standard basis: def2SVP (5D, 7F)
   474 basis functions,   804 primitive gaussians,   500 cartesian basis functions
    95 alpha electrons       95 beta electrons
       nuclear repulsion energy      2269.5045075294 Hartrees.
 NAtoms=   48 NActive=   48 NUniq=   48 SFac= 1.00D+00 NAtFMM=   60 NAOKFM=F Big=F
 Integral buffers will be    131072 words long.
 Raffenetti 2 integral format.
 Two-electron integral symmetry is turned off.
 Nuclear repulsion after empirical dispersion term =     2269.4060983964 Hartrees.
 Using the following non-standard input for PCM:
 PDENS=7.0
 --- end of non-standard input.
 ------------------------------------------------------------------------------
 Polarizable Continuum Model (PCM)
 =================================
 Model                : C-PCM.
 Atomic radii         : UFF (Universal Force Field).
 Polarization charges : Total charges.
 Charge compensation  : None.
 Solution method      : On-the-fly selection.
 Cavity type          : Scaled VdW (van der Waals Surface) (Alpha=1.100).
 Cavity algorithm     : GePol (No added spheres)
                        Default sphere list used, NSphG=   48.
                        Lebedev-Laikov grids with approx.  7.0 points / Ang**2.
                        Smoothing algorithm: York/Karplus (Gamma=1.0000).
                        Polarization charges: spherical gaussians, with
                                              point-specific exponents (IZeta= 3).
                        Self-potential: point-specific (ISelfS= 7).
                        Self-field    : sphere-specific E.n sum rule (ISelfD= 2).
 1st derivatives      : Analytical E(r).r(x)/FMM algorithm (CHGder, D1EAlg=3).
                        Cavity 1st derivative terms included.
 Solvent              : Water, Eps=  78.355300 Eps(inf)=   1.777849
 ------------------------------------------------------------------------------
 One-electron integrals computed using PRISM.
   1 Symmetry operations used in ECPInt.
 ECPInt:  NShTT=   24753 NPrTT=   89657 LenC2=   20511 LenP2D=   49556.
 LDataN:  DoStor=T MaxTD1= 4 Len=   56
 NBasis=   474 RedAO= T EigKep=  2.02D-04  NBF=   474
 NBsUse=   474 1.00D-06 EigRej= -1.00D+00 NBFU=   474
 ExpMin= 1.22D-01 ExpMax= 2.27D+03 ExpMxC= 3.41D+02 IAcc=3 IRadAn=         5 AccDes= 0.00D+00
 Harris functional with IExCor=  402 and IRadAn=       5 diagonalized for initial guess.
 HarFok:  IExCor=  402 AccDes= 0.00D+00 IRadAn=         5 IDoV= 1 UseB2=F ITyADJ=14
 ICtDFT=  3500011 ScaDFX=  1.000000  1.000000  1.000000  1.000000
 FoFCou: FMM=F IPFlag=           0 FMFlag=      100000 FMFlg1=           0
         NFxFlg=           0 DoJE=T BraDBF=F KetDBF=T FulRan=T
         wScrn=  0.000000 ICntrl=       500 IOpCl=  0 I1Cent=   200000004 NGrid=           0
         NMat0=    1 NMatS0=      1 NMatT0=    0 NMatD0=    1 NMtDS0=    0 NMtDT0=    0
 Symmetry not used in FoFCou.
 Mixing orbitals, IMix= 1 IMixAn=  0 NRI=1 NE=   95 Coef=  7.07106781D-01  7.07106781D-01
 Requested convergence on RMS density matrix=1.00D-08 within 400 cycles.
 Requested convergence on MAX density matrix=1.00D-06.
 Requested convergence on             energy=1.00D-06.
 No special actions if energy rises.
 Inv3:  Mode=1 IEnd=    80000688.
 Iteration    1 A*A^-1 deviation from unit magnitude is 4.77D-15 for   1540.
 Iteration    1 A*A^-1 deviation from orthogonality  is 2.61D-15 for   3349   2795.
 Iteration    1 A^-1*A deviation from unit magnitude is 4.77D-15 for   1540.
 Iteration    1 A^-1*A deviation from orthogonality  is 2.44D-15 for   3392   1392.
 Error on total polarization charges =  0.01301
 SCF Done:  E(RB3LYP) =  -1225.74490868     A.U. after   14 cycles
            NFock= 14  Conv=0.63D-08     -V/T= 2.0095
 QCSCF skips out because SCF is already converged.

 **********************************************************************

            Population analysis using the SCF Density.

 **********************************************************************

 Alpha  occ. eigenvalues --  -19.17551 -19.16730 -19.16268 -19.13873 -19.12892
 Alpha  occ. eigenvalues --  -19.12500 -10.28175 -10.26479 -10.26132 -10.25798
 Alpha  occ. eigenvalues --  -10.25244 -10.24364 -10.23278 -10.22529 -10.22477
 Alpha  occ. eigenvalues --  -10.22419 -10.22001 -10.21864 -10.20365 -10.20265
 Alpha  occ. eigenvalues --  -10.20230 -10.19561 -10.19494 -10.19386 -10.19208
 Alpha  occ. eigenvalues --  -10.18758  -1.08135  -1.07600  -1.04825  -1.03135
 Alpha  occ. eigenvalues --   -1.01552  -1.00781  -0.86581  -0.85705  -0.80780
 Alpha  occ. eigenvalues --   -0.78930  -0.76963  -0.75476  -0.75275  -0.73243
 Alpha  occ. eigenvalues --   -0.69197  -0.68529  -0.66981  -0.66110  -0.64452
 Alpha  occ. eigenvalues --   -0.62377  -0.60690  -0.59608  -0.57873  -0.55662
 Alpha  occ. eigenvalues --   -0.55158  -0.53294  -0.52138  -0.51664  -0.51241
 Alpha  occ. eigenvalues --   -0.50752  -0.49980  -0.49313  -0.48304  -0.47769
 Alpha  occ. eigenvalues --   -0.47656  -0.46303  -0.45382  -0.45183  -0.44405
 Alpha  occ. eigenvalues --   -0.44114  -0.43736  -0.43157  -0.43028  -0.41959
 Alpha  occ. eigenvalues --   -0.41046  -0.40740  -0.39915  -0.39795  -0.38674
 Alpha  occ. eigenvalues --   -0.38089  -0.37598  -0.37093  -0.36674  -0.36417
 Alpha  occ. eigenvalues --   -0.36358  -0.35648  -0.34203  -0.33622  -0.33354
 Alpha  occ. eigenvalues --   -0.32802  -0.29337  -0.28549  -0.28104  -0.27267
 Alpha  occ. eigenvalues --   -0.26737  -0.24218  -0.24148  -0.22710  -0.20989
 Alpha virt. eigenvalues --   -0.10308  -0.03989  -0.01401  -0.00582   0.01773
 Alpha virt. eigenvalues --    0.03398   0.04254   0.06091   0.06596   0.07274
 Alpha virt. eigenvalues --    0.08187   0.08526   0.09000   0.09766   0.10114
 Alpha virt. eigenvalues --    0.10783   0.11330   0.11513   0.12128   0.12722
 Alpha virt. eigenvalues --    0.12993   0.13481   0.13550   0.13704   0.14644
 Alpha virt. eigenvalues --    0.14972   0.15393   0.16510   0.17126   0.17923
 Alpha virt. eigenvalues --    0.18200   0.18660   0.19620   0.20618   0.21506
 Alpha virt. eigenvalues --    0.22245   0.23284   0.23685   0.24864   0.25432
 Alpha virt. eigenvalues --    0.25766   0.26928   0.27391   0.28541   0.29013
 Alpha virt. eigenvalues --    0.29852   0.30528   0.30688   0.31260   0.32808
 Alpha virt. eigenvalues --    0.33030   0.34469   0.34776   0.36000   0.37871
 Alpha virt. eigenvalues --    0.38381   0.38622   0.39505   0.40100   0.42162
 Alpha virt. eigenvalues --    0.42750   0.43272   0.43614   0.44297   0.44380
 Alpha virt. eigenvalues --    0.45112   0.45628   0.46292   0.46806   0.47396
 Alpha virt. eigenvalues --    0.48022   0.48572   0.48847   0.49114   0.50024
 Alpha virt. eigenvalues --    0.50420   0.51313   0.51583   0.52218   0.53084
 Alpha virt. eigenvalues --    0.53387   0.53532   0.54176   0.55047   0.55444
 Alpha virt. eigenvalues --    0.56634   0.57205   0.57937   0.58789   0.58949
 Alpha virt. eigenvalues --    0.59745   0.59923   0.60857   0.61709   0.62385
 Alpha virt. eigenvalues --    0.62549   0.62751   0.62920   0.63689   0.64149
 Alpha virt. eigenvalues --    0.64426   0.64632   0.64946   0.65070   0.65465
 Alpha virt. eigenvalues --    0.65845   0.66133   0.66371   0.66784   0.67153
 Alpha virt. eigenvalues --    0.67566   0.68058   0.68316   0.68717   0.68749
 Alpha virt. eigenvalues --    0.69310   0.70506   0.70799   0.71267   0.71343
 Alpha virt. eigenvalues --    0.72857   0.72914   0.73592   0.74661   0.74798
 Alpha virt. eigenvalues --    0.75754   0.76067   0.77419   0.78159   0.78585
 Alpha virt. eigenvalues --    0.78955   0.81066   0.81399   0.82483   0.82899
 Alpha virt. eigenvalues --    0.84119   0.85070   0.85562   0.87716   0.89257
 Alpha virt. eigenvalues --    0.89506   0.91082   0.93460   0.93958   0.94688
 Alpha virt. eigenvalues --    0.97264   0.97652   0.99043   0.99533   1.00453
 Alpha virt. eigenvalues --    1.01326   1.02473   1.04035   1.04322   1.06221
 Alpha virt. eigenvalues --    1.06461   1.07765   1.10083   1.10482   1.11200
 Alpha virt. eigenvalues --    1.11574   1.12209   1.12805   1.14904   1.16465
 Alpha virt. eigenvalues --    1.18451   1.19208   1.20702   1.21612   1.21967
 Alpha virt. eigenvalues --    1.23070   1.24455   1.24697   1.24917   1.26304
 Alpha virt. eigenvalues --    1.27183   1.27664   1.28172   1.29205   1.29965
 Alpha virt. eigenvalues --    1.31417   1.32364   1.34294   1.36613   1.37063
 Alpha virt. eigenvalues --    1.39755   1.40143   1.41439   1.41588   1.43862
 Alpha virt. eigenvalues --    1.44721   1.45399   1.45954   1.46763   1.47559
 Alpha virt. eigenvalues --    1.48138   1.48363   1.49141   1.50278   1.55532
 Alpha virt. eigenvalues --    1.58166   1.58247   1.59081   1.59575   1.60278
 Alpha virt. eigenvalues --    1.61671   1.62728   1.63229   1.64250   1.64789
 Alpha virt. eigenvalues --    1.66627   1.67018   1.67337   1.68068   1.68448
 Alpha virt. eigenvalues --    1.70782   1.71291   1.71796   1.72040   1.72900
 Alpha virt. eigenvalues --    1.73249   1.73593   1.73870   1.74303   1.74627
 Alpha virt. eigenvalues --    1.74846   1.75718   1.76361   1.76664   1.77359
 Alpha virt. eigenvalues --    1.78071   1.78160   1.79313   1.79725   1.80123
 Alpha virt. eigenvalues --    1.81041   1.81321   1.82090   1.82616   1.82732
 Alpha virt. eigenvalues --    1.83977   1.84850   1.85066   1.85948   1.86146
 Alpha virt. eigenvalues --    1.87804   1.88375   1.88984   1.89568   1.89942
 Alpha virt. eigenvalues --    1.90568   1.90629   1.91590   1.92370   1.92954
 Alpha virt. eigenvalues --    1.94467   1.95299   1.96508   1.97780   1.98031
 Alpha virt. eigenvalues --    1.98717   1.99391   2.01143   2.01799   2.02208
 Alpha virt. eigenvalues --    2.04247   2.04896   2.06510   2.07987   2.08264
 Alpha virt. eigenvalues --    2.09351   2.11552   2.11827   2.12622   2.13022
 Alpha virt. eigenvalues --    2.13833   2.14829   2.16292   2.17221   2.18643
 Alpha virt. eigenvalues --    2.19792   2.20169   2.20735   2.22328   2.22544
 Alpha virt. eigenvalues --    2.23544   2.24164   2.24635   2.25621   2.26034
 Alpha virt. eigenvalues --    2.26340   2.28531   2.30869   2.31430   2.32394
 Alpha virt. eigenvalues --    2.33215   2.34272   2.35497   2.36463   2.37535
 Alpha virt. eigenvalues --    2.37954   2.39090   2.39566   2.42054   2.42461
 Alpha virt. eigenvalues --    2.45202   2.47269   2.47830   2.49066   2.50978
 Alpha virt. eigenvalues --    2.51258   2.52441   2.53506   2.55902   2.57164
 Alpha virt. eigenvalues --    2.59161   2.60812   2.61757   2.62921   2.64411
 Alpha virt. eigenvalues --    2.65947   2.66573   2.67719   2.68542   2.70281
 Alpha virt. eigenvalues --    2.70709   2.71939   2.73200   2.73675   2.76949
 Alpha virt. eigenvalues --    2.78647   2.80312   2.80552   2.82231   2.83797
 Alpha virt. eigenvalues --    2.84188   2.84529   2.84939   2.86555   2.86827
 Alpha virt. eigenvalues --    2.89116   2.89228   2.89949   2.91361   2.91734
 Alpha virt. eigenvalues --    2.92388   2.95978   2.96417   3.00279   3.03472
 Alpha virt. eigenvalues --    3.04693   3.05602   3.06387   3.06697   3.07203
 Alpha virt. eigenvalues --    3.08176   3.08379   3.10308   3.10845   3.13423
 Alpha virt. eigenvalues --    3.13673   3.15606   3.20803   3.23222   3.27251
 Alpha virt. eigenvalues --    3.29621   3.32513   3.34662   3.35570   3.39252
 Alpha virt. eigenvalues --    3.42447   3.45786   3.51916   3.56504   3.58707
 Alpha virt. eigenvalues --    3.69281   3.72617   3.75769   3.76345
          Condensed to atoms (all electrons):
               1          2          3          4          5          6
     1  C    5.320121   0.195799   0.165325  -0.199250   0.145769   0.187343
     2  C    0.195799   5.364231   0.216084   0.107091  -0.144536   0.078496
     3  C    0.165325   0.216084   5.121161   0.070404   0.128123  -0.168088
     4  C   -0.199250   0.107091   0.070404   5.477319   0.097149   0.161914
     5  C    0.145769  -0.144536   0.128123   0.097149   5.385022   0.142456
     6  C    0.187343   0.078496  -0.168088   0.161914   0.142456   5.329597
     7  H   -0.084806   0.454512  -0.088679   0.025989  -0.005028   0.019040
     8  H    0.017103  -0.002883   0.017159  -0.086582   0.456768  -0.069002
     9  H   -0.085618   0.016436  -0.002516   0.017956  -0.072994   0.454421
    10  C    0.353718  -0.093945   0.018246  -0.001755   0.016641  -0.097871
    11  H   -0.051527   0.010384  -0.000408  -0.000039   0.001094  -0.015823
    12  C   -0.048950  -0.021741   0.000773   0.000039  -0.001061   0.014549
    13  H   -0.024667   0.006327   0.000259  -0.000073   0.000062  -0.000380
    14  C    0.008226   0.000223  -0.000013   0.000000   0.000008  -0.000438
    15  H   -0.000389   0.000080  -0.000002   0.000000   0.000000  -0.000012
    16  H   -0.000434  -0.000047   0.000002  -0.000000  -0.000002   0.000087
    17  O   -0.000063   0.002491  -0.076869   0.336858  -0.069594   0.005486
    18  O   -0.000012   0.000012  -0.000000  -0.000000   0.000000  -0.000023
    19  H    0.000025   0.000000   0.000000   0.000000  -0.000000   0.000001
    20  O    0.004100  -0.063365   0.394529  -0.085614   0.009952  -0.000521
    21  C   -0.000157   0.005347  -0.027167  -0.019749  -0.000300   0.000166
    22  H    0.000016  -0.000825  -0.000253   0.002063   0.000202  -0.000011
    23  H   -0.000015   0.000840   0.000024  -0.004394  -0.001530   0.000038
    24  H    0.000001   0.000846   0.002145  -0.000890  -0.000907   0.000022
    25  C   -0.000003   0.000011  -0.000177   0.002809   0.002405  -0.000271
    26  C   -0.000035   0.000001  -0.000127  -0.000438   0.000462   0.000092
    27  C    0.000000   0.000000   0.000011  -0.000136  -0.000290  -0.000041
    28  C   -0.000000   0.000000  -0.000001   0.000001   0.000000   0.000002
    29  C    0.000000  -0.000000   0.000001  -0.000009  -0.000009  -0.000000
    30  C   -0.000001   0.000000  -0.000010  -0.000072   0.000003   0.000001
    31  H   -0.000008  -0.000006  -0.000092  -0.000519   0.004171   0.000488
    32  H   -0.000000  -0.000000   0.000000   0.000000   0.000000  -0.000000
    33  H   -0.000000  -0.000000  -0.000001   0.000012   0.000001   0.000000
    34  C    0.000064  -0.000069   0.001905  -0.000159  -0.006370  -0.000308
    35  H   -0.000003   0.000003   0.000054  -0.000793  -0.000068   0.000025
    36  C   -0.000191   0.000233   0.002532  -0.034164  -0.013808   0.002167
    37  H   -0.000144   0.000035  -0.000993  -0.018012  -0.006912   0.000280
    38  C    0.000003   0.000007  -0.000446   0.004515   0.000870  -0.000069
    39  H    0.000000  -0.000001   0.000020   0.000315  -0.000072  -0.000006
    40  H   -0.000001   0.000002  -0.000043  -0.001199  -0.000042   0.000005
    41  O    0.000000  -0.000000   0.000000   0.000000   0.000000  -0.000000
    42  O    0.000001  -0.000002   0.000020   0.001826  -0.000498  -0.000030
    43  H   -0.000002  -0.000000   0.000016  -0.000064  -0.000339   0.000045
    44  O    0.000000   0.000000   0.000000   0.000000  -0.000004   0.000002
    45  C    0.000000  -0.000000   0.000000  -0.000000  -0.000000  -0.000000
    46  H    0.000000  -0.000000   0.000000  -0.000000   0.000000  -0.000000
    47  H   -0.000000   0.000000  -0.000000   0.000000   0.000000   0.000000
    48  H   -0.000000   0.000000  -0.000000   0.000000  -0.000000   0.000000
               7          8          9         10         11         12
     1  C   -0.084806   0.017103  -0.085618   0.353718  -0.051527  -0.048950
     2  C    0.454512  -0.002883   0.016436  -0.093945   0.010384  -0.021741
     3  C   -0.088679   0.017159  -0.002516   0.018246  -0.000408   0.000773
     4  C    0.025989  -0.086582   0.017956  -0.001755  -0.000039   0.000039
     5  C   -0.005028   0.456768  -0.072994   0.016641   0.001094  -0.001061
     6  C    0.019040  -0.069002   0.454421  -0.097871  -0.015823   0.014549
     7  H    0.718303   0.000018  -0.000278  -0.021639   0.000144   0.006515
     8  H    0.000018   0.712950  -0.014946  -0.000346   0.000004   0.000005
     9  H   -0.000278  -0.014946   0.713874  -0.016584   0.004675   0.000830
    10  C   -0.021639  -0.000346  -0.016584   5.084516   0.418566   0.410700
    11  H    0.000144   0.000004   0.004675   0.418566   0.698785  -0.072605
    12  C    0.006515   0.000005   0.000830   0.410700  -0.072605   5.183364
    13  H    0.001265   0.000000  -0.000000  -0.037727   0.010047   0.397537
    14  C   -0.000277  -0.000000  -0.000060  -0.028487  -0.010817   0.357817
    15  H    0.000003   0.000000   0.000000   0.020948   0.000849  -0.033295
    16  H    0.000021   0.000000   0.000001  -0.036033   0.002351   0.006264
    17  O   -0.000050  -0.007122  -0.000095   0.000001  -0.000000  -0.000000
    18  O   -0.000021   0.000000  -0.000002   0.005759   0.007108  -0.080657
    19  H    0.000002  -0.000000  -0.000000   0.000836  -0.000604   0.009257
    20  O    0.000304  -0.000082   0.000005  -0.000021   0.000001  -0.000003
    21  C   -0.000343  -0.000093  -0.000000   0.000006  -0.000000   0.000000
    22  H   -0.000102  -0.000003   0.000000  -0.000000   0.000000  -0.000000
    23  H    0.000104   0.000057  -0.000000   0.000001  -0.000000  -0.000000
    24  H    0.000056   0.000025  -0.000000  -0.000001   0.000000   0.000000
    25  C   -0.000000   0.000151   0.000002  -0.000000   0.000000   0.000000
    26  C    0.000000  -0.001136   0.000021  -0.000000  -0.000000  -0.000000
    27  C   -0.000000   0.000322  -0.000001  -0.000000   0.000000   0.000000
    28  C    0.000000  -0.000008   0.000000  -0.000000  -0.000000  -0.000000
    29  C   -0.000000   0.000002  -0.000000   0.000000   0.000000  -0.000000
    30  C    0.000000  -0.000047   0.000000   0.000000  -0.000000   0.000000
    31  H    0.000000   0.000970   0.000040  -0.000001  -0.000000  -0.000000
    32  H   -0.000000   0.000000   0.000000  -0.000000  -0.000000   0.000000
    33  H   -0.000000   0.000000  -0.000000  -0.000000   0.000000   0.000000
    34  C   -0.000002   0.002232  -0.000022   0.000000  -0.000000   0.000000
    35  H    0.000000  -0.000153   0.000000   0.000000  -0.000000   0.000000
    36  C    0.000016  -0.006400  -0.000037   0.000001   0.000000  -0.000000
    37  H   -0.000002  -0.014569   0.000325   0.000003   0.000000  -0.000000
    38  C   -0.000000  -0.000896   0.000000  -0.000000  -0.000000  -0.000000
    39  H    0.000000   0.000531  -0.000000   0.000000  -0.000000   0.000000
    40  H   -0.000000  -0.000206   0.000000   0.000000   0.000000  -0.000000
    41  O   -0.000000  -0.000000  -0.000000   0.000000  -0.000000   0.000000
    42  O    0.000000   0.001128  -0.000000  -0.000000   0.000000  -0.000000
    43  H    0.000000   0.000190  -0.000000  -0.000000   0.000000   0.000000
    44  O   -0.000000  -0.000001   0.000000   0.000000  -0.000000   0.000000
    45  C   -0.000000   0.000000  -0.000000   0.000000   0.000000   0.000000
    46  H   -0.000000   0.000000  -0.000000   0.000000  -0.000000  -0.000000
    47  H    0.000000   0.000000   0.000000  -0.000000   0.000000  -0.000000
    48  H   -0.000000  -0.000000   0.000000   0.000000   0.000000   0.000000
              13         14         15         16         17         18
     1  C   -0.024667   0.008226  -0.000389  -0.000434  -0.000063  -0.000012
     2  C    0.006327   0.000223   0.000080  -0.000047   0.002491   0.000012
     3  C    0.000259  -0.000013  -0.000002   0.000002  -0.076869  -0.000000
     4  C   -0.000073   0.000000   0.000000  -0.000000   0.336858  -0.000000
     5  C    0.000062   0.000008   0.000000  -0.000002  -0.069594   0.000000
     6  C   -0.000380  -0.000438  -0.000012   0.000087   0.005486  -0.000023
     7  H    0.001265  -0.000277   0.000003   0.000021  -0.000050  -0.000021
     8  H    0.000000  -0.000000   0.000000   0.000000  -0.007122   0.000000
     9  H   -0.000000  -0.000060   0.000000   0.000001  -0.000095  -0.000002
    10  C   -0.037727  -0.028487   0.020948  -0.036033   0.000001   0.005759
    11  H    0.010047  -0.010817   0.000849   0.002351  -0.000000   0.007108
    12  C    0.397537   0.357817  -0.033295   0.006264  -0.000000  -0.080657
    13  H    0.682863  -0.042407  -0.014890   0.007717  -0.000000   0.002632
    14  C   -0.042407   4.395379   0.369365   0.363553   0.000000   0.356820
    15  H   -0.014890   0.369365   0.751036  -0.052601  -0.000000  -0.031248
    16  H    0.007717   0.363553  -0.052601   0.739656   0.000000  -0.031009
    17  O   -0.000000   0.000000  -0.000000   0.000000   8.104980   0.000000
    18  O    0.002632   0.356820  -0.031248  -0.031009   0.000000   7.791358
    19  H   -0.000493  -0.020109  -0.004709  -0.004834  -0.000000   0.317412
    20  O   -0.000005  -0.000000   0.000000   0.000000  -0.003093  -0.000000
    21  C   -0.000000   0.000000  -0.000000   0.000000  -0.035688  -0.000000
    22  H    0.000000  -0.000000  -0.000000   0.000000   0.004975  -0.000000
    23  H   -0.000000  -0.000000   0.000000  -0.000000  -0.003927   0.000000
    24  H    0.000000   0.000000   0.000000  -0.000000  -0.010465  -0.000000
    25  C   -0.000000  -0.000000   0.000000  -0.000000   0.000881   0.000000
    26  C   -0.000000  -0.000000  -0.000000   0.000000  -0.000067  -0.000000
    27  C    0.000000   0.000000  -0.000000   0.000000  -0.000023   0.000000
    28  C   -0.000000   0.000000  -0.000000   0.000000   0.000000  -0.000000
    29  C    0.000000   0.000000  -0.000000   0.000000   0.000004  -0.000000
    30  C   -0.000000  -0.000000   0.000000  -0.000000  -0.000196   0.000000
    31  H   -0.000000  -0.000000   0.000000   0.000000  -0.000012   0.000000
    32  H   -0.000000  -0.000000   0.000000  -0.000000  -0.000000   0.000000
    33  H   -0.000000  -0.000000   0.000000  -0.000000  -0.000011   0.000000
    34  C    0.000000   0.000000  -0.000000  -0.000000  -0.039361   0.000000
    35  H   -0.000000   0.000000  -0.000000  -0.000000  -0.002726   0.000000
    36  C   -0.000000   0.000000   0.000000  -0.000000   0.240375  -0.000000
    37  H    0.000000   0.000000  -0.000000   0.000000  -0.031119  -0.000000
    38  C   -0.000000  -0.000000   0.000000   0.000000  -0.042793   0.000000
    39  H    0.000000  -0.000000   0.000000  -0.000000   0.004263   0.000000
    40  H    0.000000   0.000000  -0.000000   0.000000  -0.003772  -0.000000
    41  O   -0.000000  -0.000000   0.000000  -0.000000  -0.000000   0.000000
    42  O    0.000000  -0.000000  -0.000000   0.000000   0.000564   0.000000
    43  H    0.000000   0.000000  -0.000000   0.000000   0.000603  -0.000000
    44  O   -0.000000  -0.000000   0.000000  -0.000000  -0.000000   0.000000
    45  C    0.000000   0.000000  -0.000000   0.000000  -0.000000   0.000000
    46  H    0.000000  -0.000000   0.000000   0.000000  -0.000000  -0.000000
    47  H   -0.000000  -0.000000  -0.000000   0.000000   0.000000  -0.000000
    48  H   -0.000000  -0.000000   0.000000  -0.000000   0.000000  -0.000000
              19         20         21         22         23         24
     1  C    0.000025   0.004100  -0.000157   0.000016  -0.000015   0.000001
     2  C    0.000000  -0.063365   0.005347  -0.000825   0.000840   0.000846
     3  C    0.000000   0.394529  -0.027167  -0.000253   0.000024   0.002145
     4  C    0.000000  -0.085614  -0.019749   0.002063  -0.004394  -0.000890
     5  C   -0.000000   0.009952  -0.000300   0.000202  -0.001530  -0.000907
     6  C    0.000001  -0.000521   0.000166  -0.000011   0.000038   0.000022
     7  H    0.000002   0.000304  -0.000343  -0.000102   0.000104   0.000056
     8  H   -0.000000  -0.000082  -0.000093  -0.000003   0.000057   0.000025
     9  H   -0.000000   0.000005  -0.000000   0.000000  -0.000000  -0.000000
    10  C    0.000836  -0.000021   0.000006  -0.000000   0.000001  -0.000001
    11  H   -0.000604   0.000001  -0.000000   0.000000  -0.000000   0.000000
    12  C    0.009257  -0.000003   0.000000  -0.000000  -0.000000   0.000000
    13  H   -0.000493  -0.000005  -0.000000   0.000000  -0.000000   0.000000
    14  C   -0.020109  -0.000000   0.000000  -0.000000  -0.000000   0.000000
    15  H   -0.004709   0.000000  -0.000000  -0.000000   0.000000   0.000000
    16  H   -0.004834   0.000000   0.000000   0.000000  -0.000000  -0.000000
    17  O   -0.000000  -0.003093  -0.035688   0.004975  -0.003927  -0.010465
    18  O    0.317412  -0.000000  -0.000000  -0.000000   0.000000  -0.000000
    19  H    0.520562  -0.000000   0.000000   0.000000  -0.000000  -0.000000
    20  O   -0.000000   7.860408   0.299860  -0.022366  -0.027132  -0.028605
    21  C    0.000000   0.299860   4.370119   0.361754   0.402147   0.405506
    22  H    0.000000  -0.022366   0.361754   0.712158  -0.032210  -0.032233
    23  H   -0.000000  -0.027132   0.402147  -0.032210   0.659502  -0.029591
    24  H   -0.000000  -0.028605   0.405506  -0.032233  -0.029591   0.682398
    25  C    0.000000  -0.000011  -0.000069  -0.000004  -0.000090   0.000649
    26  C    0.000000  -0.000000  -0.000004  -0.000000   0.000004   0.000046
    27  C    0.000000  -0.000000   0.000001   0.000000  -0.000000  -0.000003
    28  C    0.000000   0.000000   0.000000  -0.000000   0.000000   0.000000
    29  C    0.000000   0.000000  -0.000000   0.000000  -0.000000  -0.000005
    30  C   -0.000000   0.000000  -0.000000   0.000000   0.000002  -0.000004
    31  H   -0.000000  -0.000000  -0.000002  -0.000000   0.000004   0.000007
    32  H   -0.000000  -0.000000   0.000000  -0.000000   0.000000  -0.000000
    33  H   -0.000000   0.000000  -0.000009   0.000001   0.000000   0.000038
    34  C   -0.000000   0.000078  -0.004545  -0.000074   0.001522   0.007236
    35  H   -0.000000  -0.000118  -0.001556   0.000049  -0.000161   0.006575
    36  C    0.000000  -0.000433   0.002471  -0.000244   0.001922  -0.003957
    37  H    0.000000  -0.000000  -0.000192   0.000052  -0.000543  -0.000384
    38  C   -0.000000   0.000010  -0.000365   0.000015  -0.000700  -0.000778
    39  H   -0.000000   0.000000  -0.000047  -0.000001   0.000158   0.000030
    40  H    0.000000  -0.000009   0.000270   0.000076  -0.000422  -0.000377
    41  O   -0.000000  -0.000000  -0.000000   0.000000   0.000000   0.000000
    42  O    0.000000   0.000000  -0.000292  -0.000001   0.001574   0.000011
    43  H    0.000000  -0.000000   0.000006  -0.000001  -0.000003  -0.000000
    44  O   -0.000000  -0.000000  -0.000000   0.000000   0.000000   0.000000
    45  C    0.000000  -0.000000   0.000000   0.000000  -0.000000  -0.000000
    46  H    0.000000   0.000000  -0.000000   0.000000   0.000000   0.000000
    47  H    0.000000   0.000000   0.000000  -0.000000  -0.000000  -0.000000
    48  H   -0.000000  -0.000000  -0.000000  -0.000000   0.000000   0.000000
              25         26         27         28         29         30
     1  C   -0.000003  -0.000035   0.000000  -0.000000   0.000000  -0.000001
     2  C    0.000011   0.000001   0.000000   0.000000  -0.000000   0.000000
     3  C   -0.000177  -0.000127   0.000011  -0.000001   0.000001  -0.000010
     4  C    0.002809  -0.000438  -0.000136   0.000001  -0.000009  -0.000072
     5  C    0.002405   0.000462  -0.000290   0.000000  -0.000009   0.000003
     6  C   -0.000271   0.000092  -0.000041   0.000002  -0.000000   0.000001
     7  H   -0.000000   0.000000  -0.000000   0.000000  -0.000000   0.000000
     8  H    0.000151  -0.001136   0.000322  -0.000008   0.000002  -0.000047
     9  H    0.000002   0.000021  -0.000001   0.000000  -0.000000   0.000000
    10  C   -0.000000  -0.000000  -0.000000  -0.000000   0.000000   0.000000
    11  H    0.000000  -0.000000   0.000000  -0.000000   0.000000  -0.000000
    12  C    0.000000  -0.000000   0.000000  -0.000000  -0.000000   0.000000
    13  H   -0.000000  -0.000000   0.000000  -0.000000   0.000000  -0.000000
    14  C   -0.000000  -0.000000   0.000000   0.000000   0.000000  -0.000000
    15  H    0.000000  -0.000000  -0.000000  -0.000000  -0.000000   0.000000
    16  H   -0.000000   0.000000   0.000000   0.000000   0.000000  -0.000000
    17  O    0.000881  -0.000067  -0.000023   0.000000   0.000004  -0.000196
    18  O    0.000000  -0.000000   0.000000  -0.000000  -0.000000   0.000000
    19  H    0.000000   0.000000   0.000000   0.000000   0.000000  -0.000000
    20  O   -0.000011  -0.000000  -0.000000   0.000000   0.000000   0.000000
    21  C   -0.000069  -0.000004   0.000001   0.000000  -0.000000  -0.000000
    22  H   -0.000004  -0.000000   0.000000  -0.000000   0.000000   0.000000
    23  H   -0.000090   0.000004  -0.000000   0.000000  -0.000000   0.000002
    24  H    0.000649   0.000046  -0.000003   0.000000  -0.000005  -0.000004
    25  C    5.174755   0.171766   0.138902  -0.142802   0.113785   0.126653
    26  C    0.171766   5.426743   0.212915   0.063649  -0.080265   0.035178
    27  C    0.138902   0.212915   5.352975  -0.000700  -0.002854  -0.109723
    28  C   -0.142802   0.063649  -0.000700   5.162039   0.135141   0.130103
    29  C    0.113785  -0.080265  -0.002854   0.135141   5.377622   0.200718
    30  C    0.126653   0.035178  -0.109723   0.130103   0.200718   5.271988
    31  H   -0.060727   0.417774  -0.057588   0.017253  -0.004853   0.015094
    32  H    0.015615  -0.003552   0.020822  -0.063226   0.419848  -0.071102
    33  H   -0.076241   0.014462  -0.004095   0.015231  -0.066849   0.454145
    34  C    0.499519  -0.106051   0.021420  -0.001738   0.017286  -0.093283
    35  H   -0.039618   0.010077  -0.000253  -0.000047   0.001527  -0.016864
    36  C   -0.005717  -0.010991   0.000588   0.000112  -0.001107   0.012384
    37  H   -0.020949   0.002832   0.001412  -0.000184   0.000140   0.000191
    38  C    0.003229   0.000158  -0.000123   0.000002   0.000012  -0.000236
    39  H   -0.001336   0.001058  -0.000049   0.000001   0.000002  -0.000198
    40  H   -0.000563  -0.000078   0.000010  -0.000000  -0.000001   0.000049
    41  O   -0.000257   0.005143  -0.121273   0.657130  -0.072865   0.004427
    42  O   -0.000074   0.000000  -0.000000   0.000000  -0.000000   0.000001
    43  H   -0.000025   0.000004   0.000004   0.000000  -0.000000   0.000002
    44  O    0.002971  -0.077227   0.402840  -0.063567   0.006852  -0.000376
    45  C   -0.000217   0.008213  -0.036838  -0.014394   0.001186   0.000057
    46  H    0.000008  -0.000541  -0.002643   0.003743   0.000286  -0.000018
    47  H    0.000034   0.000187   0.009210  -0.010199  -0.002064   0.000087
    48  H   -0.000001   0.000434   0.009813  -0.011955  -0.002518   0.000134
              31         32         33         34         35         36
     1  C   -0.000008  -0.000000  -0.000000   0.000064  -0.000003  -0.000191
     2  C   -0.000006  -0.000000  -0.000000  -0.000069   0.000003   0.000233
     3  C   -0.000092   0.000000  -0.000001   0.001905   0.000054   0.002532
     4  C   -0.000519   0.000000   0.000012  -0.000159  -0.000793  -0.034164
     5  C    0.004171   0.000000   0.000001  -0.006370  -0.000068  -0.013808
     6  C    0.000488  -0.000000   0.000000  -0.000308   0.000025   0.002167
     7  H    0.000000  -0.000000  -0.000000  -0.000002   0.000000   0.000016
     8  H    0.000970   0.000000   0.000000   0.002232  -0.000153  -0.006400
     9  H    0.000040   0.000000  -0.000000  -0.000022   0.000000  -0.000037
    10  C   -0.000001  -0.000000  -0.000000   0.000000   0.000000   0.000001
    11  H   -0.000000  -0.000000   0.000000  -0.000000  -0.000000   0.000000
    12  C   -0.000000   0.000000   0.000000   0.000000   0.000000  -0.000000
    13  H   -0.000000  -0.000000  -0.000000   0.000000  -0.000000  -0.000000
    14  C   -0.000000  -0.000000  -0.000000   0.000000   0.000000   0.000000
    15  H    0.000000   0.000000   0.000000  -0.000000  -0.000000   0.000000
    16  H    0.000000  -0.000000  -0.000000  -0.000000  -0.000000  -0.000000
    17  O   -0.000012  -0.000000  -0.000011  -0.039361  -0.002726   0.240375
    18  O    0.000000   0.000000   0.000000   0.000000   0.000000  -0.000000
    19  H   -0.000000  -0.000000  -0.000000  -0.000000  -0.000000   0.000000
    20  O   -0.000000  -0.000000   0.000000   0.000078  -0.000118  -0.000433
    21  C   -0.000002   0.000000  -0.000009  -0.004545  -0.001556   0.002471
    22  H   -0.000000  -0.000000   0.000001  -0.000074   0.000049  -0.000244
    23  H    0.000004   0.000000   0.000000   0.001522  -0.000161   0.001922
    24  H    0.000007  -0.000000   0.000038   0.007236   0.006575  -0.003957
    25  C   -0.060727   0.015615  -0.076241   0.499519  -0.039618  -0.005717
    26  C    0.417774  -0.003552   0.014462  -0.106051   0.010077  -0.010991
    27  C   -0.057588   0.020822  -0.004095   0.021420  -0.000253   0.000588
    28  C    0.017253  -0.063226   0.015231  -0.001738  -0.000047   0.000112
    29  C   -0.004853   0.419848  -0.066849   0.017286   0.001527  -0.001107
    30  C    0.015094  -0.071102   0.454145  -0.093283  -0.016864   0.012384
    31  H    0.724601   0.000060  -0.000204  -0.031894  -0.000191   0.006939
    32  H    0.000060   0.693565  -0.015612  -0.000408  -0.000030   0.000009
    33  H   -0.000204  -0.015612   0.679568  -0.018363   0.005554   0.000680
    34  C   -0.031894  -0.000408  -0.018363   5.294814   0.411678   0.198865
    35  H   -0.000191  -0.000030   0.005554   0.411678   0.634785  -0.049760
    36  C    0.006939   0.000009   0.000680   0.198865  -0.049760   4.865970
    37  H   -0.007784  -0.000001  -0.000043  -0.030012   0.008101   0.356848
    38  C   -0.000002  -0.000000  -0.000001  -0.037382  -0.008313   0.363638
    39  H    0.000461   0.000000   0.000011   0.021561  -0.000797  -0.042772
    40  H   -0.000099  -0.000000  -0.000013  -0.015937   0.006065   0.007660
    41  O   -0.000128   0.005132  -0.000099   0.000003   0.000000  -0.000000
    42  O   -0.000060   0.000000   0.000000   0.006392  -0.000031  -0.040773
    43  H   -0.000087   0.000000   0.000000   0.000138   0.000055  -0.003183
    44  O    0.003841  -0.000105   0.000004  -0.000017   0.000001   0.000002
    45  C   -0.000528  -0.000163   0.000001   0.000007  -0.000000  -0.000000
    46  H   -0.000160  -0.000013   0.000000  -0.000000   0.000000  -0.000000
    47  H    0.000143   0.000165  -0.000002   0.000001  -0.000000   0.000000
    48  H    0.000158   0.000191  -0.000002   0.000001  -0.000000   0.000000
              37         38         39         40         41         42
     1  C   -0.000144   0.000003   0.000000  -0.000001   0.000000   0.000001
     2  C    0.000035   0.000007  -0.000001   0.000002  -0.000000  -0.000002
     3  C   -0.000993  -0.000446   0.000020  -0.000043   0.000000   0.000020
     4  C   -0.018012   0.004515   0.000315  -0.001199   0.000000   0.001826
     5  C   -0.006912   0.000870  -0.000072  -0.000042   0.000000  -0.000498
     6  C    0.000280  -0.000069  -0.000006   0.000005  -0.000000  -0.000030
     7  H   -0.000002  -0.000000   0.000000  -0.000000  -0.000000   0.000000
     8  H   -0.014569  -0.000896   0.000531  -0.000206  -0.000000   0.001128
     9  H    0.000325   0.000000  -0.000000   0.000000  -0.000000  -0.000000
    10  C    0.000003  -0.000000   0.000000   0.000000   0.000000  -0.000000
[...]
    18  O   -0.000000  -0.000000   0.000000   0.000000   0.000000   0.000000
    19  H    0.000000   0.000000  -0.000000  -0.000000   0.000000  -0.000000
    20  O    0.000000  -0.000000   0.000000  -0.000000   0.000000  -0.000000
    21  C    0.000003  -0.000000   0.000000  -0.000000  -0.000000  -0.000000
    22  H   -0.000000   0.000000   0.000000  -0.000000  -0.000000   0.000000
    23  H    0.000004   0.000001  -0.000000   0.000000  -0.000000  -0.000000
    24  H   -0.000005   0.000000   0.000000   0.000000  -0.000000  -0.000000
    25  C    5.294988   0.138528   0.126825  -0.140885   0.114755   0.129351
    26  C    0.138528   5.387027   0.268329   0.068036  -0.073507   0.028880
    27  C    0.126825   0.268329   5.461011  -0.085687  -0.002738  -0.113833
    28  C   -0.140885   0.068036  -0.085687   5.153895   0.127064   0.139882
    29  C    0.114755  -0.073507  -0.002738   0.127064   5.423366   0.176734
    30  C    0.129351   0.028880  -0.113833   0.139882   0.176734   5.295519
    31  H   -0.057354   0.408035  -0.049281   0.018751  -0.004421   0.014389
    32  H    0.015860  -0.004101   0.021766  -0.061054   0.419591  -0.073629
    33  H   -0.077017   0.015019  -0.004103   0.014694  -0.066108   0.454838
    34  C    0.420231  -0.122716   0.020623  -0.002350   0.017997  -0.093850
    35  H   -0.028806   0.011525  -0.000171  -0.000032   0.001251  -0.021317
    36  C   -0.035426  -0.006657  -0.000253   0.000110  -0.001022   0.012495
    37  H   -0.017494   0.006499   0.001631  -0.000078   0.000069  -0.000502
    38  C    0.001780  -0.002037  -0.000194   0.000000   0.000020  -0.000139
    39  H    0.004704   0.004536  -0.000535  -0.000010   0.000003  -0.000252
    40  H   -0.003413   0.000200   0.000044  -0.000001  -0.000004  -0.000047
    41  O   -0.000327   0.005914  -0.114463   0.706191  -0.083341   0.005447
    42  O    0.000097  -0.000016  -0.000000   0.000000  -0.000000   0.000002
    43  H   -0.000184   0.000054   0.000005   0.000000  -0.000000   0.000001
    44  O    0.004077  -0.087536   0.406079  -0.067428   0.004711  -0.000259
    45  C   -0.000206   0.003681  -0.051593  -0.002188   0.000321  -0.000011
    46  H    0.000001   0.000143   0.002236   0.000274   0.000087  -0.000007
    47  H    0.000047  -0.000660  -0.010557   0.005942   0.000282  -0.000013
    48  H   -0.000143   0.001664   0.005235   0.000746   0.000005  -0.000102
              31         32         33         34         35         36
     1  C    0.000000  -0.000000  -0.000000  -0.000037   0.000011  -0.000023
     2  C   -0.000000   0.000000   0.000000   0.000015  -0.000022   0.000091
     3  C   -0.000004  -0.000000  -0.000000  -0.000079  -0.000344   0.003632
     4  C   -0.000071  -0.000000  -0.000005  -0.002549   0.000697  -0.047540
     5  C    0.000043   0.000000   0.000019  -0.002811   0.000056  -0.003430
     6  C   -0.000004  -0.000000   0.000000  -0.000141  -0.000070  -0.000070
     7  H    0.000000  -0.000000   0.000000  -0.000000  -0.000000   0.000014
     8  H    0.000046  -0.000001  -0.000020   0.001536  -0.000682   0.003673
     9  H    0.000000   0.000000  -0.000000   0.000003   0.000006  -0.000024
    10  C    0.000000   0.000000   0.000000   0.000000   0.000000  -0.000001
    11  H    0.000000  -0.000000  -0.000000  -0.000000  -0.000000   0.000000
    12  C   -0.000000  -0.000000  -0.000000  -0.000000  -0.000000  -0.000000
    13  H    0.000000  -0.000000   0.000000  -0.000000  -0.000000  -0.000000
    14  C   -0.000000  -0.000000   0.000000   0.000000  -0.000000  -0.000000
    15  H   -0.000000   0.000000   0.000000   0.000000  -0.000000   0.000000
    16  H    0.000000  -0.000000  -0.000000  -0.000000   0.000000   0.000000
    17  O   -0.000055  -0.000000  -0.000009  -0.033361   0.002404   0.250488
    18  O    0.000000  -0.000000   0.000000  -0.000000   0.000000   0.000000
    19  H   -0.000000  -0.000000  -0.000000   0.000000  -0.000000   0.000000
    20  O    0.000000  -0.000000   0.000000  -0.000001   0.000001  -0.000216
    21  C   -0.000000  -0.000000  -0.000000  -0.000384   0.000064   0.001236
    22  H    0.000000   0.000000   0.000000   0.000001   0.000003  -0.000039
    23  H    0.000001   0.000000   0.000000   0.000597  -0.000023  -0.003182
    24  H   -0.000000  -0.000000  -0.000000  -0.000084   0.000220   0.000336
    25  C   -0.057354   0.015860  -0.077017   0.420231  -0.028806  -0.035426
    26  C    0.408035  -0.004101   0.015019  -0.122716   0.011525  -0.006657
    27  C   -0.049281   0.021766  -0.004103   0.020623  -0.000171  -0.000253
    28  C    0.018751  -0.061054   0.014694  -0.002350  -0.000032   0.000110
    29  C   -0.004421   0.419591  -0.066108   0.017997   0.001251  -0.001022
    30  C    0.014389  -0.073629   0.454838  -0.093850  -0.021317   0.012495
    31  H    0.698194   0.000056  -0.000189  -0.033543   0.000136   0.009545
    32  H    0.000056   0.693688  -0.015351  -0.000430  -0.000028   0.000008
    33  H   -0.000189  -0.015351   0.681783  -0.019074   0.005215   0.000545
    34  C   -0.033543  -0.000430  -0.019074   5.423766   0.394010   0.201494
    35  H    0.000136  -0.000028   0.005215   0.394010   0.642073  -0.045976
    36  C    0.009545   0.000008   0.000545   0.201494  -0.045976   4.949295
    37  H    0.000976  -0.000000  -0.000039  -0.032289   0.008020   0.360849
    38  C   -0.001345  -0.000000   0.000029  -0.030904  -0.005872   0.317289
    39  H    0.002118   0.000000   0.000004   0.007409  -0.000358  -0.042737
    40  H   -0.000072  -0.000000  -0.000027  -0.006072   0.004694  -0.004547
    41  O   -0.000132   0.005981  -0.000112   0.000002  -0.000000  -0.000000
    42  O   -0.000002   0.000000   0.000000   0.006375  -0.000113  -0.051954
    43  H   -0.000046   0.000000  -0.000000   0.000289   0.000016  -0.001204
    44  O    0.008160  -0.000070   0.000004  -0.000032   0.000001  -0.000005
    45  C   -0.000748  -0.000049   0.000001   0.000015  -0.000000  -0.000001
    46  H   -0.000358  -0.000002   0.000000  -0.000000   0.000000  -0.000000
    47  H    0.000141   0.000005   0.000001   0.000000   0.000000   0.000000
    48  H    0.000229   0.000016  -0.000000   0.000000  -0.000000   0.000000
              37         38         39         40         41         42
     1  C   -0.000065   0.000002   0.000000  -0.000000  -0.000000  -0.000000
     2  C   -0.000082   0.000001  -0.000001   0.000000   0.000000  -0.000001
     3  C   -0.000379   0.000276   0.000010  -0.000103  -0.000000  -0.000087
     4  C   -0.006633   0.005407   0.000090  -0.000751   0.000000   0.000679
     5  C    0.009826   0.000478   0.000033  -0.000025  -0.000000  -0.000026
     6  C    0.000272  -0.000009  -0.000002   0.000002   0.000000  -0.000000
     7  H    0.000000  -0.000000   0.000000   0.000000  -0.000000   0.000000
     8  H   -0.001321   0.000589   0.000028  -0.000029  -0.000000  -0.000031
     9  H    0.000044  -0.000001   0.000000   0.000000   0.000000   0.000000
    10  C   -0.000000  -0.000000   0.000000   0.000000   0.000000   0.000000
    11  H   -0.000000   0.000000  -0.000000   0.000000   0.000000  -0.000000
    12  C    0.000000   0.000000   0.000000  -0.000000  -0.000000  -0.000000
    13  H   -0.000000   0.000000  -0.000000  -0.000000  -0.000000  -0.000000
    14  C   -0.000000  -0.000000  -0.000000  -0.000000   0.000000  -0.000000
    15  H   -0.000000  -0.000000   0.000000  -0.000000   0.000000   0.000000
    16  H    0.000000   0.000000  -0.000000   0.000000   0.000000   0.000000
    17  O   -0.033402  -0.046606   0.004412  -0.003097  -0.000000   0.001595
    18  O   -0.000000  -0.000000   0.000000  -0.000000   0.000000   0.000000
    19  H    0.000000   0.000000   0.000000   0.000000   0.000000  -0.000000
    20  O   -0.000017  -0.000026   0.000000  -0.000014   0.000000   0.000009
    21  C    0.000132   0.000204  -0.000066   0.000715  -0.000000  -0.002387
    22  H    0.000005  -0.000011   0.000000   0.000004   0.000000   0.000010
    23  H   -0.000231  -0.000689   0.000388  -0.001431   0.000000   0.012579
    24  H    0.000006  -0.000091  -0.000001   0.000063   0.000000   0.000014
    25  C   -0.017494   0.001780   0.004704  -0.003413  -0.000327   0.000097
    26  C    0.006499  -0.002037   0.004536   0.000200   0.005914  -0.000016
    27  C    0.001631  -0.000194  -0.000535   0.000044  -0.114463  -0.000000
    28  C   -0.000078   0.000000  -0.000010  -0.000001   0.706191   0.000000
    29  C    0.000069   0.000020   0.000003  -0.000004  -0.083341  -0.000000
    30  C   -0.000502  -0.000139  -0.000252  -0.000047   0.005447   0.000002
    31  H    0.000976  -0.001345   0.002118  -0.000072  -0.000132  -0.000002
    32  H   -0.000000  -0.000000   0.000000  -0.000000   0.005981   0.000000
    33  H   -0.000039   0.000029   0.000004  -0.000027  -0.000112   0.000000
    34  C   -0.032289  -0.030904   0.007409  -0.006072   0.000002   0.006375
    35  H    0.008020  -0.005872  -0.000358   0.004694  -0.000000  -0.000113
    36  C    0.360849   0.317289  -0.042737  -0.004547  -0.000000  -0.051954
    37  H    0.689567  -0.019597  -0.010290   0.010529  -0.000000  -0.001891
    38  C   -0.019597   4.462266   0.380406   0.348204   0.000000   0.341278
    39  H   -0.010290   0.380406   0.698475  -0.034360  -0.000000  -0.021698
    40  H    0.010529   0.348204  -0.034360   0.703540   0.000000  -0.032906
    41  O   -0.000000   0.000000  -0.000000   0.000000   7.709941   0.000000
    42  O   -0.001891   0.341278  -0.021698  -0.032906   0.000000   7.743238
    43  H    0.005437  -0.038594  -0.007843   0.009590  -0.000000   0.330063
    44  O   -0.000048   0.000002  -0.000020   0.000000  -0.001911   0.000000
    45  C    0.000003   0.000000  -0.000001   0.000000   0.000344   0.000000
    46  H    0.000001  -0.000000   0.000000   0.000000   0.001023   0.000000
    47  H   -0.000000   0.000000  -0.000000   0.000000   0.016746   0.000000
    48  H   -0.000002  -0.000000   0.000004  -0.000000  -0.000963  -0.000000
              43         44         45         46         47         48
     1  C   -0.000000  -0.000000  -0.000000   0.000000   0.000000   0.000000
     2  C    0.000002  -0.000000   0.000000  -0.000000   0.000000  -0.000000
     3  C   -0.000039  -0.000000   0.000000   0.000000  -0.000000   0.000000
     4  C   -0.000262  -0.000000  -0.000000   0.000000  -0.000000   0.000000
     5  C   -0.000045   0.000000  -0.000000   0.000000  -0.000000   0.000000
     6  C    0.000000  -0.000000   0.000000   0.000000  -0.000000  -0.000000
     7  H   -0.000000   0.000000   0.000000  -0.000000   0.000000  -0.000000
     8  H   -0.000014  -0.000001   0.000000  -0.000000   0.000000  -0.000000
     9  H    0.000000  -0.000000   0.000000   0.000000  -0.000000  -0.000000
    10  C    0.000000   0.000000  -0.000000   0.000000  -0.000000   0.000000
    11  H    0.000000   0.000000   0.000000  -0.000000   0.000000  -0.000000
    12  C   -0.000000  -0.000000   0.000000   0.000000  -0.000000  -0.000000
    13  H   -0.000000  -0.000000   0.000000   0.000000  -0.000000   0.000000
    14  C    0.000000   0.000000  -0.000000   0.000000  -0.000000   0.000000
    15  H    0.000000  -0.000000   0.000000  -0.000000   0.000000  -0.000000
    16  H   -0.000000   0.000000  -0.000000   0.000000  -0.000000   0.000000
    17  O    0.000242  -0.000000   0.000000   0.000000  -0.000000  -0.000000
    18  O    0.000000   0.000000   0.000000   0.000000   0.000000   0.000000
    19  H   -0.000000  -0.000000  -0.000000  -0.000000  -0.000000   0.000000
    20  O    0.000002   0.000000   0.000000  -0.000000   0.000000  -0.000000
    21  C    0.000078  -0.000000  -0.000000   0.000000  -0.000000   0.000000
    22  H    0.000000   0.000000   0.000000   0.000000  -0.000000  -0.000000
    23  H   -0.000389   0.000000   0.000000  -0.000000   0.000000   0.000000
    24  H   -0.000001   0.000000  -0.000000   0.000000   0.000000  -0.000000
    25  C   -0.000184   0.004077  -0.000206   0.000001   0.000047  -0.000143
    26  C    0.000054  -0.087536   0.003681   0.000143  -0.000660   0.001664
    27  C    0.000005   0.406079  -0.051593   0.002236  -0.010557   0.005235
    28  C    0.000000  -0.067428  -0.002188   0.000274   0.005942   0.000746
    29  C   -0.000000   0.004711   0.000321   0.000087   0.000282   0.000005
    30  C    0.000001  -0.000259  -0.000011  -0.000007  -0.000013  -0.000102
    31  H   -0.000046   0.008160  -0.000748  -0.000358   0.000141   0.000229
    32  H    0.000000  -0.000070  -0.000049  -0.000002   0.000005   0.000016
    33  H   -0.000000   0.000004   0.000001   0.000000   0.000001  -0.000000
    34  C    0.000289  -0.000032   0.000015  -0.000000   0.000000   0.000000
    35  H    0.000016   0.000001  -0.000000   0.000000   0.000000  -0.000000
    36  C   -0.001204  -0.000005  -0.000001  -0.000000   0.000000   0.000000
    37  H    0.005437  -0.000048   0.000003   0.000001  -0.000000  -0.000002
    38  C   -0.038594   0.000002   0.000000  -0.000000   0.000000  -0.000000
    39  H   -0.007843  -0.000020  -0.000001   0.000000  -0.000000   0.000004
    40  H    0.009590   0.000000   0.000000   0.000000   0.000000  -0.000000
    41  O   -0.000000  -0.001911   0.000344   0.001023   0.016746  -0.000963
    42  O    0.330063   0.000000   0.000000   0.000000   0.000000  -0.000000
    43  H    0.514471   0.000000  -0.000000  -0.000000   0.000000   0.000000
    44  O    0.000000   7.856508   0.293703  -0.026165  -0.026237  -0.030013
    45  C   -0.000000   0.293703   4.393226   0.388247   0.395817   0.387683
    46  H   -0.000000  -0.026165   0.388247   0.650017  -0.025161  -0.023857
    47  H    0.000000  -0.026237   0.395817  -0.025161   0.644114  -0.034049
    48  H    0.000000  -0.030013   0.387683  -0.023857  -0.034049   0.669432
 Mulliken charges:
               1
     1  C    0.124155
     2  C   -0.106965
     3  C    0.173070
     4  C    0.161567
     5  C   -0.081251
     6  C   -0.051586
     7  H   -0.032464
     8  H   -0.004658
     9  H   -0.016410
    10  C   -0.012558
    11  H   -0.020878
    12  C   -0.147178
    13  H    0.014349
    14  C    0.269817
    15  H    0.009766
    16  H    0.009842
    17  O   -0.322583
    18  O   -0.322751
    19  H    0.187949
    20  O   -0.345330
    21  C    0.198539
    22  H    0.028782
    23  H    0.026300
    24  H    0.017959
    25  C    0.105288
    26  C   -0.051673
    27  C    0.119655
    28  C    0.124099
    29  C   -0.055041
    30  C    0.046863
    31  H   -0.013193
    32  H   -0.002255
    33  H    0.009906
    34  C   -0.113655
    35  H    0.033414
    36  C    0.133206
    37  H    0.030495
    38  C    0.287884
    39  H    0.015555
    40  H    0.009314
    41  O   -0.250339
    42  O   -0.324827
    43  H    0.188371
    44  O   -0.333521
    45  C    0.191758
    46  H    0.033520
    47  H    0.033581
    48  H    0.024114
 Sum of Mulliken charges =  -0.00000
 Mulliken charges with hydrogens summed into heavy atoms:
               1
     1  C    0.124155
     2  C   -0.139430
     3  C    0.173070
     4  C    0.161567
     5  C   -0.085909
     6  C   -0.067995
    10  C   -0.033436
    12  C   -0.132829
    14  C    0.289425
    17  O   -0.322583
    18  O   -0.134802
    20  O   -0.345330
    21  C    0.271579
    25  C    0.105288
    26  C   -0.064866
    27  C    0.119655
    28  C    0.124099
    29  C   -0.057296
    30  C    0.056769
    34  C   -0.080241
    36  C    0.163701
    38  C    0.312753
    41  O   -0.250339
    42  O   -0.136456
    44  O   -0.333521
    45  C    0.282973
 Electronic spatial extent (au):  <R**2>=          35614.0295
 Charge=             -0.0000 electrons
 Dipole moment (field-independent basis, Debye):
    X=              0.5261    Y=              1.4302    Z=             -2.1480  Tot=              2.6336
 Quadrupole moment (field-independent basis, Debye-Ang):
   XX=           -146.2611   YY=           -147.5963   ZZ=           -166.9325
   XY=             -0.7194   XZ=              3.5413   YZ=             41.6461
 Traceless Quadrupole moment (field-independent basis, Debye-Ang):
   XX=              7.3355   YY=              6.0003   ZZ=            -13.3358
   XY=             -0.7194   XZ=              3.5413   YZ=             41.6461
 Octapole moment (field-independent basis, Debye-Ang**2):
  XXX=           1563.6438  YYY=           1499.3876  ZZZ=          -1084.2385  XYY=            424.5983
  XXY=            547.3464  XXZ=           -238.7593  XZZ=            482.2062  YZZ=            691.8128
  YYZ=           -611.5709  XYZ=           -186.5260
 Hexadecapole moment (field-independent basis, Debye-Ang**3):
 XXXX=         -12673.1268 YYYY=         -14671.0631 ZZZZ=         -16975.1367 XXXY=          -6647.3470
 XXXZ=           1639.3027 YYYX=          -4666.9346 YYYZ=           4376.1892 ZZZX=           2099.2097
 ZZZY=           3726.3102 XXYY=          -4306.4871 XXZZ=          -3976.8772 YYZZ=          -5600.5720
 XXYZ=           1266.7918 YYXZ=           2408.0748 ZZXY=          -2102.4354
 N-N= 2.201983802511D+03 E-N=-7.260118554691D+03  KE= 1.213721616061D+03
 1\1\GINC-R2I1N26\FOpt\RB3LYP\def2SVP\C20H22O6\HMAYES\24-Feb-2020\0\\# 
 b3lyp/Def2SVP nosymm opt scf=(xqc,maxconventionalcycles=400) CPHF=Grid
 =Fine SCRF=(CPCM,Solvent=Water,Read) guess=mix EmpiricalDispersion=GD3
 BJ geom=connectivity\\obabel g_dimer_0.pdb -O g_dimer.pdb --confab --c
 onf10000 --original\\0,1\C,-4.4089440035,-5.8306237548,-1.2451676927\C
 ,-4.0939187205,-4.6983823333,-2.021645528\C,-3.7077450172,-3.486978038
 7,-1.4508248504\C,-3.6150300878,-3.3847328386,-0.037223004\C,-3.913764
 7382,-4.5062411477,0.7441934172\C,-4.3071800303,-5.7081518359,0.149201
 685\H,-4.1531972187,-4.7265630007,-3.1108879484\H,-3.8446249951,-4.448
 8397233,1.8295542082\H,-4.5393186626,-6.5660379587,0.7845297157\C,-4.8
 264927043,-7.112949122,-1.8281822275\H,-5.0402225253,-7.9084187846,-1.
 1084815298\C,-4.9708648495,-7.4027694221,-3.1313110383\H,-4.7716372818
 ,-6.6502327399,-3.901941947\C,-5.4040769271,-8.7352949817,-3.658219645
 5\H,-6.3106572072,-8.5898115898,-4.2845101424\H,-4.6227674761,-9.11180
 33906,-4.3532440506\O,-3.2498839551,-2.1734503275,0.4633524536\O,-5.64
 14327801,-9.6417439496,-2.6042878813\H,-5.9158438746,-10.4836473082,-2
 .9895713172\O,-3.5099004734,-2.4460190827,-2.3045130721\C,-2.480731107
 7,-1.4865613763,-2.077645095\H,-2.2638607284,-1.0354893449,-3.05635938
 77\H,-2.8036271233,-0.7089011233,-1.3723183125\H,-1.5654444676,-1.9630
 201935,-1.6912164634\C,-2.2944598657,-2.9410832908,3.9347962107\C,-3.4
 63041254,-2.7748674799,4.7791443475\C,-3.4683377975,-3.1392200937,6.09
 05258098\C,-2.262400382,-3.7625478358,6.7112365951\C,-1.0828825488,-3.
 8843684922,5.8437920366\C,-1.1005100811,-3.5135670658,4.5437659649\H,-
 4.3806937977,-2.3507541545,4.3694550575\H,-0.1957078742,-4.3210129416,
 6.3076822854\H,-0.2141441096,-3.6342430302,3.9162129573\C,-2.260158282
 7,-2.5781015797,2.6215018617\H,-1.3326739969,-2.7257774422,2.059465756
 1\C,-3.3573308331,-1.9079048928,1.8528862974\H,-4.3522576938,-2.233094
 2272,2.207274888\C,-3.2623094978,-0.3755014531,2.0044939265\H,-3.36112
 8641,-0.1386022597,3.0796790303\H,-2.2599478495,-0.0556933136,1.681378
 4107\O,-2.2610768244,-4.1747948155,7.8706545102\O,-4.1886191504,0.3146
 513817,1.2080160634\H,-5.0811563063,0.1125573529,1.5230666254\O,-4.617
 0213612,-3.017097165,6.788945404\C,-4.5984264268,-2.5961716128,8.15503
 45079\H,-5.6102804603,-2.2254904561,8.3686015961\H,-4.3488267538,-3.42
 45149655,8.8293592189\H,-3.877441256,-1.7771367987,8.3077502921\\Versi
 on=ES64L-G16RevB.01\HF=-1225.8230477\RMSD=8.204e-09\RMSF=1.612e-06\Dip
 ole=0.20698,0.5626645,-0.8450853\Quadrupole=5.4537763,4.4610868,-9.914
 8631,-0.5348469,2.6328967,30.9628659\PG=C01 [X(C20H22O6)]\\@

 Job cpu time:       0 days 18 hours  8 minutes 15.3 seconds.
 Elapsed time:       0 days  0 hours 32 minutes 22.1 seconds.
 File lengths (MBytes):  RWF=    536 Int=      0 D2E=      0 Chk=     26 Scr=      1
 Normal termination of Gaussian 16 at Mon Feb 24 03:15:49 2020.
