 Entering Gaussian System, Link 0=g16
 Initial command:
 /nopt/nrel/apps/gaussian/g16B/g16/l1.exe "/dev/shm/Gau-381445.inp" -scrdir="/dev/shm/"
 Default is to use a total of  36 processors:
                               36 via shared-memory
                                1 via Linda
 Entering Link 1 = /nopt/nrel/apps/gaussian/g16B/g16/l1.exe PID=    381446.
  
 Copyright (c) 1988-2017, Gaussian, Inc.  All Rights Reserved.
 ...
 ******************************************
 Gaussian 16:  ES64L-G16RevB.01 20-Dec-2017
                23-Feb-2020 
 ******************************************
 %RWF=/dev/shm/,5GB,/scratch/hmayes/g_dimer_10_2487676/,-1
 %NoSave
 %Chk=/dev/shm/g_dimer_10.chk
 %CPU=0-35
 SetSPE:  set environment variable "MP_BIND" = "yes"
 SetSPE:  set environment variable "MP_BLIST" = "0,1,2,3,4,5,6,7,8,9,10,11,12,13,14,15,16,17,18,19,20,21,22,23,24,25,26,27,28,29,30,31,32,33,34,35"
 Will use up to   36 processors via shared memory.
 %Mem=72983493KB
 Default route: CacheSize=180224 MaxDisk=256GB
 ----------------------------------------------------------------------
 # b3lyp/Def2SVP nosymm opt scf=(xqc,maxconventionalcycles=400) CPHF=Gr
 id=Fine SCRF=(CPCM,Solvent=Water,Read) guess=mix EmpiricalDispersion=G
 D3BJ geom=connectivity
 ----------------------------------------------------------------------
 1/4=180224,18=20,19=15,26=3,38=1,40=2,57=2/1,3;
 2/4=180224,9=110,12=2,15=1,17=6,18=5,40=1/2;
 3/4=180224,5=43,7=101,11=2,25=1,30=1,70=2103,71=1,72=1,74=-5,124=41/1,2,3;
 4/4=180224,13=-1/1;
 5/4=180224,5=2,8=3,13=1,38=5,53=1,85=400/2,8;
 6/4=180224,7=2,8=2,9=2,10=2,28=1/1;
 7/4=180224,30=1/1,2,3,16;
 1/4=180224,18=20,19=15,26=3/3(2);
 2/4=180224,9=110,15=1/2;
 99/4=180224/99;
 2/4=180224,9=110,15=1/2;
 3/4=180224,5=43,7=101,11=2,25=1,30=1,70=2105,71=1,72=1,74=-5,124=41/1,2,3;
 4/4=180224,5=5,16=3,69=1/1;
 5/4=180224,5=2,8=3,13=1,38=5,53=1,85=400/2,8;
 7/4=180224,30=1/1,2,3,16;
 1/4=180224,18=20,19=15,26=3/3(-5);
 2/4=180224,9=110,15=1/2;
 6/4=180224,7=2,8=2,9=2,10=2,19=2,28=1/1;
 99/4=180224,9=1/99;
 -------------------------------------------------------------------
 obabel g_dimer_0.pdb -O g_dimer.pdb --confab --conf10000 --original
 -------------------------------------------------------------------
 Symbolic Z-matrix:
 Charge =  0 Multiplicity = 1
 C                    -4.861    -5.37     -0.75 
 C                    -3.719    -4.881    -1.42 
 C                    -3.177    -3.633    -1.11 
 C                    -3.773    -2.842    -0.095 
 C                    -4.9      -3.323     0.565 
 C                    -5.446    -4.568     0.242 
 H                    -3.258    -5.483    -2.2 
 H                    -5.349    -2.703     1.344 
 H                    -6.332    -4.926     0.772 
 C                    -5.458    -6.678    -1.055 
 H                    -5.336    -7.021    -2.086 
 C                    -6.126    -7.482    -0.213 
 H                    -6.287    -7.199     0.833 
 C                    -6.709    -8.806    -0.594 
 H                    -6.751    -9.447     0.314 
 H                    -7.767    -8.652    -0.895 
 O                    -3.302    -1.589     0.204 
 O                    -5.957    -9.411    -1.621 
 H                    -6.371    -10.256   -1.839 
 O                    -2.096    -3.096    -1.732 
 C                    -1.097    -3.958    -2.25 
 H                    -0.304    -3.31     -2.644 
 H                    -0.68     -4.606    -1.462 
 H                    -1.494    -4.586    -3.065 
 C                    -1.697    -0.956     3.414 
 C                    -2.598    -1.354     4.483 
 C                    -2.154    -1.481     5.764 
 C                    -0.732    -1.201     6.131 
 C                     0.144    -0.784     5.029 
 C                    -0.309    -0.67      3.76 
 H                    -3.636    -1.558     4.226 
 H                     1.182    -0.574     5.294 
 H                     0.363    -0.36      2.955 
 C                    -2.08     -0.846     2.111 
 H                    -1.326    -0.553     1.377 
 C                    -3.454    -1.125     1.574 
 H                    -3.939    -1.919     2.165 
 C                    -4.327     0.124     1.573 
 H                    -5.337    -0.143     1.21 
 H                    -4.433     0.493     2.604 
 O                    -0.334    -1.312     7.287 
 O                    -3.747     1.155     0.802 
 H                    -3.45      0.753    -0.028 
 O                    -2.896    -1.855     6.819 
 C                    -2.267    -1.934     8.086 
 H                    -3.041    -2.225     8.805 
 H                    -1.466    -2.69      8.082 
 H                    -1.836    -0.963     8.382 
 

 GradGradGradGradGradGradGradGradGradGradGradGradGradGradGradGradGradGrad
 Berny optimization.
 Initialization pass.
                           ----------------------------
                           !    Initial Parameters    !
                           ! (Angstroms and Degrees)  !
 --------------------------                            --------------------------
 ! Name  Definition              Value          Derivative Info.                !
 --------------------------------------------------------------------------------
 ! R1    R(1,2)                  1.4114         estimate D2E/DX2                !
 ! R2    R(1,6)                  1.4034         estimate D2E/DX2                !
 ! R3    R(1,10)                 1.4698         estimate D2E/DX2                !
 ! R4    R(2,3)                  1.3955         estimate D2E/DX2                !
 ! R5    R(2,7)                  1.0878         estimate D2E/DX2                !
 ! R6    R(3,4)                  1.4181         estimate D2E/DX2                !
 ! R7    R(3,20)                 1.3579         estimate D2E/DX2                !
 ! R8    R(4,5)                  1.3918         estimate D2E/DX2                !
 ! R9    R(4,17)                 1.3716         estimate D2E/DX2                !
 ! R10   R(5,6)                  1.3973         estimate D2E/DX2                !
 ! R11   R(5,8)                  1.0922         estimate D2E/DX2                !
 ! R12   R(6,9)                  1.0927         estimate D2E/DX2                !
 ! R13   R(10,11)                1.0934         estimate D2E/DX2                !
 ! R14   R(10,12)                1.3422         estimate D2E/DX2                !
 ! R15   R(12,13)                1.0955         estimate D2E/DX2                !
 ! R16   R(12,14)                1.496          estimate D2E/DX2                !
 ! R17   R(14,15)                1.1123         estimate D2E/DX2                !
 ! R18   R(14,16)                1.1107         estimate D2E/DX2                !
 ! R19   R(14,18)                1.4093         estimate D2E/DX2                !
 ! R20   R(17,36)                1.4544         estimate D2E/DX2                !
 ! R21   R(18,19)                0.9659         estimate D2E/DX2                !
 ! R22   R(20,21)                1.4175         estimate D2E/DX2                !
 ! R23   R(21,22)                1.0973         estimate D2E/DX2                !
 ! R24   R(21,23)                1.1022         estimate D2E/DX2                !
 ! R25   R(21,24)                1.1028         estimate D2E/DX2                !
 ! R26   R(25,26)                1.4536         estimate D2E/DX2                !
 ! R27   R(25,30)                1.4588         estimate D2E/DX2                !
 ! R28   R(25,34)                1.3626         estimate D2E/DX2                !
 ! R29   R(26,27)                1.3617         estimate D2E/DX2                !
 ! R30   R(26,31)                1.0886         estimate D2E/DX2                !
 ! R31   R(27,28)                1.495          estimate D2E/DX2                !
 ! R32   R(27,44)                1.3429         estimate D2E/DX2                !
 ! R33   R(28,29)                1.4682         estimate D2E/DX2                !
 ! R34   R(28,41)                1.2276         estimate D2E/DX2                !
 ! R35   R(29,30)                1.3522         estimate D2E/DX2                !
 ! R36   R(29,32)                1.0917         estimate D2E/DX2                !
 ! R37   R(30,33)                1.0935         estimate D2E/DX2                !
 ! R38   R(34,35)                1.0923         estimate D2E/DX2                !
 ! R39   R(34,36)                1.5014         estimate D2E/DX2                !
 ! R40   R(36,37)                1.1022         estimate D2E/DX2                !
 ! R41   R(36,38)                1.5239         estimate D2E/DX2                !
 ! R42   R(38,39)                1.106          estimate D2E/DX2                !
 ! R43   R(38,40)                1.1002         estimate D2E/DX2                !
 ! R44   R(38,42)                1.412          estimate D2E/DX2                !
 ! R45   R(42,43)                0.9689         estimate D2E/DX2                !
 ! R46   R(44,45)                1.4167         estimate D2E/DX2                !
 ! R47   R(45,46)                1.0958         estimate D2E/DX2                !
 ! R48   R(45,47)                1.1014         estimate D2E/DX2                !
 ! R49   R(45,48)                1.1028         estimate D2E/DX2                !
 ! A1    A(2,1,6)              118.3478         estimate D2E/DX2                !
 ! A2    A(2,1,10)             122.5782         estimate D2E/DX2                !
 ! A3    A(6,1,10)             119.0737         estimate D2E/DX2                !
 ! A4    A(1,2,3)              121.241          estimate D2E/DX2                !
 ! A5    A(1,2,7)              119.4411         estimate D2E/DX2                !
 ! A6    A(3,2,7)              119.3149         estimate D2E/DX2                !
 ! A7    A(2,3,4)              119.6427         estimate D2E/DX2                !
 ! A8    A(2,3,20)             124.1333         estimate D2E/DX2                !
 ! A9    A(4,3,20)             116.2216         estimate D2E/DX2                !
 ! A10   A(3,4,5)              119.1403         estimate D2E/DX2                !
 ! A11   A(3,4,17)             121.4164         estimate D2E/DX2                !
 ! A12   A(5,4,17)             119.3673         estimate D2E/DX2                !
 ! A13   A(4,5,6)              120.9787         estimate D2E/DX2                !
 ! A14   A(4,5,8)              118.3553         estimate D2E/DX2                !
 ! A15   A(6,5,8)              120.666          estimate D2E/DX2                !
 ! A16   A(1,6,5)              120.6436         estimate D2E/DX2                !
 ! A17   A(1,6,9)              119.5778         estimate D2E/DX2                !
 ! A18   A(5,6,9)              119.7765         estimate D2E/DX2                !
 ! A19   A(1,10,11)            115.4372         estimate D2E/DX2                !
 ! A20   A(1,10,12)            127.2312         estimate D2E/DX2                !
 ! A21   A(11,10,12)           117.3316         estimate D2E/DX2                !
 ! A22   A(10,12,13)           121.1557         estimate D2E/DX2                !
 ! A23   A(10,12,14)           124.3546         estimate D2E/DX2                !
 ! A24   A(13,12,14)           114.4894         estimate D2E/DX2                !
 ! A25   A(12,14,15)           108.4727         estimate D2E/DX2                !
 ! A26   A(12,14,16)           108.513          estimate D2E/DX2                !
 ! A27   A(12,14,18)           110.9509         estimate D2E/DX2                !
 ! A28   A(15,14,16)           105.3769         estimate D2E/DX2                !
 ! A29   A(15,14,18)           111.5702         estimate D2E/DX2                !
 ! A30   A(16,14,18)           111.7341         estimate D2E/DX2                !
 ! A31   A(4,17,36)            117.4454         estimate D2E/DX2                !
 ! A32   A(14,18,19)           108.1384         estimate D2E/DX2                !
 ! A33   A(3,20,21)            119.2062         estimate D2E/DX2                !
 ! A34   A(20,21,22)           106.3451         estimate D2E/DX2                !
 ! A35   A(20,21,23)           111.2787         estimate D2E/DX2                !
 ! A36   A(20,21,24)           111.2623         estimate D2E/DX2                !
 ! A37   A(22,21,23)           109.2994         estimate D2E/DX2                !
 ! A38   A(22,21,24)           109.3353         estimate D2E/DX2                !
 ! A39   A(23,21,24)           109.2547         estimate D2E/DX2                !
 ! A40   A(26,25,30)           117.9703         estimate D2E/DX2                !
 ! A41   A(26,25,34)           123.4451         estimate D2E/DX2                !
 ! A42   A(30,25,34)           118.5832         estimate D2E/DX2                !
 ! A43   A(25,26,27)           121.0148         estimate D2E/DX2                !
 ! A44   A(25,26,31)           117.9504         estimate D2E/DX2                !
 ! A45   A(27,26,31)           121.0314         estimate D2E/DX2                !
 ! A46   A(26,27,28)           121.5736         estimate D2E/DX2                !
 ! A47   A(26,27,44)           125.7927         estimate D2E/DX2                !
 ! A48   A(28,27,44)           112.6337         estimate D2E/DX2                !
 ! A49   A(27,28,29)           115.8765         estimate D2E/DX2                !
 ! A50   A(27,28,41)           121.5057         estimate D2E/DX2                !
 ! A51   A(29,28,41)           122.6173         estimate D2E/DX2                !
 ! A52   A(28,29,30)           121.8997         estimate D2E/DX2                !
 ! A53   A(28,29,32)           116.0873         estimate D2E/DX2                !
 ! A54   A(30,29,32)           122.0129         estimate D2E/DX2                !
 ! A55   A(25,30,29)           121.6546         estimate D2E/DX2                !
 ! A56   A(25,30,33)           117.7555         estimate D2E/DX2                !
 ! A57   A(29,30,33)           120.5897         estimate D2E/DX2                !
 ! A58   A(25,34,35)           118.0488         estimate D2E/DX2                !
 ! A59   A(25,34,36)           125.752          estimate D2E/DX2                !
 ! A60   A(35,34,36)           116.1822         estimate D2E/DX2                !
 ! A61   A(17,36,34)           107.4912         estimate D2E/DX2                !
 ! A62   A(17,36,37)           108.7376         estimate D2E/DX2                !
 ! A63   A(17,36,38)           108.7078         estimate D2E/DX2                !
 ! A64   A(34,36,37)           110.1678         estimate D2E/DX2                !
 ! A65   A(34,36,38)           111.8521         estimate D2E/DX2                !
 ! A66   A(37,36,38)           109.7974         estimate D2E/DX2                !
 ! A67   A(36,38,39)           108.9971         estimate D2E/DX2                !
 ! A68   A(36,38,40)           109.2379         estimate D2E/DX2                !
 ! A69   A(36,38,42)           111.3154         estimate D2E/DX2                !
 ! A70   A(39,38,40)           107.4918         estimate D2E/DX2                !
 ! A71   A(39,38,42)           111.8498         estimate D2E/DX2                !
 ! A72   A(40,38,42)           107.841          estimate D2E/DX2                !
 ! A73   A(38,42,43)           106.9012         estimate D2E/DX2                !
 ! A74   A(27,44,45)           118.2151         estimate D2E/DX2                !
 ! A75   A(44,45,46)           106.7389         estimate D2E/DX2                !
 ! A76   A(44,45,47)           110.9713         estimate D2E/DX2                !
 ! A77   A(44,45,48)           111.3737         estimate D2E/DX2                !
 ! A78   A(46,45,47)           109.4988         estimate D2E/DX2                !
 ! A79   A(46,45,48)           109.4972         estimate D2E/DX2                !
 ! A80   A(47,45,48)           108.7292         estimate D2E/DX2                !
 ! D1    D(6,1,2,3)              0.0578         estimate D2E/DX2                !
 ! D2    D(6,1,2,7)           -179.3009         estimate D2E/DX2                !
 ! D3    D(10,1,2,3)           179.849          estimate D2E/DX2                !
 ! D4    D(10,1,2,7)             0.4903         estimate D2E/DX2                !
 ! D5    D(2,1,6,5)             -0.6572         estimate D2E/DX2                !
 ! D6    D(2,1,6,9)            179.8758         estimate D2E/DX2                !
 ! D7    D(10,1,6,5)           179.5441         estimate D2E/DX2                !
 ! D8    D(10,1,6,9)             0.0771         estimate D2E/DX2                !
 ! D9    D(2,1,10,11)          -29.7795         estimate D2E/DX2                !
 ! D10   D(2,1,10,12)          150.1977         estimate D2E/DX2                !
 ! D11   D(6,1,10,11)          150.0103         estimate D2E/DX2                !
 ! D12   D(6,1,10,12)          -30.0125         estimate D2E/DX2                !
 ! D13   D(1,2,3,4)              0.5965         estimate D2E/DX2                !
 ! D14   D(1,2,3,20)          -178.8197         estimate D2E/DX2                !
 ! D15   D(7,2,3,4)            179.956          estimate D2E/DX2                !
 ! D16   D(7,2,3,20)             0.5398         estimate D2E/DX2                !
 ! D17   D(2,3,4,5)             -0.6547         estimate D2E/DX2                !
 ! D18   D(2,3,4,17)          -177.4635         estimate D2E/DX2                !
 ! D19   D(20,3,4,5)           178.8067         estimate D2E/DX2                !
 ! D20   D(20,3,4,17)            1.9979         estimate D2E/DX2                !
 ! D21   D(2,3,20,21)          -30.0972         estimate D2E/DX2                !
 ! D22   D(4,3,20,21)          150.4684         estimate D2E/DX2                !
 ! D23   D(3,4,5,6)              0.0633         estimate D2E/DX2                !
 ! D24   D(3,4,5,8)           -179.959          estimate D2E/DX2                !
 ! D25   D(17,4,5,6)           176.9384         estimate D2E/DX2                !
 ! D26   D(17,4,5,8)            -3.0839         estimate D2E/DX2                !
 ! D27   D(3,4,17,36)         -149.9885         estimate D2E/DX2                !
 ! D28   D(5,4,17,36)           33.2098         estimate D2E/DX2                !
 ! D29   D(4,5,6,1)              0.6025         estimate D2E/DX2                !
 ! D30   D(4,5,6,9)           -179.9315         estimate D2E/DX2                !
 ! D31   D(8,5,6,1)           -179.3747         estimate D2E/DX2                !
 ! D32   D(8,5,6,9)              0.0913         estimate D2E/DX2                !
 ! D33   D(1,10,12,13)           0.1884         estimate D2E/DX2                !
 ! D34   D(1,10,12,14)        -179.9932         estimate D2E/DX2                !
 ! D35   D(11,10,12,13)       -179.8348         estimate D2E/DX2                !
 ! D36   D(11,10,12,14)         -0.0164         estimate D2E/DX2                !
 ! D37   D(10,12,14,15)        152.9402         estimate D2E/DX2                !
 ! D38   D(10,12,14,16)        -93.0627         estimate D2E/DX2                !
 ! D39   D(10,12,14,18)         30.0549         estimate D2E/DX2                !
 ! D40   D(13,12,14,15)        -27.2306         estimate D2E/DX2                !
 ! D41   D(13,12,14,16)         86.7665         estimate D2E/DX2                !
 ! D42   D(13,12,14,18)       -150.1159         estimate D2E/DX2                !
 ! D43   D(12,14,18,19)       -179.5748         estimate D2E/DX2                !
 ! D44   D(15,14,18,19)         59.3477         estimate D2E/DX2                !
 ! D45   D(16,14,18,19)        -58.3333         estimate D2E/DX2                !
 ! D46   D(4,17,36,34)         120.0208         estimate D2E/DX2                !
 ! D47   D(4,17,36,37)           0.7715         estimate D2E/DX2                !
 ! D48   D(4,17,36,38)        -118.7315         estimate D2E/DX2                !
 ! D49   D(3,20,21,22)        -176.5304         estimate D2E/DX2                !
 ! D50   D(3,20,21,23)         -57.5939         estimate D2E/DX2                !
 ! D51   D(3,20,21,24)          64.4988         estimate D2E/DX2                !
 ! D52   D(30,25,26,27)         -1.2416         estimate D2E/DX2                !
 ! D53   D(30,25,26,31)        179.4191         estimate D2E/DX2                !
 ! D54   D(34,25,26,27)        178.309          estimate D2E/DX2                !
 ! D55   D(34,25,26,31)         -1.0302         estimate D2E/DX2                !
 ! D56   D(26,25,30,29)          0.8385         estimate D2E/DX2                !
 ! D57   D(26,25,30,33)       -179.3249         estimate D2E/DX2                !
 ! D58   D(34,25,30,29)       -178.7346         estimate D2E/DX2                !
 ! D59   D(34,25,30,33)          1.1021         estimate D2E/DX2                !
 ! D60   D(26,25,34,35)       -179.1712         estimate D2E/DX2                !
 ! D61   D(26,25,34,36)         -0.7363         estimate D2E/DX2                !
 ! D62   D(30,25,34,35)          0.3769         estimate D2E/DX2                !
 ! D63   D(30,25,34,36)        178.8118         estimate D2E/DX2                !
 ! D64   D(25,26,27,28)          0.8216         estimate D2E/DX2                !
 ! D65   D(25,26,27,44)       -179.2415         estimate D2E/DX2                !
 ! D66   D(31,26,27,28)       -179.8596         estimate D2E/DX2                !
 ! D67   D(31,26,27,44)          0.0774         estimate D2E/DX2                !
 ! D68   D(26,27,28,29)          0.0151         estimate D2E/DX2                !
 ! D69   D(26,27,28,41)        179.7769         estimate D2E/DX2                !
 ! D70   D(44,27,28,29)       -179.9295         estimate D2E/DX2                !
 ! D71   D(44,27,28,41)         -0.1676         estimate D2E/DX2                !
 ! D72   D(26,27,44,45)       -179.9808         estimate D2E/DX2                !
 ! D73   D(28,27,44,45)         -0.0391         estimate D2E/DX2                !
 ! D74   D(27,28,29,30)         -0.4252         estimate D2E/DX2                !
 ! D75   D(27,28,29,32)        179.7162         estimate D2E/DX2                !
 ! D76   D(41,28,29,30)        179.8158         estimate D2E/DX2                !
 ! D77   D(41,28,29,32)         -0.0428         estimate D2E/DX2                !
 ! D78   D(28,29,30,25)         -0.0136         estimate D2E/DX2                !
 ! D79   D(28,29,30,33)       -179.8456         estimate D2E/DX2                !
 ! D80   D(32,29,30,25)        179.8367         estimate D2E/DX2                !
 ! D81   D(32,29,30,33)          0.0046         estimate D2E/DX2                !
 ! D82   D(25,34,36,17)       -149.9573         estimate D2E/DX2                !
 ! D83   D(25,34,36,37)        -31.6272         estimate D2E/DX2                !
 ! D84   D(25,34,36,38)         90.7875         estimate D2E/DX2                !
 ! D85   D(35,34,36,17)         28.5035         estimate D2E/DX2                !
 ! D86   D(35,34,36,37)        146.8336         estimate D2E/DX2                !
 ! D87   D(35,34,36,38)        -90.7517         estimate D2E/DX2                !
 ! D88   D(17,36,38,39)         63.8175         estimate D2E/DX2                !
 ! D89   D(17,36,38,40)       -178.9999         estimate D2E/DX2                !
 ! D90   D(17,36,38,42)        -60.0206         estimate D2E/DX2                !
 ! D91   D(34,36,38,39)       -177.6478         estimate D2E/DX2                !
 ! D92   D(34,36,38,40)        -60.4652         estimate D2E/DX2                !
 ! D93   D(34,36,38,42)         58.5141         estimate D2E/DX2                !
 ! D94   D(37,36,38,39)        -55.0218         estimate D2E/DX2                !
 ! D95   D(37,36,38,40)         62.1608         estimate D2E/DX2                !
 ! D96   D(37,36,38,42)       -178.8599         estimate D2E/DX2                !
 ! D97   D(36,38,42,43)         45.855          estimate D2E/DX2                !
 ! D98   D(39,38,42,43)        -76.3485         estimate D2E/DX2                !
 ! D99   D(40,38,42,43)        165.6659         estimate D2E/DX2                !
 ! D100  D(27,44,45,46)        178.4735         estimate D2E/DX2                !
 ! D101  D(27,44,45,47)        -62.2807         estimate D2E/DX2                !
 ! D102  D(27,44,45,48)         59.003          estimate D2E/DX2                !
 --------------------------------------------------------------------------------
 Trust Radius=3.00D-01 FncErr=1.00D-07 GrdErr=1.00D-06 EigMax=2.50D+02 EigMin=1.00D-04
 Number of steps in this run=    241 maximum allowed number of steps=    288.
 GradGradGradGradGradGradGradGradGradGradGradGradGradGradGradGradGradGrad

                          Input orientation:                          
 ---------------------------------------------------------------------
 Center     Atomic      Atomic             Coordinates (Angstroms)
 Number     Number       Type             X           Y           Z
 ---------------------------------------------------------------------
      1          6           0       -4.861000   -5.370000   -0.750000
      2          6           0       -3.719000   -4.881000   -1.420000
      3          6           0       -3.177000   -3.633000   -1.110000
      4          6           0       -3.773000   -2.842000   -0.095000
      5          6           0       -4.900000   -3.323000    0.565000
      6          6           0       -5.446000   -4.568000    0.242000
      7          1           0       -3.258000   -5.483000   -2.200000
      8          1           0       -5.349000   -2.703000    1.344000
      9          1           0       -6.332000   -4.926000    0.772000
     10          6           0       -5.458000   -6.678000   -1.055000
     11          1           0       -5.336000   -7.021000   -2.086000
     12          6           0       -6.126000   -7.482000   -0.213000
     13          1           0       -6.287000   -7.199000    0.833000
     14          6           0       -6.709000   -8.806000   -0.594000
     15          1           0       -6.751000   -9.447000    0.314000
     16          1           0       -7.767000   -8.652000   -0.895000
     17          8           0       -3.302000   -1.589000    0.204000
     18          8           0       -5.957000   -9.411000   -1.621000
     19          1           0       -6.371000  -10.256000   -1.839000
     20          8           0       -2.096000   -3.096000   -1.732000
     21          6           0       -1.097000   -3.958000   -2.250000
     22          1           0       -0.304000   -3.310000   -2.644000
     23          1           0       -0.680000   -4.606000   -1.462000
     24          1           0       -1.494000   -4.586000   -3.065000
     25          6           0       -1.697000   -0.956000    3.414000
     26          6           0       -2.598000   -1.354000    4.483000
     27          6           0       -2.154000   -1.481000    5.764000
     28          6           0       -0.732000   -1.201000    6.131000
     29          6           0        0.144000   -0.784000    5.029000
     30          6           0       -0.309000   -0.670000    3.760000
     31          1           0       -3.636000   -1.558000    4.226000
     32          1           0        1.182000   -0.574000    5.294000
     33          1           0        0.363000   -0.360000    2.955000
     34          6           0       -2.080000   -0.846000    2.111000
     35          1           0       -1.326000   -0.553000    1.377000
     36          6           0       -3.454000   -1.125000    1.574000
     37          1           0       -3.939000   -1.919000    2.165000
     38          6           0       -4.327000    0.124000    1.573000
     39          1           0       -5.337000   -0.143000    1.210000
     40          1           0       -4.433000    0.493000    2.604000
     41          8           0       -0.334000   -1.312000    7.287000
     42          8           0       -3.747000    1.155000    0.802000
     43          1           0       -3.450000    0.753000   -0.028000
     44          8           0       -2.896000   -1.855000    6.819000
     45          6           0       -2.267000   -1.934000    8.086000
     46          1           0       -3.041000   -2.225000    8.805000
     47          1           0       -1.466000   -2.690000    8.082000
     48          1           0       -1.836000   -0.963000    8.382000
 ---------------------------------------------------------------------
                    Distance matrix (angstroms):
                    1          2          3          4          5
     1  C    0.000000
     2  C    1.411448   0.000000
     3  C    2.445941   1.395481   0.000000
     4  C    2.829055   2.432296   1.418140   0.000000
     5  C    2.433301   2.786099   2.422902   1.391794   0.000000
     6  C    1.403386   2.417176   2.801873   2.427256   1.397308
     7  H    2.164458   1.087807   2.148758   3.416304   3.873886
     8  H    3.425765   3.878180   3.406553   2.138649   1.092173
     9  H    2.162744   3.410961   3.894586   3.412217   2.159417
    10  C    1.469795   2.527163   3.804998   4.298339   3.767199
    11  H    2.176309   2.763665   4.134296   4.885805   4.570897
    12  C    2.519750   3.743755   4.931127   5.203858   4.405183
    13  H    2.807954   4.128409   5.115047   5.115157   4.125405
    14  C    3.904553   5.002799   6.284999   6.666213   5.888892
    15  H    4.618022   5.748751   6.971646   7.256844   6.402545
    16  H    4.386044   5.557191   6.804755   7.095642   6.224912
    17  O    4.199590   3.694392   2.433137   1.371587   2.385515
    18  O    4.276627   5.056673   6.432325   7.088744   6.554356
    19  H    5.228673   6.008268   7.388992   8.047269   7.483953
    20  O    3.712226   2.432632   1.357871   2.357247   3.631825
    21  C    4.290855   2.900985   2.394081   3.612542   4.773914
    22  H    5.347624   3.953282   3.272860   4.330172   5.605450
    23  H    4.309455   3.051706   2.702895   3.814057   4.854196
    24  H    4.160597   2.782746   2.750041   4.129925   5.135456
    25  C    6.843478   6.546882   5.461072   4.492199   4.896805
    26  C    6.973788   6.967193   6.067185   4.955084   4.952463
    27  C    8.055083   8.100561   7.275267   6.229074   6.161419
    28  C    9.043084   8.915277   8.020270   7.120649   7.270176
    29  C    8.915058   8.561412   7.538777   6.770054   7.198316
    30  C    7.946748   7.496200   6.381355   5.619422   6.190615
    31  H    6.386904   6.551834   5.743623   4.509819   4.256271
    32  H    9.800480   9.362043   8.328840   7.664018   8.179925
    33  H    8.131255   7.499519   6.306216   5.706954   6.495432
    34  C    6.032069   5.606738   4.398365   3.422967   4.059316
    35  H    6.342227   5.681658   4.370100   3.659797   4.594096
    36  C    5.039906   4.810592   3.683836   2.415660   2.817836
    37  H    4.610500   4.655542   3.774131   2.446852   2.335538
    38  C    5.988783   5.863253   4.757735   3.447651   3.636785
    39  H    5.602652   5.655393   4.714669   3.381379   3.274049
    40  H    6.768107   6.751463   5.691679   4.340786   4.351720
    41  O   10.077423  10.000392   9.164022   8.286226   8.371246
    42  O    6.798921   6.432058   5.187060   4.096498   4.630125
    43  H    6.324819   5.809646   4.525732   3.610103   4.366684
    44  O    8.573576   8.815618   8.130762   7.038941   6.729306
    45  C    9.829030  10.057691   9.395803   8.367871   8.088724
    46  H   10.222595  10.586059  10.015397   8.951341   8.518162
    47  H    9.834259  10.008221   9.397321   8.497569   8.288446
    48  H   10.581385  10.722668   9.951143   8.896187   8.721421
                    6          7          8          9         10
     6  C    0.000000
     7  H    3.404105   0.000000
     8  H    2.168418   4.965946   0.000000
     9  H    1.092731   4.311903   2.497039   0.000000
    10  C    2.476783   2.753007   4.644105   2.677930   0.000000
    11  H    3.383621   2.587764   5.514544   3.680924   1.093386
    12  C    3.026685   4.021143   5.085943   2.746961   1.342238
    13  H    2.824663   4.617205   4.621145   2.274264   2.126788
    14  C    4.500523   5.052818   6.546148   4.130676   2.511156
    15  H    5.051025   5.851029   6.964771   4.563416   3.348637
    16  H    4.833101   5.663627   6.800768   4.326799   3.041999
    17  O    3.670507   4.576504   2.594380   4.543027   5.668451
    18  O    5.214071   4.800940   7.359222   5.097283   2.835251
    19  H    6.126951   5.709870   8.259769   5.935296   3.774958
    20  O    4.157639   2.695744   4.494245   5.250011   4.959042
    21  C    5.049353   2.645382   5.707133   6.121661   5.276812
    22  H    6.029239   3.693938   6.459460   7.114583   6.358621
    23  H    5.061602   2.821322   5.770148   6.085907   5.223803
    24  H    5.153142   2.159752   6.151910   6.184207   4.912215
    25  C    6.096157   7.378851   4.546868   6.650135   8.176697
    26  C    6.035477   7.883320   4.386470   6.361876   8.197196
    27  C    7.131572   8.981098   5.589070   7.365037   9.188253
    28  C    8.260678   9.701637   6.818215   8.599681  10.196627
    29  C    8.275393   9.268907   6.887295   8.787308  10.155624
    30  C    7.345713   8.208725   5.947415   7.957274   9.262424
    31  H    5.311163   7.539362   3.542784   5.526478   7.577799
    32  H    9.241489   9.998596   7.923957   9.790229  11.029878
    33  H    7.668906   8.119778   6.380589   8.392668   9.480573
    34  C    5.355035   6.440045   3.837069   6.043081   7.446252
    35  H    5.863689   6.390028   4.561592   6.674518   7.778411
    36  C    4.194823   5.768332   2.476693   4.834634   6.462466
    37  H    3.603634   5.676186   1.810193   4.087658   5.943386
    38  C    5.003857   6.842276   3.014773   5.492188   7.379211
    39  H    4.530952   6.668279   2.563533   4.904993   6.917448
    40  H    5.676172   7.757037   3.555429   6.027270   8.115550
    41  O    9.293337  10.768017   7.899643   9.564634  11.164152
    42  O    5.996076   7.301655   4.212402   6.607699   8.229937
    43  H    5.689460   6.606220   4.175227   6.418486   7.765729
    44  O    7.557764   9.728093   6.059038   7.602851   9.582539
    45  C    8.864104  10.926082   7.452828   8.886556  10.781739
    46  H    9.197752  11.479185   7.824440   9.091489  11.085608
    47  H    8.990711  10.804242   7.776793   9.061664  10.738947
    48  H    9.606650  11.594447   8.056191   9.686665  11.611937
                   11         12         13         14         15
    11  H    0.000000
    12  C    2.084406   0.000000
    13  H    3.075166   1.095503   0.000000
    14  C    2.701373   1.496003   2.190174   0.000000
    15  H    3.694279   2.128281   2.353330   1.112254   0.000000
    16  H    3.160443   2.127652   2.699554   1.110712   1.768039
    17  O    6.236015   6.548001   6.385763   8.020570   8.582300
    18  O    2.512761   2.394173   3.320235   1.409347   2.091879
    19  H    3.405504   3.224744   4.061021   1.940817   2.331156
    20  O    5.101817   6.146971   6.401431   7.428251   8.135745
    21  C    5.232398   6.469837   6.851647   7.598683   8.286793
    22  H    6.277253   7.563797   7.937893   8.685191   9.379570
    23  H    5.282039   6.284130   6.590078   7.398802   7.965331
    24  H    4.652809   6.162479   6.707833   7.149158   7.917260
    25  C    8.959718   8.681005   8.167295  10.139364  10.356157
    26  C    9.097433   8.488320   7.816345   9.910023  10.006229
    27  C   10.121226   9.354855   8.607669  10.715774  10.690747
    28  C   11.071960  10.430366   9.741809  11.780755  11.749994
    29  C   10.934066  10.566677  10.005818  11.955510  12.034111
    30  C    9.989076   9.799263   9.323715  11.229952  11.419720
    31  H    8.519138   7.810160   7.096558   9.230885   9.340412
    32  H   11.769135  11.465356  10.935132  12.833637  12.902055
    33  H   10.112329  10.142299   9.772272  11.573396  11.838811
    34  C    8.145365   8.112188   7.726108   9.597201   9.951113
    35  H    8.361070   8.577828   8.311244  10.048559  10.472050
    36  C    7.190295   7.123511   6.743029   8.619339   9.039552
    37  H    6.786237   6.433104   5.930070   7.919328   8.246474
    38  C    8.090574   8.017321   7.616793   9.492877   9.953135
    39  H    7.626959   7.517205   7.129640   8.954573   9.453392
    40  H    8.903466   8.625680   8.108059  10.093502  10.460441
    41  O   12.060921  11.307792  10.571144  12.605984  12.489149
    42  O    8.815466   9.015966   8.731659  10.485408  11.030166
    43  H    8.259990   8.660856   8.486707  10.115133  10.726302
    44  O   10.580179   9.567918   8.711453  10.853937  10.715153
    45  C   11.779894  10.702597   9.822761  11.928879  11.702795
    46  H   12.119510  10.884742   9.941327  12.045953  11.748126
    47  H   11.709940  10.652976   9.804138  11.839235  11.572817
    48  H   12.590806  11.609284  10.755766  12.877397  12.697563
                   16         17         18         19         20
    16  H    0.000000
    17  O    8.427929   0.000000
    18  O    2.092667   8.459511   0.000000
    19  H    2.326536   9.418572   0.965891   0.000000
    20  O    7.983104   2.733785   7.402626   8.339825   0.000000
    21  C    8.267924   4.061564   7.331470   8.224889   1.417522
    22  H    9.343037   4.478945   8.380044   9.257615   2.022079
    23  H    8.180292   4.330442   7.138630   8.028207   2.087596
    24  H    7.784073   4.789283   6.729348   7.578727   2.087916
    25  C   10.707044   3.644285  10.723146  11.658914   5.587496
    26  C   10.435624   4.342889  10.651617  11.552005   6.474009
    27  C   11.281458   5.678307  11.484160  12.352705   7.668220
    28  C   12.424705   6.471845  12.441794  13.315864   8.202334
    29  C   12.632621   5.983608  12.484784  13.391543   7.488262
    30  C   11.874473   4.737905  11.715808  12.648638   6.264256
    31  H    9.675466   4.035963  10.062011  10.950783   6.343091
    32  H   13.551472   6.858905  13.299440  14.201008   8.152941
    33  H   12.234241   4.744541  11.950012  12.894185   5.958217
    34  C   10.114922   2.383691  10.115245  11.070830   4.453247
    35  H   10.594445   2.520675  10.435436  11.399250   4.089698
    36  C    9.019626   1.454407   9.226637  10.175098   4.081500
    37  H    8.327693   2.088107   8.633434   9.563065   4.468622
    38  C    9.743860   2.420569  10.186990  11.115938   5.125308
    39  H    9.096098   2.691501   9.710550  10.613120   5.280119
    40  H   10.343577   3.372519  10.874853  11.791399   6.094537
    41  O   13.269145   7.684702  13.287754  14.132388   9.361072
    42  O   10.733940   2.843442  11.063245  12.002965   5.217083
    43  H   10.384710   2.358112  10.589126  11.532998   4.421734
    44  O   11.376803   6.632784  11.734413  12.554417   8.677539
    45  C   12.491593   7.957146  12.796385  13.586910   9.888003
    46  H   12.559116   8.628431  12.993965  13.743384  10.615085
    47  H   12.483372   8.163699  12.628901  13.406328   9.842578
    48  H   13.429825   8.331910  13.726302  14.539426  10.339743
                   21         22         23         24         25
    21  C    0.000000
    22  H    1.097264   0.000000
    23  H    1.102151   1.793911   0.000000
    24  H    1.102823   1.794858   1.797945   0.000000
    25  C    6.438393   6.646889   6.175125   7.429371   0.000000
    26  C    7.373405   7.738378   7.042532   8.284742   1.453604
    27  C    8.454406   8.801262   8.009580   9.382317   2.450913
    28  C    8.830370   9.035026   8.321681   9.828799   2.893672
    29  C    8.037300   8.090507   7.577581   9.091264   2.455013
    30  C    6.895795   6.926820   6.549734   7.957381   1.458786
    31  H    7.358335   7.833813   7.097999   8.180197   2.186657
    32  H    8.576551   8.526766   8.085023   9.650389   3.459619
    33  H    6.493784   6.363662   6.215002   7.586035   2.193057
    34  C    5.446940   5.642295   5.372516   6.412642   1.362570
    35  H    4.980120   4.981363   4.990395   6.002056   2.109365
    36  C    5.310773   5.699846   5.387925   6.110683   2.549747
    37  H    5.632647   6.186646   5.567421   6.359545   2.741156
    38  C    6.458402   6.764612   6.699607   7.191734   3.387120
    39  H    6.671089   7.086204   6.981805   7.265296   4.332226
    40  H    7.382521   7.684592   7.524438   8.159137   3.200218
    41  O    9.926623  10.130038   9.354953  10.919184   4.121242
    42  O    6.517666   6.607979   6.908061   7.279339   3.934637
    43  H    5.715541   5.766172   6.200656   6.446257   4.223867
    44  O    9.481865   9.918864   9.002978  10.349755   3.720192
    45  C   10.597093  10.994528  10.041039  11.488056   4.807179
    46  H   11.357616  11.821506  10.800684  12.201001   5.699086
    47  H   10.416055  10.806559   9.766104  11.307131   4.985012
    48  H   11.070482  11.376648  10.559930  12.011532   4.969949
                   26         27         28         29         30
    26  C    0.000000
    27  C    1.361700   0.000000
    28  C    2.494247   1.495049   0.000000
    29  C    2.853345   2.511342   1.468220   0.000000
    30  C    2.496018   2.842140   2.466279   1.352245   0.000000
    31  H    1.088627   2.137217   3.491374   3.941102   3.474857
    32  H    3.943922   3.488903   2.181076   1.091682   2.141367
    33  H    3.477117   3.934769   3.463132   2.128195   1.093485
    34  C    2.480478   3.708519   4.254824   3.669434   2.426235
    35  H    3.450626   4.559883   4.834590   3.943522   2.593582
    36  C    3.040963   4.401458   5.308607   4.999891   3.857026
    37  H    2.736902   4.041147   5.150682   5.114842   4.157033
    38  C    3.693511   4.986225   5.954411   5.723482   4.643030
    39  H    4.436347   5.714950   6.822143   6.710961   5.662245
    40  H    3.210806   4.367621   5.385793   5.334818   4.438049
    41  O    3.604147   2.379178   1.227624   2.367664   3.585041
    42  O    4.600548   5.840170   6.560427   6.063591   4.888786
    43  H    5.051185   6.341738   7.009916   6.391592   5.122475
    44  O    2.407634   1.342931   2.363040   3.686833   4.177831
    45  C    3.664365   2.368473   2.591436   4.059639   4.913831
    46  H    4.431092   3.253919   3.678360   5.145764   5.944230
    47  H    4.002389   2.703359   2.561694   3.942809   4.909046
    48  H    3.991958   2.687633   2.518424   3.898083   4.876522
                   31         32         33         34         35
    31  H    0.000000
    32  H    5.032097   0.000000
    33  H    4.363788   2.487464   0.000000
    34  C    2.720534   4.565755   2.629977   0.000000
    35  H    3.803015   4.651171   2.319494   1.092301   0.000000
    36  C    2.693273   5.969464   4.130602   1.501361   2.212324
    37  H    2.114202   6.150147   4.643467   2.147120   3.051994
    38  C    3.216367   6.684469   4.913276   2.505864   3.082652
    39  H    3.740572   7.704685   5.965075   3.451675   4.035357
    40  H    2.733623   6.316867   4.883895   2.751832   3.500442
    41  O    4.509262   2.610546   4.489804   5.482394   6.040550
    42  O    4.369950   6.889307   4.880854   2.914854   3.018134
    43  H    4.844774   7.179139   4.967497   3.001503   2.861999
    44  O    2.712832   4.538355   5.271300   4.883564   5.811667
    45  C    4.112802   4.641171   5.976750   6.076129   6.913995
    46  H    4.665421   5.734688   7.020537   6.901797   7.804614
    47  H    4.567172   4.388884   5.921171   6.279345   7.038707
    48  H    4.567971   4.335365   5.886556   6.276836   7.035497
                   36         37         38         39         40
    36  C    0.000000
    37  H    1.102244   0.000000
    38  C    1.523854   2.162142   0.000000
    39  H    2.154648   2.453692   1.105965   0.000000
    40  H    2.153431   2.500900   1.100163   1.779030   0.000000
    41  O    6.512122   6.292802   7.117299   7.957795   6.479993
    42  O    2.424919   3.368102   1.412021   2.092694   2.038638
    43  H    2.468462   3.491125   1.930795   2.428215   2.821580
    44  O    5.324875   4.769870   5.786598   6.352189   5.063763
    45  C    6.668553   6.152565   7.134293   7.740281   6.374497
    46  H    7.325840   6.707432   7.711901   8.203070   6.912133
    47  H    6.982509   6.459184   7.646633   8.288319   6.995932
    48  H    6.999502   6.632317   7.331380   8.022904   6.499971
                   41         42         43         44         45
    41  O    0.000000
    42  O    7.732392   0.000000
    43  H    8.214798   0.968872   0.000000
    44  O    2.660398   6.781489   7.347788   0.000000
    45  C    2.182149   8.049160   8.628815   1.416747   0.000000
    46  H    3.235080   8.716126   9.330469   2.025369   1.095773
    47  H    1.952520   8.543148   9.031202   2.082617   1.101432
    48  H    1.891251   8.099027   8.733714   2.088596   1.102823
                   46         47         48
    46  H    0.000000
    47  H    1.794319   0.000000
    48  H    1.795438   1.791488   0.000000
 Symmetry turned off by external request.
 Stoichiometry    C20H22O6
 Framework group  C1[X(C20H22O6)]
 Deg. of freedom   138
 Full point group                 C1      NOp   1
 Rotational constants (GHZ):           0.2581913           0.0815938           0.0711057
 Standard basis: def2SVP (5D, 7F)
   474 basis functions,   804 primitive gaussians,   500 cartesian basis functions
    95 alpha electrons       95 beta electrons
       nuclear repulsion energy      2191.4211992808 Hartrees.
 NAtoms=   48 NActive=   48 NUniq=   48 SFac= 1.00D+00 NAtFMM=   60 NAOKFM=F Big=F
 Integral buffers will be    131072 words long.
 Raffenetti 2 integral format.
 Two-electron integral symmetry is turned off.
 Nuclear repulsion after empirical dispersion term =     2191.3266693427 Hartrees.
 Using the following non-standard input for PCM:
 PDENS=7.0
 --- end of non-standard input.
 ------------------------------------------------------------------------------
 Polarizable Continuum Model (PCM)
 =================================
 Model                : C-PCM.
 Atomic radii         : UFF (Universal Force Field).
 Polarization charges : Total charges.
 Charge compensation  : None.
 Solution method      : On-the-fly selection.
 Cavity type          : Scaled VdW (van der Waals Surface) (Alpha=1.100).
 Cavity algorithm     : GePol (No added spheres)
                        Default sphere list used, NSphG=   48.
                        Lebedev-Laikov grids with approx.  7.0 points / Ang**2.
                        Smoothing algorithm: York/Karplus (Gamma=1.0000).
                        Polarization charges: spherical gaussians, with
                                              point-specific exponents (IZeta= 3).
                        Self-potential: point-specific (ISelfS= 7).
                        Self-field    : sphere-specific E.n sum rule (ISelfD= 2).
 1st derivatives      : Analytical E(r).r(x)/FMM algorithm (CHGder, D1EAlg=3).
                        Cavity 1st derivative terms included.
 Solvent              : Water, Eps=  78.355300 Eps(inf)=   1.777849
 ------------------------------------------------------------------------------
 One-electron integrals computed using PRISM.
   1 Symmetry operations used in ECPInt.
 ECPInt:  NShTT=   24753 NPrTT=   89657 LenC2=   19544 LenP2D=   46855.
 LDataN:  DoStor=T MaxTD1= 4 Len=   56
 NBasis=   474 RedAO= T EigKep=  2.00D-04  NBF=   474
 NBsUse=   474 1.00D-06 EigRej= -1.00D+00 NBFU=   474
 ExpMin= 1.22D-01 ExpMax= 2.27D+03 ExpMxC= 3.41D+02 IAcc=3 IRadAn=         5 AccDes= 0.00D+00
 Harris functional with IExCor=  402 and IRadAn=       5 diagonalized for initial guess.
 HarFok:  IExCor=  402 AccDes= 0.00D+00 IRadAn=         5 IDoV= 1 UseB2=F ITyADJ=14
 ICtDFT=  3500011 ScaDFX=  1.000000  1.000000  1.000000  1.000000
 FoFCou: FMM=F IPFlag=           0 FMFlag=      100000 FMFlg1=           0
         NFxFlg=           0 DoJE=T BraDBF=F KetDBF=T FulRan=T
         wScrn=  0.000000 ICntrl=       500 IOpCl=  0 I1Cent=   200000004 NGrid=           0
         NMat0=    1 NMatS0=      1 NMatT0=    0 NMatD0=    1 NMtDS0=    0 NMtDT0=    0
 Symmetry not used in FoFCou.
 Mixing orbitals, IMix= 1 IMixAn=  0 NRI=1 NE=   95 Coef=  7.07106781D-01  7.07106781D-01
 Requested convergence on RMS density matrix=1.00D-08 within 400 cycles.
 Requested convergence on MAX density matrix=1.00D-06.
 Requested convergence on             energy=1.00D-06.
 No special actions if energy rises.
 Inv3:  Mode=1 IEnd=    83761968.
 Iteration    1 A*A^-1 deviation from unit magnitude is 3.33D-15 for   1755.
 Iteration    1 A*A^-1 deviation from orthogonality  is 2.37D-15 for   4110   4010.
 Iteration    1 A^-1*A deviation from unit magnitude is 3.33D-15 for   1755.
 Iteration    1 A^-1*A deviation from orthogonality  is 2.55D-15 for   3775   1654.
 Error on total polarization charges =  0.01348
 SCF Done:  E(RB3LYP) =  -1225.77629706     A.U. after   14 cycles
            NFock= 14  Conv=0.55D-08     -V/T= 2.0097
 QCSCF skips out because SCF is already converged.

 **********************************************************************

            Population analysis using the SCF Density.

 **********************************************************************

 Alpha  occ. eigenvalues --  -19.17457 -19.17329 -19.16346 -19.13746 -19.13179
 Alpha  occ. eigenvalues --  -19.12217 -10.27947 -10.26347 -10.26197 -10.25471
 Alpha  occ. eigenvalues --  -10.25294 -10.24281 -10.24132 -10.23619 -10.22414
 Alpha  occ. eigenvalues --  -10.21983 -10.21828 -10.21827 -10.20222 -10.20036
 Alpha  occ. eigenvalues --  -10.19964 -10.19476 -10.19409 -10.19044 -10.18934
 Alpha  occ. eigenvalues --  -10.18864  -1.08059  -1.06925  -1.05216  -1.02930
 Alpha  occ. eigenvalues --   -1.01446  -1.01053  -0.86395  -0.85533  -0.80635
 Alpha  occ. eigenvalues --   -0.78746  -0.76810  -0.75466  -0.74875  -0.73294
 Alpha  occ. eigenvalues --   -0.69546  -0.69173  -0.67170  -0.65993  -0.63461
 Alpha  occ. eigenvalues --   -0.62076  -0.60765  -0.59505  -0.57341  -0.55602
 Alpha  occ. eigenvalues --   -0.55201  -0.53098  -0.52373  -0.51818  -0.51116
 Alpha  occ. eigenvalues --   -0.50009  -0.49776  -0.49132  -0.48210  -0.47530
 Alpha  occ. eigenvalues --   -0.47123  -0.46905  -0.45513  -0.45034  -0.44802
 Alpha  occ. eigenvalues --   -0.44143  -0.43998  -0.43292  -0.42864  -0.42693
 Alpha  occ. eigenvalues --   -0.41146  -0.40624  -0.40307  -0.39525  -0.39065
 Alpha  occ. eigenvalues --   -0.38502  -0.37510  -0.36859  -0.36314  -0.35959
 Alpha  occ. eigenvalues --   -0.35577  -0.35015  -0.34475  -0.33755  -0.33448
 Alpha  occ. eigenvalues --   -0.32264  -0.31826  -0.28863  -0.28257  -0.26892
 Alpha  occ. eigenvalues --   -0.26639  -0.24419  -0.23995  -0.22472  -0.21186
 Alpha virt. eigenvalues --   -0.09946  -0.03424  -0.01267  -0.00722   0.02249
 Alpha virt. eigenvalues --    0.03859   0.05432   0.06145   0.06678   0.06970
 Alpha virt. eigenvalues --    0.07358   0.08660   0.08899   0.09272   0.10604
 Alpha virt. eigenvalues --    0.11109   0.11299   0.11698   0.11883   0.12457
 Alpha virt. eigenvalues --    0.12704   0.13120   0.13410   0.13635   0.13712
 Alpha virt. eigenvalues --    0.14310   0.15494   0.15865   0.16796   0.17709
 Alpha virt. eigenvalues --    0.17841   0.18598   0.19789   0.20314   0.20777
 Alpha virt. eigenvalues --    0.21340   0.22460   0.22860   0.23569   0.24640
 Alpha virt. eigenvalues --    0.26489   0.26735   0.27636   0.28224   0.28965
 Alpha virt. eigenvalues --    0.29779   0.31250   0.31667   0.31840   0.32408
 Alpha virt. eigenvalues --    0.33874   0.34379   0.34945   0.36767   0.37954
 Alpha virt. eigenvalues --    0.38373   0.39057   0.39234   0.40645   0.41767
 Alpha virt. eigenvalues --    0.42929   0.43693   0.43798   0.44077   0.45112
 Alpha virt. eigenvalues --    0.45491   0.45930   0.46190   0.46428   0.47331
 Alpha virt. eigenvalues --    0.48012   0.48273   0.48819   0.49394   0.49797
 Alpha virt. eigenvalues --    0.50518   0.51149   0.51279   0.51756   0.52328
 Alpha virt. eigenvalues --    0.52751   0.53691   0.54131   0.54386   0.55497
 Alpha virt. eigenvalues --    0.56160   0.56792   0.57236   0.58074   0.58621
 Alpha virt. eigenvalues --    0.59598   0.59833   0.60076   0.61330   0.61668
 Alpha virt. eigenvalues --    0.61955   0.62499   0.62983   0.63320   0.63604
 Alpha virt. eigenvalues --    0.64276   0.64388   0.64505   0.65009   0.65251
 Alpha virt. eigenvalues --    0.65455   0.65710   0.66174   0.66515   0.66599
 Alpha virt. eigenvalues --    0.67005   0.67161   0.67561   0.67758   0.68401
 Alpha virt. eigenvalues --    0.68835   0.69606   0.69847   0.70409   0.70953
 Alpha virt. eigenvalues --    0.72010   0.72245   0.72713   0.74156   0.74702
 Alpha virt. eigenvalues --    0.75504   0.75733   0.75961   0.77270   0.78286
 Alpha virt. eigenvalues --    0.79238   0.79669   0.80124   0.80891   0.81986
 Alpha virt. eigenvalues --    0.83333   0.84272   0.85315   0.86276   0.87342
 Alpha virt. eigenvalues --    0.88569   0.89150   0.92296   0.94145   0.95749
 Alpha virt. eigenvalues --    0.96736   0.97410   0.98834   1.00440   1.00898
 Alpha virt. eigenvalues --    1.01562   1.01992   1.02697   1.03567   1.04579
 Alpha virt. eigenvalues --    1.06090   1.06569   1.09865   1.10493   1.11461
 Alpha virt. eigenvalues --    1.11720   1.12641   1.14759   1.15794   1.17237
 Alpha virt. eigenvalues --    1.18436   1.19037   1.20388   1.21355   1.21942
 Alpha virt. eigenvalues --    1.22283   1.24271   1.24916   1.26001   1.26422
 Alpha virt. eigenvalues --    1.26837   1.27539   1.28511   1.28721   1.30580
 Alpha virt. eigenvalues --    1.31220   1.32017   1.33583   1.35459   1.36908
 Alpha virt. eigenvalues --    1.38736   1.39206   1.40261   1.41609   1.41736
 Alpha virt. eigenvalues --    1.42868   1.45691   1.46199   1.46988   1.47910
 Alpha virt. eigenvalues --    1.48187   1.48900   1.49815   1.51516   1.53112
 Alpha virt. eigenvalues --    1.53875   1.56115   1.57321   1.58556   1.58991
 Alpha virt. eigenvalues --    1.59895   1.60827   1.61590   1.63092   1.63802
 Alpha virt. eigenvalues --    1.65425   1.65977   1.66230   1.67550   1.68036
 Alpha virt. eigenvalues --    1.68418   1.69158   1.71033   1.71496   1.71936
 Alpha virt. eigenvalues --    1.73164   1.73505   1.73829   1.74584   1.74627
 Alpha virt. eigenvalues --    1.75020   1.75284   1.75451   1.76477   1.76950
 Alpha virt. eigenvalues --    1.77384   1.77565   1.78243   1.79031   1.79825
 Alpha virt. eigenvalues --    1.81052   1.81355   1.81594   1.82170   1.82616
 Alpha virt. eigenvalues --    1.83124   1.83761   1.84848   1.85265   1.85403
 Alpha virt. eigenvalues --    1.86895   1.87152   1.88196   1.88516   1.88866
 Alpha virt. eigenvalues --    1.89316   1.90646   1.91083   1.92035   1.92214
 Alpha virt. eigenvalues --    1.93324   1.94567   1.95512   1.97136   1.97457
 Alpha virt. eigenvalues --    1.98166   2.00220   2.00708   2.02467   2.02936
 Alpha virt. eigenvalues --    2.03835   2.05202   2.06259   2.08897   2.09512
 Alpha virt. eigenvalues --    2.09965   2.11387   2.12224   2.12674   2.13638
 Alpha virt. eigenvalues --    2.14456   2.14865   2.15250   2.16883   2.17350
 Alpha virt. eigenvalues --    2.18118   2.19331   2.21277   2.21737   2.22078
 Alpha virt. eigenvalues --    2.22786   2.23114   2.25489   2.26378   2.27087
 Alpha virt. eigenvalues --    2.27671   2.28201   2.28877   2.31199   2.31907
 Alpha virt. eigenvalues --    2.33018   2.33764   2.34449   2.34801   2.35982
 Alpha virt. eigenvalues --    2.38091   2.38820   2.39464   2.40286   2.41115
 Alpha virt. eigenvalues --    2.43239   2.45254   2.46225   2.49483   2.50538
 Alpha virt. eigenvalues --    2.52399   2.54574   2.55848   2.56342   2.56714
 Alpha virt. eigenvalues --    2.60616   2.61379   2.62684   2.63907   2.64201
 Alpha virt. eigenvalues --    2.65388   2.65700   2.67195   2.70185   2.70870
 Alpha virt. eigenvalues --    2.71865   2.72341   2.72790   2.74621   2.77113
 Alpha virt. eigenvalues --    2.78550   2.79575   2.80096   2.80506   2.82422
 Alpha virt. eigenvalues --    2.83089   2.83367   2.83612   2.84630   2.87967
 Alpha virt. eigenvalues --    2.89306   2.89537   2.89862   2.90449   2.91519
 Alpha virt. eigenvalues --    2.91923   2.94818   2.97056   2.98458   3.00548
 Alpha virt. eigenvalues --    3.03187   3.04078   3.05719   3.05902   3.06659
 Alpha virt. eigenvalues --    3.07806   3.08048   3.08837   3.11116   3.13884
 Alpha virt. eigenvalues --    3.14573   3.16153   3.22567   3.24484   3.26368
 Alpha virt. eigenvalues --    3.29988   3.32547   3.33883   3.38445   3.39533
 Alpha virt. eigenvalues --    3.43216   3.45670   3.51534   3.54475   3.58893
 Alpha virt. eigenvalues --    3.69507   3.74025   3.76186   3.76540
          Condensed to atoms (all electrons):
               1          2          3          4          5          6
     1  C    5.329170   0.173449   0.155152  -0.178027   0.122476   0.208764
     2  C    0.173449   5.434821   0.217101   0.070406  -0.127881   0.058823
     3  C    0.155152   0.217101   5.181985   0.120161   0.072174  -0.156985
     4  C   -0.178027   0.070406   0.120161   5.272062   0.205067   0.142321
     5  C    0.122476  -0.127881   0.072174   0.205067   5.316509   0.163615
     6  C    0.208764   0.058823  -0.156985   0.142321   0.163615   5.314547
     7  H   -0.078615   0.462160  -0.090738   0.020791  -0.003776   0.018687
     8  H    0.016971  -0.002853   0.017192  -0.084418   0.454800  -0.072571
     9  H   -0.076711   0.017220  -0.002399   0.016712  -0.070861   0.447856
    10  C    0.334155  -0.099011   0.016275  -0.002312   0.019013  -0.090385
    11  H   -0.044610  -0.016082   0.000593  -0.000046  -0.000460   0.011095
    12  C   -0.052991   0.012996  -0.000723   0.000113   0.000568  -0.024792
    13  H   -0.022550  -0.000498   0.000051  -0.000071   0.000132   0.006389
    14  C    0.010975  -0.000212   0.000001   0.000000   0.000001   0.000146
    15  H   -0.000172  -0.000002  -0.000000   0.000000   0.000002   0.000114
    16  H   -0.000074   0.000026  -0.000000  -0.000000  -0.000004  -0.000152
    17  O   -0.000064   0.002586  -0.072296   0.373905  -0.071222   0.005751
    18  O    0.000548  -0.000012  -0.000000  -0.000000   0.000000   0.000003
    19  H   -0.000007  -0.000002   0.000000   0.000000  -0.000000   0.000000
    20  O    0.005263  -0.074143   0.403805  -0.089929   0.004518  -0.000160
    21  C    0.000883  -0.002482  -0.051795   0.005987  -0.000190   0.000059
    22  H   -0.000014   0.000101   0.004670  -0.000056   0.000019   0.000002
    23  H   -0.000417   0.005221   0.002972   0.001791  -0.000282  -0.000004
    24  H    0.000857   0.006952  -0.014206  -0.001674   0.000137  -0.000085
    25  C    0.000000  -0.000002  -0.000141   0.000024   0.000298  -0.000006
    26  C    0.000000   0.000000   0.000001  -0.000081  -0.000078  -0.000003
    27  C   -0.000000   0.000000  -0.000000  -0.000010  -0.000008  -0.000000
    28  C    0.000000  -0.000000  -0.000000  -0.000000   0.000000   0.000000
    29  C    0.000000  -0.000000   0.000000  -0.000000  -0.000000  -0.000000
    30  C   -0.000000  -0.000000   0.000002   0.000007   0.000005   0.000000
    31  H   -0.000000   0.000000  -0.000004  -0.000054  -0.000006   0.000003
    32  H   -0.000000   0.000000   0.000000  -0.000000   0.000000  -0.000000
    33  H   -0.000000  -0.000000   0.000000  -0.000002   0.000000   0.000000
    34  C    0.000008   0.000027   0.000572   0.002182  -0.000436  -0.000171
    35  H   -0.000002   0.000012  -0.000142  -0.000224   0.000023  -0.000005
    36  C   -0.000079   0.000141   0.003507  -0.043516  -0.014037   0.000913
    37  H   -0.000150  -0.000127   0.001160  -0.002817   0.004537   0.000144
    38  C   -0.000010   0.000019  -0.000956  -0.003102  -0.003259   0.000231
    39  H    0.000007  -0.000000  -0.000176  -0.000462  -0.000696  -0.000272
    40  H    0.000000  -0.000001   0.000049   0.000448  -0.000042   0.000004
    41  O   -0.000000   0.000000  -0.000000   0.000000   0.000000  -0.000000
    42  O   -0.000000   0.000000   0.000025   0.000081   0.000018   0.000001
    43  H    0.000000  -0.000007  -0.000043   0.000172   0.000030  -0.000002
    44  O   -0.000000   0.000000  -0.000000   0.000000   0.000000   0.000000
    45  C   -0.000000   0.000000   0.000000  -0.000000  -0.000000  -0.000000
    46  H   -0.000000   0.000000   0.000000   0.000000  -0.000000  -0.000000
    47  H    0.000000   0.000000  -0.000000  -0.000000   0.000000  -0.000000
    48  H    0.000000  -0.000000  -0.000000  -0.000000   0.000000   0.000000
               7          8          9         10         11         12
     1  C   -0.078615   0.016971  -0.076711   0.334155  -0.044610  -0.052991
     2  C    0.462160  -0.002853   0.017220  -0.099011  -0.016082   0.012996
     3  C   -0.090738   0.017192  -0.002399   0.016275   0.000593  -0.000723
     4  C    0.020791  -0.084418   0.016712  -0.002312  -0.000046   0.000113
     5  C   -0.003776   0.454800  -0.070861   0.019013  -0.000460   0.000568
     6  C    0.018687  -0.072571   0.447856  -0.090385   0.011095  -0.024792
     7  H    0.710545  -0.000002  -0.000272  -0.015923   0.005164   0.000524
     8  H   -0.000002   0.685278  -0.013776  -0.000315   0.000009  -0.000003
     9  H   -0.000272  -0.013776   0.711477  -0.021834   0.000244   0.005833
    10  C   -0.015923  -0.000315  -0.021834   5.026713   0.407516   0.496322
    11  H    0.005164   0.000009   0.000244   0.407516   0.705067  -0.072611
    12  C    0.000524  -0.000003   0.005833   0.496322  -0.072611   5.170361
    13  H    0.000012   0.000032   0.001440  -0.029727   0.010223   0.388021
    14  C   -0.000059  -0.000001   0.000064  -0.037718  -0.017943   0.330593
    15  H   -0.000001  -0.000000   0.000080   0.017597   0.001387  -0.040001
    16  H    0.000002   0.000000  -0.000084  -0.022025   0.000807  -0.004047
    17  O   -0.000050  -0.009672  -0.000098   0.000001  -0.000000  -0.000000
    18  O   -0.000028  -0.000000   0.000005   0.005200   0.020004  -0.082985
    19  H    0.000001   0.000000  -0.000001   0.000346  -0.001109   0.010363
    20  O   -0.007787  -0.000064   0.000005  -0.000070  -0.000001   0.000000
    21  C    0.004752   0.000009  -0.000000  -0.000046  -0.000002  -0.000001
    22  H   -0.000375  -0.000000  -0.000000  -0.000001   0.000000  -0.000000
    23  H    0.001391   0.000001   0.000000   0.000021  -0.000007  -0.000000
    24  H   -0.001331  -0.000000  -0.000000   0.000047   0.000005   0.000000
    25  C    0.000000   0.000015   0.000000  -0.000000   0.000000  -0.000000
    26  C    0.000000  -0.000012  -0.000000   0.000000   0.000000  -0.000000
    27  C    0.000000   0.000001   0.000000   0.000000  -0.000000  -0.000000
    28  C    0.000000   0.000000   0.000000  -0.000000   0.000000  -0.000000
    29  C   -0.000000   0.000000   0.000000   0.000000   0.000000  -0.000000
    30  C    0.000000   0.000001  -0.000000  -0.000000  -0.000000   0.000000
    31  H    0.000000   0.000005   0.000000   0.000000  -0.000000  -0.000000
    32  H   -0.000000   0.000000  -0.000000  -0.000000  -0.000000   0.000000
    33  H    0.000000   0.000000  -0.000000  -0.000000  -0.000000   0.000000
    34  C   -0.000000   0.001651  -0.000003  -0.000000   0.000000   0.000000
    35  H   -0.000000  -0.000047   0.000000   0.000000  -0.000000  -0.000000
    36  C    0.000008  -0.001126  -0.000040   0.000001   0.000000  -0.000000
    37  H    0.000001   0.004233   0.000173  -0.000002   0.000000   0.000001
    38  C   -0.000000  -0.005549  -0.000001   0.000000  -0.000000  -0.000000
    39  H    0.000000   0.003678  -0.000003  -0.000000  -0.000000  -0.000000
    40  H    0.000000   0.000003  -0.000000   0.000000   0.000000   0.000000
    41  O   -0.000000  -0.000000   0.000000  -0.000000  -0.000000   0.000000
    42  O   -0.000000  -0.000085   0.000000   0.000000   0.000000  -0.000000
    43  H    0.000000   0.000011   0.000000   0.000000  -0.000000   0.000000
    44  O   -0.000000   0.000000  -0.000000  -0.000000  -0.000000   0.000000
    45  C    0.000000  -0.000000   0.000000   0.000000  -0.000000  -0.000000
    46  H   -0.000000  -0.000000   0.000000   0.000000   0.000000  -0.000000
    47  H    0.000000   0.000000  -0.000000  -0.000000   0.000000   0.000000
    48  H   -0.000000   0.000000  -0.000000  -0.000000  -0.000000   0.000000
              13         14         15         16         17         18
     1  C   -0.022550   0.010975  -0.000172  -0.000074  -0.000064   0.000548
     2  C   -0.000498  -0.000212  -0.000002   0.000026   0.002586  -0.000012
     3  C    0.000051   0.000001  -0.000000  -0.000000  -0.072296  -0.000000
     4  C   -0.000071   0.000000   0.000000  -0.000000   0.373905  -0.000000
     5  C    0.000132   0.000001   0.000002  -0.000004  -0.071222   0.000000
     6  C    0.006389   0.000146   0.000114  -0.000152   0.005751   0.000003
     7  H    0.000012  -0.000059  -0.000001   0.000002  -0.000050  -0.000028
     8  H    0.000032  -0.000001  -0.000000   0.000000  -0.009672  -0.000000
     9  H    0.001440   0.000064   0.000080  -0.000084  -0.000098   0.000005
    10  C   -0.029727  -0.037718   0.017597  -0.022025   0.000001   0.005200
    11  H    0.010223  -0.017943   0.001387   0.000807  -0.000000   0.020004
    12  C    0.388021   0.330593  -0.040001  -0.004047  -0.000000  -0.082985
    13  H    0.674843  -0.040278  -0.010051   0.004918  -0.000000   0.002760
    14  C   -0.040278   4.420092   0.373471   0.363781   0.000000   0.359634
    15  H   -0.010051   0.373471   0.741928  -0.048208   0.000000  -0.031679
    16  H    0.004918   0.363781  -0.048208   0.721243   0.000000  -0.028050
    17  O   -0.000000   0.000000   0.000000   0.000000   7.978867   0.000000
    18  O    0.002760   0.359634  -0.031679  -0.028050   0.000000   7.766596
    19  H   -0.000404  -0.019897  -0.005165  -0.004430  -0.000000   0.318042
    20  O    0.000000  -0.000000   0.000000  -0.000000   0.001708   0.000000
    21  C    0.000000   0.000000   0.000000  -0.000000   0.000172  -0.000000
    22  H   -0.000000  -0.000000   0.000000  -0.000000   0.000007   0.000000
    23  H   -0.000000  -0.000000   0.000000   0.000000  -0.000016   0.000000
    24  H    0.000000   0.000000  -0.000000  -0.000000  -0.000005   0.000000
    25  C    0.000000   0.000000   0.000000  -0.000000   0.005401  -0.000000
    26  C   -0.000000   0.000000   0.000000  -0.000000  -0.000056   0.000000
    27  C   -0.000000   0.000000   0.000000  -0.000000  -0.000005   0.000000
    28  C    0.000000   0.000000   0.000000  -0.000000   0.000000   0.000000
    29  C    0.000000   0.000000   0.000000  -0.000000   0.000001   0.000000
    30  C   -0.000000  -0.000000  -0.000000   0.000000  -0.000184  -0.000000
    31  H   -0.000000   0.000000   0.000000  -0.000000  -0.000008   0.000000
    32  H   -0.000000  -0.000000  -0.000000   0.000000  -0.000000   0.000000
    33  H   -0.000000  -0.000000   0.000000   0.000000  -0.000028   0.000000
    34  C    0.000000  -0.000000   0.000000   0.000000  -0.048888   0.000000
    35  H    0.000000   0.000000  -0.000000   0.000000   0.003879  -0.000000
    36  C   -0.000000   0.000000   0.000000  -0.000000   0.239944   0.000000
    37  H    0.000001  -0.000000  -0.000000   0.000000  -0.028864  -0.000000
    38  C   -0.000000   0.000000  -0.000000  -0.000000  -0.038342  -0.000000
    39  H   -0.000000  -0.000000   0.000000   0.000000  -0.002946   0.000000
    40  H   -0.000000  -0.000000  -0.000000   0.000000   0.004184  -0.000000
    41  O   -0.000000   0.000000  -0.000000   0.000000  -0.000000   0.000000
    42  O    0.000000   0.000000   0.000000  -0.000000  -0.006817   0.000000
    43  H   -0.000000  -0.000000  -0.000000   0.000000   0.019661  -0.000000
    44  O    0.000000  -0.000000  -0.000000   0.000000  -0.000000   0.000000
    45  C   -0.000000   0.000000   0.000000  -0.000000  -0.000000   0.000000
    46  H   -0.000000  -0.000000   0.000000   0.000000  -0.000000   0.000000
    47  H    0.000000   0.000000  -0.000000  -0.000000   0.000000   0.000000
    48  H    0.000000   0.000000  -0.000000  -0.000000   0.000000   0.000000
              19         20         21         22         23         24
     1  C   -0.000007   0.005263   0.000883  -0.000014  -0.000417   0.000857
     2  C   -0.000002  -0.074143  -0.002482   0.000101   0.005221   0.006952
     3  C    0.000000   0.403805  -0.051795   0.004670   0.002972  -0.014206
     4  C    0.000000  -0.089929   0.005987  -0.000056   0.001791  -0.001674
     5  C   -0.000000   0.004518  -0.000190   0.000019  -0.000282   0.000137
     6  C    0.000000  -0.000160   0.000059   0.000002  -0.000004  -0.000085
     7  H    0.000001  -0.007787   0.004752  -0.000375   0.001391  -0.001331
     8  H    0.000000  -0.000064   0.000009  -0.000000   0.000001  -0.000000
     9  H   -0.000001   0.000005  -0.000000  -0.000000   0.000000  -0.000000
    10  C    0.000346  -0.000070  -0.000046  -0.000001   0.000021   0.000047
    11  H   -0.001109  -0.000001  -0.000002   0.000000  -0.000007   0.000005
    12  C    0.010363   0.000000  -0.000001  -0.000000  -0.000000   0.000000
    13  H   -0.000404   0.000000   0.000000  -0.000000  -0.000000   0.000000
    14  C   -0.019897  -0.000000   0.000000  -0.000000  -0.000000   0.000000
    15  H   -0.005165   0.000000   0.000000   0.000000   0.000000  -0.000000
    16  H   -0.004430  -0.000000  -0.000000  -0.000000   0.000000  -0.000000
    17  O   -0.000000   0.001708   0.000172   0.000007  -0.000016  -0.000005
    18  O    0.318042   0.000000  -0.000000   0.000000   0.000000   0.000000
    19  H    0.515828  -0.000000  -0.000000  -0.000000   0.000000  -0.000000
    20  O   -0.000000   7.874099   0.308944  -0.023813  -0.034087  -0.028333
    21  C   -0.000000   0.308944   4.375135   0.394082   0.387920   0.399083
    22  H   -0.000000  -0.023813   0.394082   0.632273  -0.023154  -0.023996
    23  H    0.000000  -0.034087   0.387920  -0.023154   0.673346  -0.042330
    24  H   -0.000000  -0.028333   0.399083  -0.023996  -0.042330   0.668320
    25  C   -0.000000  -0.000002   0.000000   0.000000  -0.000001  -0.000000
    26  C   -0.000000   0.000000   0.000000  -0.000000  -0.000000   0.000000
    27  C   -0.000000   0.000000   0.000000   0.000000  -0.000000   0.000000
    28  C   -0.000000  -0.000000   0.000000  -0.000000  -0.000000   0.000000
    29  C   -0.000000   0.000000   0.000000   0.000000  -0.000000   0.000000
    30  C    0.000000  -0.000000  -0.000000   0.000000   0.000000  -0.000000
    31  H   -0.000000  -0.000000  -0.000000   0.000000   0.000000  -0.000000
    32  H    0.000000   0.000000  -0.000000  -0.000000   0.000000   0.000000
    33  H   -0.000000  -0.000001  -0.000000   0.000000   0.000000  -0.000000
    34  C   -0.000000   0.000067  -0.000010   0.000001   0.000003   0.000000
    35  H    0.000000   0.000445  -0.000000  -0.000002  -0.000011   0.000002
    36  C   -0.000000  -0.000385   0.000027  -0.000005   0.000005  -0.000000
    37  H    0.000000  -0.000001   0.000005   0.000000  -0.000000  -0.000000
    38  C    0.000000  -0.000010   0.000000   0.000000  -0.000000  -0.000000
    39  H   -0.000000  -0.000001  -0.000000   0.000000   0.000000  -0.000000
    40  H    0.000000  -0.000000   0.000000   0.000000   0.000000  -0.000000
    41  O    0.000000  -0.000000  -0.000000  -0.000000   0.000000  -0.000000
    42  O   -0.000000  -0.000000   0.000000  -0.000000  -0.000000   0.000000
    43  H    0.000000   0.000028  -0.000002   0.000001   0.000001  -0.000000
    44  O    0.000000  -0.000000  -0.000000   0.000000   0.000000  -0.000000
    45  C   -0.000000   0.000000   0.000000   0.000000  -0.000000  -0.000000
    46  H   -0.000000  -0.000000   0.000000   0.000000   0.000000  -0.000000
    47  H   -0.000000  -0.000000  -0.000000  -0.000000  -0.000000   0.000000
    48  H    0.000000  -0.000000  -0.000000  -0.000000   0.000000   0.000000
              25         26         27         28         29         30
     1  C    0.000000   0.000000  -0.000000   0.000000   0.000000  -0.000000
     2  C   -0.000002   0.000000   0.000000  -0.000000  -0.000000  -0.000000
     3  C   -0.000141   0.000001  -0.000000  -0.000000   0.000000   0.000002
     4  C    0.000024  -0.000081  -0.000010  -0.000000  -0.000000   0.000007
     5  C    0.000298  -0.000078  -0.000008   0.000000  -0.000000   0.000005
     6  C   -0.000006  -0.000003  -0.000000   0.000000  -0.000000   0.000000
     7  H    0.000000   0.000000   0.000000   0.000000  -0.000000   0.000000
     8  H    0.000015  -0.000012   0.000001   0.000000   0.000000   0.000001
     9  H    0.000000  -0.000000   0.000000   0.000000   0.000000  -0.000000
    10  C   -0.000000   0.000000   0.000000  -0.000000   0.000000  -0.000000
    11  H    0.000000   0.000000  -0.000000   0.000000   0.000000  -0.000000
    12  C   -0.000000  -0.000000  -0.000000  -0.000000  -0.000000   0.000000
    13  H    0.000000  -0.000000  -0.000000   0.000000   0.000000  -0.000000
    14  C    0.000000   0.000000   0.000000   0.000000   0.000000  -0.000000
    15  H    0.000000   0.000000   0.000000   0.000000   0.000000  -0.000000
    16  H   -0.000000  -0.000000  -0.000000  -0.000000  -0.000000   0.000000
    17  O    0.005401  -0.000056  -0.000005   0.000000   0.000001  -0.000184
    18  O   -0.000000   0.000000   0.000000   0.000000   0.000000  -0.000000
    19  H   -0.000000  -0.000000  -0.000000  -0.000000  -0.000000   0.000000
    20  O   -0.000002   0.000000   0.000000  -0.000000   0.000000  -0.000000
    21  C    0.000000   0.000000   0.000000   0.000000   0.000000  -0.000000
    22  H    0.000000  -0.000000   0.000000  -0.000000   0.000000   0.000000
    23  H   -0.000001  -0.000000  -0.000000  -0.000000  -0.000000   0.000000
    24  H   -0.000000   0.000000   0.000000   0.000000   0.000000  -0.000000
    25  C    5.183926   0.167894   0.137485  -0.142329   0.113880   0.130218
    26  C    0.167894   5.435955   0.210723   0.068175  -0.080629   0.031137
    27  C    0.137485   0.210723   5.361637  -0.001914  -0.000861  -0.113444
    28  C   -0.142329   0.068175  -0.001914   5.161428   0.131930   0.131644
    29  C    0.113880  -0.080629  -0.000861   0.131930   5.392627   0.194008
    30  C    0.130218   0.031137  -0.113444   0.131644   0.194008   5.286814
    31  H   -0.057495   0.423410  -0.062062   0.015971  -0.004504   0.015060
    32  H    0.015689  -0.003592   0.021036  -0.063396   0.419606  -0.071913
    33  H   -0.078252   0.014501  -0.004146   0.015387  -0.067324   0.455021
    34  C    0.496554  -0.108799   0.021570  -0.001458   0.016599  -0.095935
    35  H   -0.030013   0.011826  -0.000131  -0.000083   0.001543  -0.024446
    36  C   -0.003821  -0.010678  -0.001286   0.000153  -0.001195   0.015028
    37  H   -0.020829   0.006563   0.001874  -0.000106   0.000094  -0.000735
    38  C   -0.004761  -0.001178  -0.000002  -0.000001   0.000009  -0.000358
    39  H   -0.000529   0.000057   0.000018  -0.000000  -0.000000   0.000016
    40  H    0.002787   0.001952  -0.000578  -0.000001  -0.000012  -0.000050
    41  O   -0.000258   0.005164  -0.121961   0.657573  -0.073863   0.004485
    42  O   -0.002900   0.000137   0.000007  -0.000000   0.000000  -0.000083
    43  H    0.000339  -0.000016   0.000000  -0.000000  -0.000001  -0.000011
    44  O    0.002903  -0.074806   0.400125  -0.062775   0.007017  -0.000387
    45  C   -0.000226   0.007981  -0.037588  -0.014009   0.001291   0.000047
    46  H    0.000007  -0.000580  -0.002785   0.003822   0.000290  -0.000018
    47  H    0.000033   0.000356   0.009576  -0.010490  -0.002156   0.000094
    48  H    0.000009   0.000391   0.010000  -0.011971  -0.002500   0.000127
              31         32         33         34         35         36
     1  C   -0.000000  -0.000000  -0.000000   0.000008  -0.000002  -0.000079
     2  C    0.000000   0.000000  -0.000000   0.000027   0.000012   0.000141
     3  C   -0.000004   0.000000   0.000000   0.000572  -0.000142   0.003507
     4  C   -0.000054  -0.000000  -0.000002   0.002182  -0.000224  -0.043516
     5  C   -0.000006   0.000000   0.000000  -0.000436   0.000023  -0.014037
     6  C    0.000003  -0.000000   0.000000  -0.000171  -0.000005   0.000913
     7  H    0.000000  -0.000000   0.000000  -0.000000  -0.000000   0.000008
     8  H    0.000005   0.000000   0.000000   0.001651  -0.000047  -0.001126
     9  H    0.000000  -0.000000  -0.000000  -0.000003   0.000000  -0.000040
    10  C    0.000000  -0.000000  -0.000000  -0.000000   0.000000   0.000001
    11  H   -0.000000  -0.000000  -0.000000   0.000000  -0.000000   0.000000
    12  C   -0.000000   0.000000   0.000000   0.000000  -0.000000  -0.000000
    13  H   -0.000000  -0.000000  -0.000000   0.000000   0.000000  -0.000000
    14  C    0.000000  -0.000000  -0.000000  -0.000000   0.000000   0.000000
    15  H    0.000000  -0.000000   0.000000   0.000000  -0.000000   0.000000
    16  H   -0.000000   0.000000   0.000000   0.000000   0.000000  -0.000000
    17  O   -0.000008  -0.000000  -0.000028  -0.048888   0.003879   0.239944
    18  O    0.000000   0.000000   0.000000   0.000000  -0.000000   0.000000
    19  H   -0.000000   0.000000  -0.000000  -0.000000   0.000000  -0.000000
    20  O   -0.000000   0.000000  -0.000001   0.000067   0.000445  -0.000385
    21  C   -0.000000  -0.000000  -0.000000  -0.000010  -0.000000   0.000027
    22  H    0.000000  -0.000000   0.000000   0.000001  -0.000002  -0.000005
    23  H    0.000000   0.000000   0.000000   0.000003  -0.000011   0.000005
    24  H   -0.000000   0.000000  -0.000000   0.000000   0.000002  -0.000000
    25  C   -0.057495   0.015689  -0.078252   0.496554  -0.030013  -0.003821
    26  C    0.423410  -0.003592   0.014501  -0.108799   0.011826  -0.010678
    27  C   -0.062062   0.021036  -0.004146   0.021570  -0.000131  -0.001286
    28  C    0.015971  -0.063396   0.015387  -0.001458  -0.000083   0.000153
    29  C   -0.004504   0.419606  -0.067324   0.016599   0.001543  -0.001195
    30  C    0.015060  -0.071913   0.455021  -0.095935  -0.024446   0.015028
    31  H    0.702591   0.000058  -0.000208  -0.032990  -0.000018   0.012185
    32  H    0.000058   0.698182  -0.015809  -0.000388  -0.000031   0.000010
    33  H   -0.000208  -0.015809   0.683488  -0.018411   0.004830   0.000886
    34  C   -0.032990  -0.000388  -0.018411   5.306172   0.403211   0.182251
    35  H   -0.000018  -0.000031   0.004830   0.403211   0.653190  -0.053357
    36  C    0.012185   0.000010   0.000886   0.182251  -0.053357   4.890687
    37  H    0.000379  -0.000000  -0.000059  -0.008902   0.007804   0.341683
    38  C   -0.002724  -0.000000   0.000020  -0.064316  -0.004382   0.436377
    39  H    0.000020   0.000000  -0.000001   0.015506  -0.000168  -0.027565
    40  H    0.001467   0.000000   0.000002  -0.015383  -0.000320  -0.000540
    41  O   -0.000126   0.005196  -0.000101   0.000003   0.000000  -0.000000
    42  O   -0.000068   0.000000  -0.000034   0.015452   0.004662  -0.052102
    43  H    0.000012   0.000000  -0.000002  -0.004630   0.001630  -0.010587
    44  O    0.002599  -0.000107   0.000004  -0.000010   0.000001  -0.000003
    45  C   -0.000475  -0.000169   0.000001   0.000006  -0.000000  -0.000000
    46  H   -0.000148  -0.000013   0.000000  -0.000000   0.000000  -0.000000
    47  H    0.000130   0.000168  -0.000002   0.000001  -0.000000   0.000000
    48  H    0.000145   0.000195  -0.000002   0.000001  -0.000000   0.000000
              37         38         39         40         41         42
     1  C   -0.000150  -0.000010   0.000007   0.000000  -0.000000  -0.000000
     2  C   -0.000127   0.000019  -0.000000  -0.000001   0.000000   0.000000
     3  C    0.001160  -0.000956  -0.000176   0.000049  -0.000000   0.000025
     4  C   -0.002817  -0.003102  -0.000462   0.000448   0.000000   0.000081
     5  C    0.004537  -0.003259  -0.000696  -0.000042   0.000000   0.000018
     6  C    0.000144   0.000231  -0.000272   0.000004  -0.000000   0.000001
     7  H    0.000001  -0.000000   0.000000   0.000000  -0.000000  -0.000000
     8  H    0.004233  -0.005549   0.003678   0.000003  -0.000000  -0.000085
     9  H    0.000173  -0.000001  -0.000003  -0.000000   0.000000   0.000000
    10  C   -0.000002   0.000000  -0.000000   0.000000  -0.000000   0.000000
[...]
    19  H    0.000000  -0.000000  -0.000000   0.000000   0.000000   0.000000
    20  O   -0.000002   0.000000   0.000000   0.000000   0.000000  -0.000000
    21  C    0.000000  -0.000000  -0.000000   0.000000   0.000000   0.000000
    22  H    0.000000  -0.000000  -0.000000   0.000000   0.000000   0.000000
    23  H    0.000000  -0.000000  -0.000000   0.000000   0.000000   0.000000
    24  H   -0.000000   0.000000   0.000000   0.000000  -0.000000  -0.000000
    25  C    5.236957   0.104884   0.126572  -0.139058   0.109157   0.146077
    26  C    0.104884   5.398176   0.256389   0.073273  -0.068981   0.024002
    27  C    0.126572   0.256389   5.502834  -0.090314  -0.003914  -0.113549
    28  C   -0.139058   0.073273  -0.090314   5.151980   0.127495   0.138038
    29  C    0.109157  -0.068981  -0.003914   0.127495   5.429280   0.176954
    30  C    0.146077   0.024002  -0.113549   0.138038   0.176954   5.299665
    31  H   -0.058163   0.408942  -0.050757   0.018885  -0.004501   0.014532
    32  H    0.015896  -0.004301   0.022003  -0.060995   0.418552  -0.073594
    33  H   -0.077875   0.015266  -0.004283   0.014824  -0.065525   0.453720
    34  C    0.498035  -0.100801   0.020400  -0.002432   0.019579  -0.106643
    35  H   -0.033383   0.011791  -0.000073  -0.000061   0.001125  -0.022638
    36  C    0.002860  -0.011965  -0.001057   0.000136  -0.001126   0.013338
    37  H   -0.020971   0.006795   0.002020  -0.000098   0.000054  -0.000569
    38  C   -0.008139  -0.001128  -0.000092   0.000001   0.000015  -0.000358
    39  H   -0.000283   0.000050   0.000017   0.000000  -0.000001   0.000013
    40  H    0.002482   0.001983  -0.000371  -0.000009  -0.000014  -0.000158
    41  O   -0.000324   0.006304  -0.113041   0.701684  -0.082581   0.005401
    42  O   -0.001872   0.000117   0.000005  -0.000000  -0.000000  -0.000070
    43  H    0.000045   0.000005   0.000001  -0.000000  -0.000000  -0.000015
    44  O    0.004726  -0.082499   0.391871  -0.068224   0.005032  -0.000250
    45  C   -0.000170   0.000054  -0.048346  -0.003841  -0.000508   0.000059
    46  H    0.000014  -0.000000   0.002464   0.000258   0.000057  -0.000003
    47  H    0.000069  -0.000570  -0.015627   0.007760   0.000305  -0.000031
    48  H   -0.000407   0.003739   0.010902  -0.002258   0.000342  -0.000124
              31         32         33         34         35         36
     1  C    0.000000  -0.000000  -0.000000  -0.000002  -0.000000  -0.000014
     2  C    0.000000   0.000000  -0.000000   0.000018   0.000004   0.000415
     3  C   -0.000007  -0.000000  -0.000000  -0.000411  -0.000066  -0.011902
     4  C    0.000000   0.000000   0.000000   0.003480  -0.000031  -0.051605
     5  C   -0.000012   0.000000  -0.000000  -0.000317   0.000095  -0.008529
     6  C   -0.000001  -0.000000   0.000000   0.000063  -0.000005   0.000771
     7  H   -0.000000  -0.000000  -0.000000  -0.000000  -0.000000  -0.000002
     8  H   -0.000044  -0.000000  -0.000000  -0.000474  -0.000021  -0.002784
     9  H   -0.000000  -0.000000  -0.000000  -0.000001   0.000000  -0.000020
    10  C    0.000000  -0.000000   0.000000  -0.000000   0.000000   0.000001
    11  H   -0.000000  -0.000000  -0.000000  -0.000000  -0.000000  -0.000000
    12  C   -0.000000   0.000000  -0.000000   0.000000  -0.000000  -0.000000
    13  H   -0.000000   0.000000  -0.000000  -0.000000  -0.000000  -0.000000
    14  C   -0.000000   0.000000  -0.000000   0.000000  -0.000000   0.000000
    15  H   -0.000000   0.000000  -0.000000   0.000000   0.000000  -0.000000
    16  H    0.000000   0.000000   0.000000  -0.000000  -0.000000   0.000000
    17  O   -0.000091  -0.000000  -0.000027  -0.049088   0.004855   0.278992
    18  O   -0.000000   0.000000   0.000000   0.000000   0.000000  -0.000000
    19  H   -0.000000   0.000000  -0.000000  -0.000000   0.000000  -0.000000
    20  O   -0.000000  -0.000000  -0.000000   0.000007  -0.000005  -0.001106
    21  C   -0.000000  -0.000000   0.000000  -0.000009  -0.000007  -0.000033
    22  H    0.000000   0.000000   0.000000  -0.000001  -0.000001   0.000021
    23  H   -0.000000  -0.000000   0.000000   0.000001  -0.000001  -0.000014
    24  H    0.000000   0.000000  -0.000000  -0.000001   0.000000   0.000048
    25  C   -0.058163   0.015896  -0.077875   0.498035  -0.033383   0.002860
    26  C    0.408942  -0.004301   0.015266  -0.100801   0.011791  -0.011965
    27  C   -0.050757   0.022003  -0.004283   0.020400  -0.000073  -0.001057
    28  C    0.018885  -0.060995   0.014824  -0.002432  -0.000061   0.000136
    29  C   -0.004501   0.418552  -0.065525   0.019579   0.001125  -0.001126
    30  C    0.014532  -0.073594   0.453720  -0.106643  -0.022638   0.013338
    31  H    0.698504   0.000056  -0.000198  -0.030562   0.000091   0.009085
    32  H    0.000056   0.696538  -0.015499  -0.000443  -0.000027   0.000010
    33  H   -0.000198  -0.015499   0.684255  -0.018577   0.004607   0.000673
    34  C   -0.030562  -0.000443  -0.018577   5.299320   0.398151   0.179808
    35  H    0.000091  -0.000027   0.004607   0.398151   0.656001  -0.052203
    36  C    0.009085   0.000010   0.000673   0.179808  -0.052203   4.855181
    37  H    0.001546   0.000000  -0.000051  -0.014249   0.009142   0.347799
    38  C   -0.001922  -0.000000   0.000025  -0.046621  -0.007635   0.377860
    39  H    0.000143   0.000000  -0.000001   0.014215   0.000021  -0.037770
    40  H    0.000694  -0.000000  -0.000006  -0.014672   0.000067  -0.002225
    41  O   -0.000130   0.006042  -0.000112   0.000002  -0.000000  -0.000000
    42  O   -0.000007   0.000000  -0.000034   0.006526   0.007629  -0.050402
    43  H    0.000003   0.000000  -0.000005  -0.003174   0.001494   0.000442
    44  O    0.008014  -0.000076   0.000004  -0.000051   0.000001   0.000001
    45  C   -0.000761  -0.000023  -0.000000   0.000021  -0.000000  -0.000001
    46  H   -0.000295  -0.000002   0.000000  -0.000001   0.000000  -0.000000
    47  H    0.000219   0.000002   0.000002   0.000000   0.000000   0.000000
    48  H    0.000066  -0.000002   0.000000  -0.000000  -0.000000  -0.000001
              37         38         39         40         41         42
     1  C   -0.000038   0.000035  -0.000155   0.000002   0.000000   0.000002
     2  C    0.000101  -0.000812   0.000593   0.000019  -0.000000  -0.000057
     3  C   -0.001396   0.007474  -0.002444  -0.000168   0.000000   0.001465
     4  C   -0.000409  -0.004891   0.007034  -0.000413   0.000000  -0.000369
     5  C    0.010276  -0.002656   0.000012   0.000061   0.000000   0.000012
     6  C   -0.001138   0.000061   0.000254  -0.000004  -0.000000  -0.000001
     7  H   -0.000001  -0.000000   0.000018  -0.000001  -0.000000  -0.000002
     8  H    0.001416   0.000734  -0.000149  -0.000020   0.000000  -0.000001
     9  H    0.000071  -0.000004  -0.000004   0.000000  -0.000000   0.000000
    10  C   -0.000001  -0.000000  -0.000004   0.000000   0.000000   0.000000
    11  H    0.000000   0.000000  -0.000000   0.000000   0.000000   0.000000
    12  C    0.000000  -0.000000   0.000000   0.000000   0.000000   0.000000
    13  H    0.000000   0.000000  -0.000000   0.000000   0.000000   0.000000
    14  C   -0.000000  -0.000000   0.000000   0.000000   0.000000  -0.000000
    15  H    0.000000   0.000000   0.000000  -0.000000   0.000000   0.000000
    16  H   -0.000000  -0.000000  -0.000000   0.000000   0.000000  -0.000000
    17  O   -0.034434  -0.055660  -0.005749   0.004292  -0.000000  -0.004126
    18  O    0.000000   0.000000   0.000000   0.000000   0.000000  -0.000000
    19  H    0.000000  -0.000000  -0.000000   0.000000   0.000000   0.000000
    20  O   -0.000036   0.006218  -0.000142   0.000030  -0.000000  -0.013770
    21  C   -0.000005   0.000268  -0.000573   0.000008   0.000000   0.001515
    22  H   -0.000001  -0.000051  -0.000051   0.000002   0.000000   0.000799
    23  H   -0.000001   0.000076  -0.000007   0.000000  -0.000000  -0.000036
    24  H   -0.000002  -0.000343   0.000143  -0.000011  -0.000000   0.000045
    25  C   -0.020971  -0.008139  -0.000283   0.002482  -0.000324  -0.001872
    26  C    0.006795  -0.001128   0.000050   0.001983   0.006304   0.000117
    27  C    0.002020  -0.000092   0.000017  -0.000371  -0.113041   0.000005
    28  C   -0.000098   0.000001   0.000000  -0.000009   0.701684  -0.000000
    29  C    0.000054   0.000015  -0.000001  -0.000014  -0.082581  -0.000000
    30  C   -0.000569  -0.000358   0.000013  -0.000158   0.005401  -0.000070
    31  H    0.001546  -0.001922   0.000143   0.000694  -0.000130  -0.000007
    32  H    0.000000  -0.000000   0.000000  -0.000000   0.006042   0.000000
    33  H   -0.000051   0.000025  -0.000001  -0.000006  -0.000112  -0.000034
    34  C   -0.014249  -0.046621   0.014215  -0.014672   0.000002   0.006526
    35  H    0.009142  -0.007635   0.000021   0.000067  -0.000000   0.007629
    36  C    0.347799   0.377860  -0.037770  -0.002225  -0.000000  -0.050402
    37  H    0.692846  -0.027679  -0.003240   0.000504  -0.000000   0.004664
    38  C   -0.027679   4.521682   0.367251   0.352114  -0.000000   0.331089
    39  H   -0.003240   0.367251   0.704085  -0.032096   0.000000  -0.026027
    40  H    0.000504   0.352114  -0.032096   0.693994  -0.000000  -0.027132
    41  O   -0.000000  -0.000000   0.000000  -0.000000   7.716032  -0.000000
    42  O    0.004664   0.331089  -0.026027  -0.027132  -0.000000   7.780721
    43  H    0.000811  -0.052351  -0.003492   0.008168   0.000000   0.348241
    44  O   -0.000058   0.000001   0.000000  -0.000012  -0.001192  -0.000000
    45  C    0.000005  -0.000000   0.000000  -0.000003  -0.008392   0.000000
    46  H    0.000001  -0.000000  -0.000000   0.000000   0.000525   0.000000
    47  H   -0.000000  -0.000000   0.000000  -0.000000   0.025844  -0.000000
    48  H   -0.000004  -0.000000  -0.000000   0.000011  -0.000113  -0.000000
              43         44         45         46         47         48
     1  C   -0.000021   0.000000  -0.000000  -0.000000   0.000000   0.000000
     2  C    0.001316   0.000000   0.000000  -0.000000   0.000000  -0.000000
     3  C   -0.002353   0.000000   0.000000  -0.000000   0.000000  -0.000000
     4  C   -0.007215  -0.000000  -0.000000   0.000000  -0.000000   0.000000
     5  C    0.000381   0.000000  -0.000000  -0.000000   0.000000   0.000000
     6  C   -0.000033   0.000000  -0.000000  -0.000000   0.000000   0.000000
     7  H   -0.000025   0.000000   0.000000   0.000000   0.000000  -0.000000
     8  H   -0.000028   0.000000  -0.000000  -0.000000   0.000000  -0.000000
     9  H    0.000001  -0.000000   0.000000   0.000000  -0.000000  -0.000000
    10  C    0.000001  -0.000000  -0.000000   0.000000  -0.000000  -0.000000
    11  H   -0.000000  -0.000000   0.000000   0.000000  -0.000000  -0.000000
    12  C   -0.000000   0.000000   0.000000  -0.000000   0.000000   0.000000
    13  H   -0.000000   0.000000  -0.000000  -0.000000   0.000000   0.000000
    14  C    0.000000   0.000000  -0.000000  -0.000000   0.000000   0.000000
    15  H   -0.000000   0.000000  -0.000000   0.000000   0.000000   0.000000
    16  H   -0.000000  -0.000000   0.000000   0.000000   0.000000  -0.000000
    17  O    0.012664  -0.000000   0.000000   0.000000  -0.000000  -0.000000
    18  O    0.000000   0.000000   0.000000   0.000000   0.000000   0.000000
    19  H    0.000000   0.000000   0.000000   0.000000   0.000000   0.000000
    20  O    0.042084  -0.000000  -0.000000   0.000000  -0.000000   0.000000
    21  C   -0.003188  -0.000000  -0.000000   0.000000  -0.000000   0.000000
    22  H   -0.002112   0.000000  -0.000000  -0.000000  -0.000000   0.000000
    23  H    0.000592   0.000000  -0.000000  -0.000000   0.000000   0.000000
    24  H    0.000438  -0.000000  -0.000000   0.000000  -0.000000  -0.000000
    25  C    0.000045   0.004726  -0.000170   0.000014   0.000069  -0.000407
    26  C    0.000005  -0.082499   0.000054  -0.000000  -0.000570   0.003739
    27  C    0.000001   0.391871  -0.048346   0.002464  -0.015627   0.010902
    28  C   -0.000000  -0.068224  -0.003841   0.000258   0.007760  -0.002258
    29  C   -0.000000   0.005032  -0.000508   0.000057   0.000305   0.000342
    30  C   -0.000015  -0.000250   0.000059  -0.000003  -0.000031  -0.000124
    31  H    0.000003   0.008014  -0.000761  -0.000295   0.000219   0.000066
    32  H    0.000000  -0.000076  -0.000023  -0.000002   0.000002  -0.000002
    33  H   -0.000005   0.000004  -0.000000   0.000000   0.000002   0.000000
    34  C   -0.003174  -0.000051   0.000021  -0.000001   0.000000  -0.000000
    35  H    0.001494   0.000001  -0.000000   0.000000   0.000000  -0.000000
    36  C    0.000442   0.000001  -0.000001  -0.000000   0.000000  -0.000001
    37  H    0.000811  -0.000058   0.000005   0.000001  -0.000000  -0.000004
    38  C   -0.052351   0.000001  -0.000000  -0.000000  -0.000000  -0.000000
    39  H   -0.003492   0.000000   0.000000  -0.000000   0.000000  -0.000000
    40  H    0.008168  -0.000012  -0.000003   0.000000  -0.000000   0.000011
    41  O    0.000000  -0.001192  -0.008392   0.000525   0.025844  -0.000113
    42  O    0.348241  -0.000000   0.000000   0.000000  -0.000000  -0.000000
    43  H    0.479706   0.000000   0.000000   0.000000   0.000000  -0.000000
    44  O    0.000000   7.874501   0.298280  -0.024775  -0.028993  -0.035067
    45  C    0.000000   0.298280   4.416612   0.392713   0.390841   0.377901
    46  H    0.000000  -0.024775   0.392713   0.641550  -0.022043  -0.024810
    47  H    0.000000  -0.028993   0.390841  -0.022043   0.644386  -0.035663
    48  H   -0.000000  -0.035067   0.377901  -0.024810  -0.035663   0.686114
 Mulliken charges:
               1
     1  C    0.122670
     2  C   -0.174682
     3  C    0.247919
     4  C    0.122939
     5  C   -0.033636
     6  C   -0.037829
     7  H   -0.015728
     8  H   -0.006948
     9  H   -0.015212
    10  C   -0.011298
    11  H   -0.016888
    12  C   -0.141985
    13  H    0.017500
    14  C    0.269063
    15  H    0.012380
    16  H    0.012426
    17  O   -0.360372
    18  O   -0.321689
    19  H    0.188843
    20  O   -0.364287
    21  C    0.177067
    22  H    0.049576
    23  H    0.043687
    24  H    0.040906
    25  C    0.088613
    26  C   -0.041438
    27  C    0.105958
    28  C    0.132955
    29  C   -0.060796
    30  C    0.046345
    31  H   -0.013331
    32  H   -0.004139
    33  H    0.008819
    34  C   -0.051097
    35  H    0.021085
    36  C    0.165321
    37  H    0.026330
    38  C    0.245442
    39  H    0.018339
    40  H    0.012884
    41  O   -0.255948
    42  O   -0.358925
    43  H    0.177618
    44  O   -0.341235
    45  C    0.185559
    46  H    0.034346
    47  H    0.033500
    48  H    0.019374
 Sum of Mulliken charges =  -0.00000
 Mulliken charges with hydrogens summed into heavy atoms:
               1
     1  C    0.122670
     2  C   -0.190410
     3  C    0.247919
     4  C    0.122939
     5  C   -0.040584
     6  C   -0.053041
    10  C   -0.028186
    12  C   -0.124485
    14  C    0.293869
    17  O   -0.360372
    18  O   -0.132846
    20  O   -0.364287
    21  C    0.311236
    25  C    0.088613
    26  C   -0.054769
    27  C    0.105958
    28  C    0.132955
    29  C   -0.064935
    30  C    0.055164
    34  C   -0.030013
    36  C    0.191652
    38  C    0.276665
    41  O   -0.255948
    42  O   -0.181307
    44  O   -0.341235
    45  C    0.272778
 Electronic spatial extent (au):  <R**2>=          32153.1800
 Charge=             -0.0000 electrons
 Dipole moment (field-independent basis, Debye):
    X=             -5.0796    Y=             -4.3774    Z=             -6.6940  Tot=              9.4749
 Quadrupole moment (field-independent basis, Debye-Ang):
   XX=           -106.8371   YY=           -109.3931   ZZ=           -191.8145
   XY=             42.5308   XZ=              4.3903   YZ=              9.7327
 Traceless Quadrupole moment (field-independent basis, Debye-Ang):
   XX=             29.1778   YY=             26.6218   ZZ=            -55.7996
   XY=             42.5308   XZ=              4.3903   YZ=              9.7327
 Octapole moment (field-independent basis, Debye-Ang**2):
  XXX=           1064.9207  YYY=            952.7652  ZZZ=          -1393.9368  XYY=             20.2972
  XXY=            101.2581  XXZ=           -319.9234  XZZ=            373.6223  YZZ=            457.9317
  YYZ=           -355.0250  XYZ=            -90.9825
 Hexadecapole moment (field-independent basis, Debye-Ang**3):
 XXXX=          -9924.1036 YYYY=         -11025.1068 ZZZZ=         -17805.7781 XXXY=          -3364.8598
 XXXZ=           1193.6840 YYYX=          -2047.2828 YYYZ=            245.7262 ZZZX=            519.5907
 ZZZY=            -11.2715 XXYY=           -838.0462 XXZZ=          -3706.5846 YYZZ=          -4635.4793
 XXYZ=            695.1847 YYXZ=            984.8011 ZZXY=          -2014.3018
 N-N= 2.187011866438D+03 E-N=-7.230349420804D+03  KE= 1.213740178964D+03
 1\1\GINC-R1I1N27\FOpt\RB3LYP\def2SVP\C20H22O6\HMAYES\23-Feb-2020\0\\# 
 b3lyp/Def2SVP nosymm opt scf=(xqc,maxconventionalcycles=400) CPHF=Grid
 =Fine SCRF=(CPCM,Solvent=Water,Read) guess=mix EmpiricalDispersion=GD3
 BJ geom=connectivity\\obabel g_dimer_0.pdb -O g_dimer.pdb --confab --c
 onf10000 --original\\0,1\C,-4.7305095471,-5.8782422027,-0.622573531\C,
 -4.1514356758,-4.8158288872,-1.3464373748\C,-3.2286130129,-3.950517130
 1,-0.7524406019\C,-2.8585543411,-4.1492142989,0.594909323\C,-3.4300485
 913,-5.1992798457,1.3155558426\C,-4.3562137947,-6.0553897307,0.7216283
 286\H,-4.4428536048,-4.6752153855,-2.3868592982\H,-3.1270207785,-5.341
 9849388,2.3551797597\H,-4.7819180546,-6.8687161943,1.3110001342\C,-5.6
 949674396,-6.7457797521,-1.315001453\H,-5.8936720071,-6.4926565649,-2.
 360182123\C,-6.3455448517,-7.8017821212,-0.8013717636\H,-6.1926254379,
 -8.1092167077,0.2386101255\C,-7.3165277053,-8.646455259,-1.5648241902\
 H,-6.9680849609,-9.7011286192,-1.5299662805\H,-8.2885059823,-8.6386831
 171,-1.0260778906\O,-1.9121961925,-3.3294074214,1.152646994\O,-7.45207
 20745,-8.1865344053,-2.8903235845\H,-8.0845878982,-8.7587964578,-3.343
 1233678\O,-2.6431018038,-2.8984446431,-1.390673688\C,-3.0188000346,-2.
 6079387841,-2.7299575903\H,-2.4510340745,-1.7164594824,-3.0227701091\H
 ,-2.7619936038,-3.4408649873,-3.4038688565\H,-4.0977502093,-2.39589709
 91,-2.8055403462\C,-1.0250050075,-1.2905412889,3.985758633\C,-2.113029
 4546,-1.2876112099,4.9482365287\C,-1.9697548347,-0.7759586274,6.199243
 09\C,-0.6637077422,-0.2169825367,6.6526380436\C,0.4094525808,-0.200831
 2229,5.650019248\C,0.2441991826,-0.7127583245,4.4089013348\H,-3.082854
 6208,-1.7098111586,4.6820313947\H,1.3605186335,0.2267378155,5.97532832
 92\H,1.0654025408,-0.7031433236,3.6879575116\C,-1.1417504766,-1.776046
 7291,2.7184046493\H,-0.2759893374,-1.7175325042,2.0532415615\C,-2.3728
 110188,-2.3388334607,2.0893834246\H,-3.0257431864,-2.814353978,2.84099
 27267\C,-3.18968006,-1.2588133787,1.3518322193\H,-4.1244700287,-1.7265
 135838,0.9841953086\H,-3.475837622,-0.4801128564,2.0759975921\O,-0.487
 2738686,0.1817094698,7.8044227751\O,-2.454171044,-0.6624288593,0.31703
 43076\H,-2.2896093748,-1.3708111877,-0.3325511843\O,-3.001022628,-0.87
 15275948,7.0726961956\C,-3.4230806729,0.3066125911,7.7638445096\H,-4.3
 490020214,0.037888665,8.2892168788\H,-2.6657114062,0.6435546158,8.4827
 536985\H,-3.640436855,1.1185427035,7.0488827649\\Version=ES64L-G16RevB
 .01\HF=-1225.8316886\RMSD=2.589e-09\RMSF=4.374e-06\Dipole=-1.9984869,-
 1.7221892,-2.6336282\Quadrupole=21.6929687,19.7926436,-41.4856123,31.6
 205754,3.2640781,7.236013\PG=C01 [X(C20H22O6)]\\@


 K N O W I N G  IS A BARRIER WHICH PREVENTS LEARNING

                     -- TEACHING OF THE BENE GESSERIT
 Job cpu time:       0 days 18 hours 42 minutes 20.3 seconds.
 Elapsed time:       0 days  0 hours 33 minutes 32.5 seconds.
 File lengths (MBytes):  RWF=    547 Int=      0 D2E=      0 Chk=     26 Scr=      1
 Normal termination of Gaussian 16 at Sun Feb 23 13:02:57 2020.
