 Entering Gaussian System, Link 0=g16
 Initial command:
 /nopt/nrel/apps/gaussian/g16B/g16/l1.exe "/dev/shm/Gau-153822.inp" -scrdir="/dev/shm/"
 Default is to use a total of  36 processors:
                               36 via shared-memory
                                1 via Linda
 Entering Link 1 = /nopt/nrel/apps/gaussian/g16B/g16/l1.exe PID=    153823.
  
 Copyright (c) 1988-2017, Gaussian, Inc.  All Rights Reserved.
 ...
 ******************************************
 Gaussian 16:  ES64L-G16RevB.01 20-Dec-2017
                24-Feb-2020 
 ******************************************
 %RWF=/dev/shm/,5GB,/scratch/hmayes/g_dimer_8_2489341/,-1
 %NoSave
 %Chk=/dev/shm/g_dimer_8.chk
 %CPU=0-35
 SetSPE:  set environment variable "MP_BIND" = "yes"
 SetSPE:  set environment variable "MP_BLIST" = "0,1,2,3,4,5,6,7,8,9,10,11,12,13,14,15,16,17,18,19,20,21,22,23,24,25,26,27,28,29,30,31,32,33,34,35"
 Will use up to   36 processors via shared memory.
 %Mem=72983493KB
 Default route: CacheSize=180224 MaxDisk=256GB
 ----------------------------------------------------------------------
 # b3lyp/Def2SVP nosymm opt scf=(xqc,maxconventionalcycles=400) CPHF=Gr
 id=Fine SCRF=(CPCM,Solvent=Water,Read) guess=mix EmpiricalDispersion=G
 D3BJ geom=connectivity
 ----------------------------------------------------------------------
 1/4=180224,18=20,19=15,26=3,38=1,40=2,57=2/1,3;
 2/4=180224,9=110,12=2,15=1,17=6,18=5,40=1/2;
 3/4=180224,5=43,7=101,11=2,25=1,30=1,70=2103,71=1,72=1,74=-5,124=41/1,2,3;
 4/4=180224,13=-1/1;
 5/4=180224,5=2,8=3,13=1,38=5,53=1,85=400/2,8;
 6/4=180224,7=2,8=2,9=2,10=2,28=1/1;
 7/4=180224,30=1/1,2,3,16;
 1/4=180224,18=20,19=15,26=3/3(2);
 2/4=180224,9=110,15=1/2;
 99/4=180224/99;
 2/4=180224,9=110,15=1/2;
 3/4=180224,5=43,7=101,11=2,25=1,30=1,70=2105,71=1,72=1,74=-5,124=41/1,2,3;
 4/4=180224,5=5,16=3,69=1/1;
 5/4=180224,5=2,8=3,13=1,38=5,53=1,85=400/2,8;
 7/4=180224,30=1/1,2,3,16;
 1/4=180224,18=20,19=15,26=3/3(-5);
 2/4=180224,9=110,15=1/2;
 6/4=180224,7=2,8=2,9=2,10=2,19=2,28=1/1;
 99/4=180224,9=1/99;
 -------------------------------------------------------------------
 obabel g_dimer_0.pdb -O g_dimer.pdb --confab --conf10000 --original
 -------------------------------------------------------------------
 Symbolic Z-matrix:
 Charge =  0 Multiplicity = 1
 C                    -4.861    -5.37     -0.75 
 C                    -3.719    -4.881    -1.42 
 C                    -3.177    -3.633    -1.11 
 C                    -3.773    -2.842    -0.095 
 C                    -4.9      -3.323     0.565 
 C                    -5.446    -4.568     0.242 
 H                    -3.258    -5.483    -2.2 
 H                    -5.349    -2.703     1.344 
 H                    -6.332    -4.926     0.772 
 C                    -5.458    -6.678    -1.055 
 H                    -5.336    -7.021    -2.086 
 C                    -6.126    -7.482    -0.213 
 H                    -6.287    -7.199     0.833 
 C                    -6.709    -8.806    -0.594 
 H                    -7.813    -8.753    -0.471 
 H                    -6.54     -8.966    -1.68 
 O                    -3.302    -1.589     0.204 
 O                    -6.15     -9.844     0.179 
 H                    -6.548    -10.677   -0.104 
 O                    -2.096    -3.096    -1.732 
 C                    -1.097    -3.958    -2.25 
 H                    -0.304    -3.31     -2.644 
 H                    -0.68     -4.606    -1.462 
 H                    -1.494    -4.586    -3.065 
 C                    -1.51     -1.449     3.192 
 C                    -2.184    -2.457     3.995 
 C                    -1.554    -3.052     5.045 
 C                    -0.157    -2.687     5.43 
 C                     0.484    -1.653     4.609 
 C                    -0.15     -1.075     3.563 
 H                    -3.202    -2.729     3.723 
 H                     1.504    -1.379     4.89 
 H                     0.35     -0.309     2.964 
 C                    -2.08     -0.846     2.111 
 H                    -1.488    -0.11      1.563 
 C                    -3.454    -1.125     1.574 
 H                    -3.939    -1.919     2.165 
 C                    -4.327     0.124     1.573 
 H                    -5.337    -0.143     1.21 
 H                    -4.433     0.493     2.604 
 O                     0.408    -3.222     6.38 
 O                    -3.747     1.155     0.802 
 H                    -3.45      0.753    -0.028 
 O                    -2.078    -4.002     5.838 
 C                    -1.277    -4.512     6.89 
 H                    -1.891    -5.244     7.427 
 H                    -0.375    -5.007     6.494 
 H                    -0.966    -3.712     7.583 
 

 GradGradGradGradGradGradGradGradGradGradGradGradGradGradGradGradGradGrad
 Berny optimization.
 Initialization pass.
                           ----------------------------
                           !    Initial Parameters    !
                           ! (Angstroms and Degrees)  !
 --------------------------                            --------------------------
 ! Name  Definition              Value          Derivative Info.                !
 --------------------------------------------------------------------------------
 ! R1    R(1,2)                  1.4114         estimate D2E/DX2                !
 ! R2    R(1,6)                  1.4034         estimate D2E/DX2                !
 ! R3    R(1,10)                 1.4698         estimate D2E/DX2                !
 ! R4    R(2,3)                  1.3955         estimate D2E/DX2                !
 ! R5    R(2,7)                  1.0878         estimate D2E/DX2                !
 ! R6    R(3,4)                  1.4181         estimate D2E/DX2                !
 ! R7    R(3,20)                 1.3579         estimate D2E/DX2                !
 ! R8    R(4,5)                  1.3918         estimate D2E/DX2                !
 ! R9    R(4,17)                 1.3716         estimate D2E/DX2                !
 ! R10   R(5,6)                  1.3973         estimate D2E/DX2                !
 ! R11   R(5,8)                  1.0922         estimate D2E/DX2                !
 ! R12   R(6,9)                  1.0927         estimate D2E/DX2                !
 ! R13   R(10,11)                1.0934         estimate D2E/DX2                !
 ! R14   R(10,12)                1.3422         estimate D2E/DX2                !
 ! R15   R(12,13)                1.0955         estimate D2E/DX2                !
 ! R16   R(12,14)                1.496          estimate D2E/DX2                !
 ! R17   R(14,15)                1.1121         estimate D2E/DX2                !
 ! R18   R(14,16)                1.1107         estimate D2E/DX2                !
 ! R19   R(14,18)                1.4098         estimate D2E/DX2                !
 ! R20   R(17,36)                1.4544         estimate D2E/DX2                !
 ! R21   R(18,19)                0.9656         estimate D2E/DX2                !
 ! R22   R(20,21)                1.4175         estimate D2E/DX2                !
 ! R23   R(21,22)                1.0973         estimate D2E/DX2                !
 ! R24   R(21,23)                1.1022         estimate D2E/DX2                !
 ! R25   R(21,24)                1.1028         estimate D2E/DX2                !
 ! R26   R(25,26)                1.4544         estimate D2E/DX2                !
 ! R27   R(25,30)                1.4585         estimate D2E/DX2                !
 ! R28   R(25,34)                1.3627         estimate D2E/DX2                !
 ! R29   R(26,27)                1.3614         estimate D2E/DX2                !
 ! R30   R(26,31)                1.0883         estimate D2E/DX2                !
 ! R31   R(27,28)                1.4943         estimate D2E/DX2                !
 ! R32   R(27,44)                1.3438         estimate D2E/DX2                !
 ! R33   R(28,29)                1.4677         estimate D2E/DX2                !
 ! R34   R(28,41)                1.228          estimate D2E/DX2                !
 ! R35   R(29,30)                1.3528         estimate D2E/DX2                !
 ! R36   R(29,32)                1.0929         estimate D2E/DX2                !
 ! R37   R(30,33)                1.0934         estimate D2E/DX2                !
 ! R38   R(34,35)                1.092          estimate D2E/DX2                !
 ! R39   R(34,36)                1.5014         estimate D2E/DX2                !
 ! R40   R(36,37)                1.1022         estimate D2E/DX2                !
 ! R41   R(36,38)                1.5239         estimate D2E/DX2                !
 ! R42   R(38,39)                1.106          estimate D2E/DX2                !
 ! R43   R(38,40)                1.1002         estimate D2E/DX2                !
 ! R44   R(38,42)                1.412          estimate D2E/DX2                !
 ! R45   R(42,43)                0.9689         estimate D2E/DX2                !
 ! R46   R(44,45)                1.4172         estimate D2E/DX2                !
 ! R47   R(45,46)                1.096          estimate D2E/DX2                !
 ! R48   R(45,47)                1.1025         estimate D2E/DX2                !
 ! R49   R(45,48)                1.1032         estimate D2E/DX2                !
 ! A1    A(2,1,6)              118.3478         estimate D2E/DX2                !
 ! A2    A(2,1,10)             122.5782         estimate D2E/DX2                !
 ! A3    A(6,1,10)             119.0737         estimate D2E/DX2                !
 ! A4    A(1,2,3)              121.241          estimate D2E/DX2                !
 ! A5    A(1,2,7)              119.4411         estimate D2E/DX2                !
 ! A6    A(3,2,7)              119.3149         estimate D2E/DX2                !
 ! A7    A(2,3,4)              119.6427         estimate D2E/DX2                !
 ! A8    A(2,3,20)             124.1333         estimate D2E/DX2                !
 ! A9    A(4,3,20)             116.2216         estimate D2E/DX2                !
 ! A10   A(3,4,5)              119.1403         estimate D2E/DX2                !
 ! A11   A(3,4,17)             121.4164         estimate D2E/DX2                !
 ! A12   A(5,4,17)             119.3673         estimate D2E/DX2                !
 ! A13   A(4,5,6)              120.9787         estimate D2E/DX2                !
 ! A14   A(4,5,8)              118.3553         estimate D2E/DX2                !
 ! A15   A(6,5,8)              120.666          estimate D2E/DX2                !
 ! A16   A(1,6,5)              120.6436         estimate D2E/DX2                !
 ! A17   A(1,6,9)              119.5778         estimate D2E/DX2                !
 ! A18   A(5,6,9)              119.7765         estimate D2E/DX2                !
 ! A19   A(1,10,11)            115.4372         estimate D2E/DX2                !
 ! A20   A(1,10,12)            127.2312         estimate D2E/DX2                !
 ! A21   A(11,10,12)           117.3316         estimate D2E/DX2                !
 ! A22   A(10,12,13)           121.1557         estimate D2E/DX2                !
 ! A23   A(10,12,14)           124.3546         estimate D2E/DX2                !
 ! A24   A(13,12,14)           114.4894         estimate D2E/DX2                !
 ! A25   A(12,14,15)           108.4527         estimate D2E/DX2                !
 ! A26   A(12,14,16)           108.495          estimate D2E/DX2                !
 ! A27   A(12,14,18)           110.9446         estimate D2E/DX2                !
 ! A28   A(15,14,16)           105.4304         estimate D2E/DX2                !
 ! A29   A(15,14,18)           111.5971         estimate D2E/DX2                !
 ! A30   A(16,14,18)           111.6995         estimate D2E/DX2                !
 ! A31   A(4,17,36)            117.4454         estimate D2E/DX2                !
 ! A32   A(14,18,19)           108.122          estimate D2E/DX2                !
 ! A33   A(3,20,21)            119.2062         estimate D2E/DX2                !
 ! A34   A(20,21,22)           106.3451         estimate D2E/DX2                !
 ! A35   A(20,21,23)           111.2787         estimate D2E/DX2                !
 ! A36   A(20,21,24)           111.2623         estimate D2E/DX2                !
 ! A37   A(22,21,23)           109.2994         estimate D2E/DX2                !
 ! A38   A(22,21,24)           109.3353         estimate D2E/DX2                !
 ! A39   A(23,21,24)           109.2547         estimate D2E/DX2                !
 ! A40   A(26,25,30)           117.9973         estimate D2E/DX2                !
 ! A41   A(26,25,34)           123.4236         estimate D2E/DX2                !
 ! A42   A(30,25,34)           118.5778         estimate D2E/DX2                !
 ! A43   A(25,26,27)           120.9504         estimate D2E/DX2                !
 ! A44   A(25,26,31)           117.9532         estimate D2E/DX2                !
 ! A45   A(27,26,31)           121.0923         estimate D2E/DX2                !
 ! A46   A(26,27,28)           121.6392         estimate D2E/DX2                !
 ! A47   A(26,27,44)           125.7069         estimate D2E/DX2                !
 ! A48   A(28,27,44)           112.6539         estimate D2E/DX2                !
 ! A49   A(27,28,29)           115.8652         estimate D2E/DX2                !
 ! A50   A(27,28,41)           121.5358         estimate D2E/DX2                !
 ! A51   A(29,28,41)           122.5983         estimate D2E/DX2                !
 ! A52   A(28,29,30)           121.9271         estimate D2E/DX2                !
 ! A53   A(28,29,32)           116.1302         estimate D2E/DX2                !
 ! A54   A(30,29,32)           121.9425         estimate D2E/DX2                !
 ! A55   A(25,30,29)           121.6095         estimate D2E/DX2                !
 ! A56   A(25,30,33)           117.8205         estimate D2E/DX2                !
 ! A57   A(29,30,33)           120.5696         estimate D2E/DX2                !
 ! A58   A(25,34,35)           118.0056         estimate D2E/DX2                !
 ! A59   A(25,34,36)           125.7528         estimate D2E/DX2                !
 ! A60   A(35,34,36)           116.2247         estimate D2E/DX2                !
 ! A61   A(17,36,34)           107.4912         estimate D2E/DX2                !
 ! A62   A(17,36,37)           108.7376         estimate D2E/DX2                !
 ! A63   A(17,36,38)           108.7078         estimate D2E/DX2                !
 ! A64   A(34,36,37)           110.1678         estimate D2E/DX2                !
 ! A65   A(34,36,38)           111.8521         estimate D2E/DX2                !
 ! A66   A(37,36,38)           109.7974         estimate D2E/DX2                !
 ! A67   A(36,38,39)           108.9971         estimate D2E/DX2                !
 ! A68   A(36,38,40)           109.2379         estimate D2E/DX2                !
 ! A69   A(36,38,42)           111.3154         estimate D2E/DX2                !
 ! A70   A(39,38,40)           107.4918         estimate D2E/DX2                !
 ! A71   A(39,38,42)           111.8498         estimate D2E/DX2                !
 ! A72   A(40,38,42)           107.841          estimate D2E/DX2                !
 ! A73   A(38,42,43)           106.9012         estimate D2E/DX2                !
 ! A74   A(27,44,45)           118.1676         estimate D2E/DX2                !
 ! A75   A(44,45,46)           106.7038         estimate D2E/DX2                !
 ! A76   A(44,45,47)           110.9389         estimate D2E/DX2                !
 ! A77   A(44,45,48)           111.3884         estimate D2E/DX2                !
 ! A78   A(46,45,47)           109.5404         estimate D2E/DX2                !
 ! A79   A(46,45,48)           109.5414         estimate D2E/DX2                !
 ! A80   A(47,45,48)           108.6987         estimate D2E/DX2                !
 ! D1    D(6,1,2,3)              0.0578         estimate D2E/DX2                !
 ! D2    D(6,1,2,7)           -179.3009         estimate D2E/DX2                !
 ! D3    D(10,1,2,3)           179.849          estimate D2E/DX2                !
 ! D4    D(10,1,2,7)             0.4903         estimate D2E/DX2                !
 ! D5    D(2,1,6,5)             -0.6572         estimate D2E/DX2                !
 ! D6    D(2,1,6,9)            179.8758         estimate D2E/DX2                !
 ! D7    D(10,1,6,5)           179.5441         estimate D2E/DX2                !
 ! D8    D(10,1,6,9)             0.0771         estimate D2E/DX2                !
 ! D9    D(2,1,10,11)          -29.7795         estimate D2E/DX2                !
 ! D10   D(2,1,10,12)          150.1977         estimate D2E/DX2                !
 ! D11   D(6,1,10,11)          150.0103         estimate D2E/DX2                !
 ! D12   D(6,1,10,12)          -30.0125         estimate D2E/DX2                !
 ! D13   D(1,2,3,4)              0.5965         estimate D2E/DX2                !
 ! D14   D(1,2,3,20)          -178.8197         estimate D2E/DX2                !
 ! D15   D(7,2,3,4)            179.956          estimate D2E/DX2                !
 ! D16   D(7,2,3,20)             0.5398         estimate D2E/DX2                !
 ! D17   D(2,3,4,5)             -0.6547         estimate D2E/DX2                !
 ! D18   D(2,3,4,17)          -177.4635         estimate D2E/DX2                !
 ! D19   D(20,3,4,5)           178.8067         estimate D2E/DX2                !
 ! D20   D(20,3,4,17)            1.9979         estimate D2E/DX2                !
 ! D21   D(2,3,20,21)          -30.0972         estimate D2E/DX2                !
 ! D22   D(4,3,20,21)          150.4684         estimate D2E/DX2                !
 ! D23   D(3,4,5,6)              0.0633         estimate D2E/DX2                !
 ! D24   D(3,4,5,8)           -179.959          estimate D2E/DX2                !
 ! D25   D(17,4,5,6)           176.9384         estimate D2E/DX2                !
 ! D26   D(17,4,5,8)            -3.0839         estimate D2E/DX2                !
 ! D27   D(3,4,17,36)         -149.9885         estimate D2E/DX2                !
 ! D28   D(5,4,17,36)           33.2098         estimate D2E/DX2                !
 ! D29   D(4,5,6,1)              0.6025         estimate D2E/DX2                !
 ! D30   D(4,5,6,9)           -179.9315         estimate D2E/DX2                !
 ! D31   D(8,5,6,1)           -179.3747         estimate D2E/DX2                !
 ! D32   D(8,5,6,9)              0.0913         estimate D2E/DX2                !
 ! D33   D(1,10,12,13)           0.1884         estimate D2E/DX2                !
 ! D34   D(1,10,12,14)        -179.9932         estimate D2E/DX2                !
 ! D35   D(11,10,12,13)       -179.8348         estimate D2E/DX2                !
 ! D36   D(11,10,12,14)         -0.0164         estimate D2E/DX2                !
 ! D37   D(10,12,14,15)       -117.0611         estimate D2E/DX2                !
 ! D38   D(10,12,14,16)         -3.0208         estimate D2E/DX2                !
 ! D39   D(10,12,14,18)        120.0373         estimate D2E/DX2                !
 ! D40   D(13,12,14,15)         62.7681         estimate D2E/DX2                !
 ! D41   D(13,12,14,16)        176.8084         estimate D2E/DX2                !
 ! D42   D(13,12,14,18)        -60.1335         estimate D2E/DX2                !
 ! D43   D(12,14,18,19)       -179.5573         estimate D2E/DX2                !
 ! D44   D(15,14,18,19)         59.3766         estimate D2E/DX2                !
 ! D45   D(16,14,18,19)        -58.3669         estimate D2E/DX2                !
 ! D46   D(4,17,36,34)         120.0208         estimate D2E/DX2                !
 ! D47   D(4,17,36,37)           0.7715         estimate D2E/DX2                !
 ! D48   D(4,17,36,38)        -118.7315         estimate D2E/DX2                !
 ! D49   D(3,20,21,22)        -176.5304         estimate D2E/DX2                !
 ! D50   D(3,20,21,23)         -57.5939         estimate D2E/DX2                !
 ! D51   D(3,20,21,24)          64.4988         estimate D2E/DX2                !
 ! D52   D(30,25,26,27)         -1.2743         estimate D2E/DX2                !
 ! D53   D(30,25,26,31)        179.4573         estimate D2E/DX2                !
 ! D54   D(34,25,26,27)        178.3014         estimate D2E/DX2                !
 ! D55   D(34,25,26,31)         -0.967          estimate D2E/DX2                !
 ! D56   D(26,25,30,29)          0.8759         estimate D2E/DX2                !
 ! D57   D(26,25,30,33)       -179.343          estimate D2E/DX2                !
 ! D58   D(34,25,30,29)       -178.7209         estimate D2E/DX2                !
 ! D59   D(34,25,30,33)          1.0602         estimate D2E/DX2                !
 ! D60   D(26,25,34,35)       -179.178          estimate D2E/DX2                !
 ! D61   D(26,25,34,36)         -0.7361         estimate D2E/DX2                !
 ! D62   D(30,25,34,35)          0.3953         estimate D2E/DX2                !
 ! D63   D(30,25,34,36)        178.8373         estimate D2E/DX2                !
 ! D64   D(25,26,27,28)          0.815          estimate D2E/DX2                !
 ! D65   D(25,26,27,44)       -179.1631         estimate D2E/DX2                !
 ! D66   D(31,26,27,28)       -179.9396         estimate D2E/DX2                !
 ! D67   D(31,26,27,44)          0.0823         estimate D2E/DX2                !
 ! D68   D(26,27,28,29)          0.0553         estimate D2E/DX2                !
 ! D69   D(26,27,28,41)        179.7742         estimate D2E/DX2                !
 ! D70   D(44,27,28,29)       -179.9639         estimate D2E/DX2                !
 ! D71   D(44,27,28,41)         -0.245          estimate D2E/DX2                !
 ! D72   D(26,27,44,45)       -179.9641         estimate D2E/DX2                !
 ! D73   D(28,27,44,45)          0.0561         estimate D2E/DX2                !
 ! D74   D(27,28,29,30)         -0.462          estimate D2E/DX2                !
 ! D75   D(27,28,29,32)        179.6944         estimate D2E/DX2                !
 ! D76   D(41,28,29,30)        179.8224         estimate D2E/DX2                !
 ! D77   D(41,28,29,32)         -0.0213         estimate D2E/DX2                !
 ! D78   D(28,29,30,25)         -0.0149         estimate D2E/DX2                !
 ! D79   D(28,29,30,33)       -179.7901         estimate D2E/DX2                !
 ! D80   D(32,29,30,25)        179.8197         estimate D2E/DX2                !
 ! D81   D(32,29,30,33)          0.0446         estimate D2E/DX2                !
 ! D82   D(25,34,36,17)       -119.9752         estimate D2E/DX2                !
 ! D83   D(25,34,36,37)         -1.6451         estimate D2E/DX2                !
 ! D84   D(25,34,36,38)        120.7696         estimate D2E/DX2                !
 ! D85   D(35,34,36,17)         58.4913         estimate D2E/DX2                !
 ! D86   D(35,34,36,37)        176.8214         estimate D2E/DX2                !
 ! D87   D(35,34,36,38)        -60.7639         estimate D2E/DX2                !
 ! D88   D(17,36,38,39)         63.8175         estimate D2E/DX2                !
 ! D89   D(17,36,38,40)       -178.9999         estimate D2E/DX2                !
 ! D90   D(17,36,38,42)        -60.0206         estimate D2E/DX2                !
 ! D91   D(34,36,38,39)       -177.6478         estimate D2E/DX2                !
 ! D92   D(34,36,38,40)        -60.4652         estimate D2E/DX2                !
 ! D93   D(34,36,38,42)         58.5141         estimate D2E/DX2                !
 ! D94   D(37,36,38,39)        -55.0218         estimate D2E/DX2                !
 ! D95   D(37,36,38,40)         62.1608         estimate D2E/DX2                !
 ! D96   D(37,36,38,42)       -178.8599         estimate D2E/DX2                !
 ! D97   D(36,38,42,43)         45.855          estimate D2E/DX2                !
 ! D98   D(39,38,42,43)        -76.3485         estimate D2E/DX2                !
 ! D99   D(40,38,42,43)        165.6659         estimate D2E/DX2                !
 ! D100  D(27,44,45,46)        178.4077         estimate D2E/DX2                !
 ! D101  D(27,44,45,47)        -62.3357         estimate D2E/DX2                !
 ! D102  D(27,44,45,48)         58.897          estimate D2E/DX2                !
 --------------------------------------------------------------------------------
 Trust Radius=3.00D-01 FncErr=1.00D-07 GrdErr=1.00D-06 EigMax=2.50D+02 EigMin=1.00D-04
 Number of steps in this run=    241 maximum allowed number of steps=    288.
 GradGradGradGradGradGradGradGradGradGradGradGradGradGradGradGradGradGrad

                          Input orientation:                          
 ---------------------------------------------------------------------
 Center     Atomic      Atomic             Coordinates (Angstroms)
 Number     Number       Type             X           Y           Z
 ---------------------------------------------------------------------
      1          6           0       -4.861000   -5.370000   -0.750000
      2          6           0       -3.719000   -4.881000   -1.420000
      3          6           0       -3.177000   -3.633000   -1.110000
      4          6           0       -3.773000   -2.842000   -0.095000
      5          6           0       -4.900000   -3.323000    0.565000
      6          6           0       -5.446000   -4.568000    0.242000
      7          1           0       -3.258000   -5.483000   -2.200000
      8          1           0       -5.349000   -2.703000    1.344000
      9          1           0       -6.332000   -4.926000    0.772000
     10          6           0       -5.458000   -6.678000   -1.055000
     11          1           0       -5.336000   -7.021000   -2.086000
     12          6           0       -6.126000   -7.482000   -0.213000
     13          1           0       -6.287000   -7.199000    0.833000
     14          6           0       -6.709000   -8.806000   -0.594000
     15          1           0       -7.813000   -8.753000   -0.471000
     16          1           0       -6.540000   -8.966000   -1.680000
     17          8           0       -3.302000   -1.589000    0.204000
     18          8           0       -6.150000   -9.844000    0.179000
     19          1           0       -6.548000  -10.677000   -0.104000
     20          8           0       -2.096000   -3.096000   -1.732000
     21          6           0       -1.097000   -3.958000   -2.250000
     22          1           0       -0.304000   -3.310000   -2.644000
     23          1           0       -0.680000   -4.606000   -1.462000
     24          1           0       -1.494000   -4.586000   -3.065000
     25          6           0       -1.510000   -1.449000    3.192000
     26          6           0       -2.184000   -2.457000    3.995000
     27          6           0       -1.554000   -3.052000    5.045000
     28          6           0       -0.157000   -2.687000    5.430000
     29          6           0        0.484000   -1.653000    4.609000
     30          6           0       -0.150000   -1.075000    3.563000
     31          1           0       -3.202000   -2.729000    3.723000
     32          1           0        1.504000   -1.379000    4.890000
     33          1           0        0.350000   -0.309000    2.964000
     34          6           0       -2.080000   -0.846000    2.111000
     35          1           0       -1.488000   -0.110000    1.563000
     36          6           0       -3.454000   -1.125000    1.574000
     37          1           0       -3.939000   -1.919000    2.165000
     38          6           0       -4.327000    0.124000    1.573000
     39          1           0       -5.337000   -0.143000    1.210000
     40          1           0       -4.433000    0.493000    2.604000
     41          8           0        0.408000   -3.222000    6.380000
     42          8           0       -3.747000    1.155000    0.802000
     43          1           0       -3.450000    0.753000   -0.028000
     44          8           0       -2.078000   -4.002000    5.838000
     45          6           0       -1.277000   -4.512000    6.890000
     46          1           0       -1.891000   -5.244000    7.427000
     47          1           0       -0.375000   -5.007000    6.494000
     48          1           0       -0.966000   -3.712000    7.583000
 ---------------------------------------------------------------------
                    Distance matrix (angstroms):
                    1          2          3          4          5
     1  C    0.000000
     2  C    1.411448   0.000000
     3  C    2.445941   1.395481   0.000000
     4  C    2.829055   2.432296   1.418140   0.000000
     5  C    2.433301   2.786099   2.422902   1.391794   0.000000
     6  C    1.403386   2.417176   2.801873   2.427256   1.397308
     7  H    2.164458   1.087807   2.148758   3.416304   3.873886
     8  H    3.425765   3.878180   3.406553   2.138649   1.092173
     9  H    2.162744   3.410961   3.894586   3.412217   2.159417
    10  C    1.469795   2.527163   3.804998   4.298339   3.767199
    11  H    2.176309   2.763665   4.134296   4.885805   4.570897
    12  C    2.519750   3.743755   4.931127   5.203858   4.405183
    13  H    2.807954   4.128409   5.115047   5.115157   4.125405
    14  C    3.904553   5.002799   6.284999   6.666213   5.888892
    15  H    4.498537   5.714352   6.936513   7.169581   6.248501
    16  H    4.076169   4.971204   6.330526   6.904483   6.290713
    17  O    4.199590   3.694392   2.433137   1.371587   2.385515
    18  O    4.747761   5.753080   7.005481   7.399541   6.650935
    19  H    5.606027   6.582455   7.873602   8.311915   7.566028
    20  O    3.712226   2.432632   1.357871   2.357247   3.631825
    21  C    4.290855   2.900985   2.394081   3.612542   4.773914
    22  H    5.347624   3.953282   3.272860   4.330172   5.605450
    23  H    4.309455   3.051706   2.702895   3.814057   4.854196
    24  H    4.160597   2.782746   2.750041   4.129925   5.135456
    25  C    6.491749   6.158640   5.104503   4.226818   4.680289
    26  C    6.177938   6.128150   5.331984   4.404685   4.459990
    27  C    7.063384   7.058944   6.391848   5.602469   5.598174
    28  C    8.216964   8.026455   7.265460   6.604930   6.824131
    29  C    8.432318   8.027081   7.073209   6.454718   6.937600
    30  C    7.696916   7.214824   6.127236   5.443288   6.050125
    31  H    5.452971   5.599004   4.916882   3.862115   3.634419
    32  H    9.394195   8.908414   7.936767   7.405223   7.968436
    33  H    8.158556   7.528572   6.331365   5.724744   6.511674
    34  C    6.032069   5.606738   4.398365   3.422967   4.059316
    35  H    6.662935   6.052941   4.733833   3.928615   4.791776
    36  C    5.039906   4.810592   3.683836   2.415660   2.817836
    37  H    4.610500   4.655542   3.774131   2.446852   2.335538
    38  C    5.988783   5.863253   4.757735   3.447651   3.636785
    39  H    5.602652   5.655393   4.714669   3.381379   3.274049
    40  H    6.768107   6.751463   5.691679   4.340786   4.351720
    41  O    9.122125   8.979110   8.313919   7.716916   7.873963
    42  O    6.798921   6.432058   5.187060   4.096498   4.630125
    43  H    6.324819   5.809646   4.525732   3.610103   4.366684
    44  O    7.281364   7.492936   7.044052   6.278464   6.019074
    45  C    8.482383   8.669234   8.269380   7.603232   7.385491
    46  H    8.700581   9.041170   8.782339   8.117389   7.735074
    47  H    8.528277   8.592416   8.219483   7.723247   7.646210
    48  H    9.346597   9.486811   8.970118   8.221182   8.054812
                    6          7          8          9         10
     6  C    0.000000
     7  H    3.404105   0.000000
     8  H    2.168418   4.965946   0.000000
     9  H    1.092731   4.311903   2.497039   0.000000
    10  C    2.476783   2.753007   4.644105   2.677930   0.000000
    11  H    3.383621   2.587764   5.514544   3.680924   1.093386
    12  C    3.026685   4.021143   5.085943   2.746961   1.342238
    13  H    2.824663   4.617205   4.621145   2.274264   2.126788
    14  C    4.500523   5.052818   6.546148   4.130676   2.511156
    15  H    4.860585   5.867739   6.779972   4.287696   3.192602
    16  H    4.922735   4.813856   7.056077   4.730451   2.606970
    17  O    3.670507   4.576504   2.594380   4.543027   5.668451
    18  O    5.323135   5.748185   7.279609   4.956964   3.467734
    19  H    6.217234   6.495764   8.192617   5.821343   4.252588
    20  O    4.157639   2.695744   4.494245   5.250011   4.959042
    21  C    5.049353   2.645382   5.707133   6.121661   5.276812
    22  H    6.029239   3.693938   6.459460   7.114583   6.358621
    23  H    5.061602   2.821322   5.770148   6.085907   5.223803
    24  H    5.153142   2.159752   6.151910   6.184207   4.912215
    25  C    5.824325   6.957178   4.441345   6.418537   7.808083
    26  C    5.402034   6.977691   4.135885   5.804274   7.351083
    27  C    6.365118   7.829649   5.312365   6.678300   8.099327
    28  C    7.643757   8.697742   6.607005   8.052373   9.278141
    29  C    7.920405   8.662214   6.766581   8.478971   9.624910
    30  C    7.160845   7.893180   5.882512   7.799808   8.994131
    31  H    4.531536   6.532196   3.204673   4.830332   6.596470
    32  H    8.948526   9.475630   7.828838   9.536353  10.577895
    33  H    7.690382   8.151984   6.390167   8.412531   9.510488
    34  C    5.355035   6.440045   3.837069   6.043081   7.446252
    35  H    6.106109   6.794277   4.656064   6.876327   8.108850
    36  C    4.194823   5.768332   2.476693   4.834634   6.462466
    37  H    3.603634   5.676186   1.810193   4.087658   5.943386
    38  C    5.003857   6.842276   3.014773   5.492188   7.379211
    39  H    4.530952   6.668279   2.563533   4.904993   6.917448
    40  H    5.676172   7.757037   3.555429   6.027270   8.115550
    41  O    8.588136   9.600421   7.666401   8.932014  10.081325
    42  O    5.996076   7.301655   4.212402   6.607699   8.229937
    43  H    5.689460   6.606220   4.175227   6.418486   7.765729
    44  O    6.555837   8.258039   5.708141   6.679420   8.130118
    45  C    7.847267   9.353892   7.114196   7.946971   9.235548
    46  H    8.044826   9.726507   7.444282   8.007036   9.312581
    47  H    8.061964   9.171908   7.521409   8.260369   9.252920
    48  H    8.642535  10.202784   7.691157   8.755425  10.177930
                   11         12         13         14         15
    11  H    0.000000
    12  C    2.084406   0.000000
    13  H    3.075166   1.095503   0.000000
    14  C    2.701373   1.496003   2.190174   0.000000
    15  H    3.426890   2.127904   2.538505   1.112094   0.000000
    16  H    2.323247   2.127379   3.082445   1.110656   1.768496
    17  O    6.236015   6.548001   6.385763   8.020570   8.492799
    18  O    3.709737   2.394428   2.728096   1.409771   2.092451
    19  H    4.331698   3.224591   3.611450   1.940789   2.331671
    20  O    5.101817   6.146971   6.401431   7.428251   8.140999
    21  C    5.232398   6.469837   6.851647   7.598683   8.441654
    22  H    6.277253   7.563797   7.937893   8.685191   9.525401
    23  H    5.282039   6.284130   6.590078   7.398802   8.310197
    24  H    4.652809   6.162479   6.707833   7.149158   8.001405
    25  C    8.575707   8.324576   7.838821   9.771839  10.319583
    26  C    8.230660   7.648350   7.022778   9.046787   9.553555
    27  C    8.994868   8.256794   7.572308   9.564563  10.104590
    28  C   10.104249   9.511279   8.891988  10.800900  11.411945
    29  C   10.368744  10.045946   9.532195  11.400696  12.043945
    30  C    9.703644   9.540461   9.089502  10.957623  11.573522
    31  H    7.531248   6.828827   6.152254   8.238050   8.668306
    32  H   11.281948  11.022891  10.537141  12.356697  13.035440
    33  H   10.143177  10.172700   9.801175  11.605510  12.236622
    34  C    8.145365   8.112188   7.726108   9.597201  10.102211
    35  H    8.711155   8.888847   8.591695  10.369759  10.901570
    36  C    7.190295   7.123511   6.743029   8.619339   9.020493
    37  H    6.786237   6.433104   5.930070   7.919328   8.286129
    38  C    8.090574   8.017321   7.616793   9.492877   9.753526
    39  H    7.626959   7.517205   7.129640   8.954573   9.115286
    40  H    8.903466   8.625680   8.108059  10.093502  10.313513
    41  O   10.913253  10.213149   9.560793  11.422321  12.046286
    42  O    8.815466   9.015966   8.731659  10.485408  10.785238
    43  H    8.259990   8.660856   8.486707  10.115133  10.468813
    44  O    9.083980   8.069158   7.279184   9.267966   9.760415
    45  C   10.165586   9.098698   8.307064  10.195848  10.718661
    46  H   10.272435   9.017398   8.162578  10.011863  10.476716
    47  H   10.113561   9.175155   8.473696  10.236782  10.856684
    48  H   11.114672  10.080482   9.275490  11.215802  11.711533
                   16         17         18         19         20
    16  H    0.000000
    17  O    8.273707   0.000000
    18  O    2.092574   8.732511   0.000000
    19  H    2.326233   9.655212   0.965599   0.000000
    20  O    7.362658   2.733785   8.100762   8.941043   0.000000
    21  C    7.418303   4.061564   8.128828   8.914240   1.417522
    22  H    8.473920   4.478945   9.210765   9.985581   2.022079
    23  H    7.307306   4.330442   7.749221   8.551879   2.087596
    24  H    6.823836   4.789283   7.736177   8.450486   2.087916
    25  C   10.273392   3.486977  10.054044  11.018214   5.225111
    26  C    9.671993   4.046607   9.211883  10.169302   5.763210
    27  C   10.249937   5.350809   9.535850  10.468661   6.798781
    28  C   11.433312   6.197395  10.710355  11.632289   7.431100
    29  C   11.931809   5.808779  11.433606  12.373115   6.996208
    30  C   11.427556   4.634887  11.151090  12.107010   5.992360
    31  H    8.901394   3.700400   8.477846   9.434636   5.578078
    32  H   12.862092   6.715678  12.346395  13.275072   7.730393
    33  H   11.999270   4.753220  11.871076  12.825383   5.983536
    34  C   10.009879   2.383691  10.062879  11.023512   4.453247
    35  H   10.698995   2.706459  10.881197  11.834018   4.488083
    36  C    9.032895   1.454407   9.232302  10.179844   4.081500
    37  H    8.438568   2.088107   8.463944   9.415827   4.468622
    38  C    9.904922   2.420569  10.228763  11.153778   5.125308
    39  H    9.361872   2.691501   9.789450  10.684487   5.280119
    40  H   10.595508   3.372519  10.755570  11.686547   6.094537
    41  O   12.092636   7.387406  11.194224  12.083262   8.490609
    42  O   10.788689   2.843442  11.275661  12.192730   5.217083
    43  H   10.331320   2.358112  10.937516  11.842647   4.421734
    44  O   10.053411   6.250016   9.095847   9.992191   7.624045
    45  C   10.999190   7.572790   9.859710  10.710121   8.775802
    46  H   10.881357   8.217157   9.582932  10.388508   9.409740
    47  H   10.977030   7.733961   9.829874  10.667166   8.618633
    48  H   12.019865   8.025812  10.922202  11.779640   9.403488
                   21         22         23         24         25
    21  C    0.000000
    22  H    1.097264   0.000000
    23  H    1.102151   1.793911   0.000000
    24  H    1.102823   1.794858   1.797945   0.000000
    25  C    6.006747   6.243128   5.684652   6.999362   0.000000
    26  C    6.514184   6.952577   6.054673   7.406237   1.454355
    27  C    7.365237   7.794215   6.746839   8.254021   2.450542
    28  C    7.841010   8.099334   7.173267   8.806747   2.893423
    29  C    7.406650   7.481484   6.850704   8.450163   2.454698
    30  C    6.557398   6.598923   6.164372   7.619963   1.458464
    31  H    6.451217   7.019591   6.063649   7.241730   2.187059
    32  H    8.024714   7.984910   7.451932   9.085971   3.460101
    33  H    6.526470   6.394011   6.254165   7.618524   2.193441
    34  C    5.446940   5.642295   5.372516   6.412642   1.362744
    35  H    5.431294   5.416706   5.478823   6.438400   2.108802
    36  C    5.310773   5.699846   5.387925   6.110683   2.549909
    37  H    5.632647   6.186646   5.567421   6.359545   2.678744
    38  C    6.458402   6.764612   6.699607   7.191734   3.609845
    39  H    6.671089   7.086204   6.981805   7.265296   4.503320
    40  H    7.382521   7.684592   7.524438   8.159137   3.558235
    41  O    8.791110   9.052473   8.037174   9.730680   4.121359
    42  O    6.517666   6.607979   6.908061   7.279339   4.182952
    43  H    5.715541   5.766172   6.200656   6.446257   4.356696
    44  O    8.147395   8.693116   7.457159   8.941226   3.720450
    45  C    9.158543   9.658607   8.373837   9.957640   4.807438
    46  H    9.794313  10.377089   8.993769  10.520106   5.699334
    47  H    8.836245   9.294509   7.971936   9.633477   4.985057
    48  H    9.836949  10.256285   9.093572  10.696848   4.969707
                   26         27         28         29         30
    26  C    0.000000
    27  C    1.361406   0.000000
    28  C    2.494164   1.494342   0.000000
    29  C    2.853355   2.510128   1.467678   0.000000
    30  C    2.496739   2.841843   2.466634   1.352833   0.000000
    31  H    1.088252   2.137269   3.491080   3.940732   3.475057
    32  H    3.945181   3.489172   2.182060   1.092903   2.142209
    33  H    3.478221   3.934441   3.463104   2.128454   1.093415
    34  C    2.481047   3.708297   4.254759   3.669516   2.426035
    35  H    3.450717   4.558952   4.833858   3.943063   2.592580
    36  C    3.041112   4.401269   5.308370   4.999785   3.856817
    37  H    2.591982   3.907213   5.055054   5.060318   4.125925
    38  C    4.137644   5.461803   6.337750   5.959928   4.779647
    39  H    4.801274   6.122140   7.149317   6.907774   5.771499
    40  H    3.961740   5.178238   6.031820   5.727323   4.660729
    41  O    3.604430   2.379195   1.227986   2.367272   3.585591
    42  O    5.068014   6.364837   7.004816   6.346611   5.053160
    43  H    5.300131   6.618774   7.243426   6.539645   5.208346
    44  O    2.407262   1.343847   2.363457   3.686745   4.178533
    45  C    3.664246   2.369041   2.591645   4.059306   4.914471
    46  H    4.430783   3.254590   3.678725   5.145584   5.944925
    47  H    4.002497   2.704009   2.561644   3.942134   4.909380
    48  H    3.991528   2.687525   2.518038   3.897006   4.876477
                   31         32         33         34         35
    31  H    0.000000
    32  H    5.032974   0.000000
    33  H    4.364537   2.487186   0.000000
    34  C    2.720867   4.566397   2.630756   0.000000
    35  H    3.802967   4.650952   2.319622   1.092000   0.000000
    36  C    2.693422   5.970104   4.131389   1.501361   2.212578
    37  H    1.904372   6.110931   4.650379   2.147120   3.105203
    38  C    3.745362   6.874741   4.898643   2.505864   2.848645
    39  H    4.190560   7.865709   5.953658   3.451675   3.865294
    40  H    3.626128   6.631602   4.863116   2.751832   3.181244
    41  O    4.509412   2.611123   4.489765   5.482689   6.040103
    42  O    4.890268   7.120808   4.858287   2.914854   2.698597
    43  H    5.124044   7.298922   4.951758   3.001503   2.669362
    44  O    2.712403   4.539775   5.271936   4.883735   5.811316
    45  C    4.112737   4.642160   5.977107   6.076447   6.913686
    46  H    4.665143   5.735906   7.021017   6.902027   7.804285
    47  H    4.567237   4.389287   5.920957   6.279461   7.038049
    48  H    4.567886   4.335440   5.886206   6.276762   7.034720
                   36         37         38         39         40
    36  C    0.000000
    37  H    1.102244   0.000000
    38  C    1.523854   2.162142   0.000000
    39  H    2.154648   2.453692   1.105965   0.000000
    40  H    2.153431   2.500900   1.100163   1.779030   0.000000
    41  O    6.512303   6.193581   7.531480   8.319505   7.175980
    42  O    2.424919   3.368102   1.412021   2.092694   2.038638
    43  H    2.468462   3.491125   1.930795   2.428215   2.821580
    44  O    5.324678   4.614449   6.346030   6.850646   6.017458
    45  C    6.668655   6.011283   7.685407   8.236150   7.306173
    46  H    7.325759   6.552753   8.307758   8.749069   7.914307
    47  H    6.982590   6.401412   8.133985   8.729295   7.864443
    48  H    6.999342   6.434928   7.882342   8.512258   7.381907
                   41         42         43         44         45
    41  O    0.000000
    42  O    8.218043   0.000000
    43  H    8.470375   0.968872   0.000000
    44  O    2.661270   7.398750   7.674788   0.000000
    45  C    2.182527   8.676378   8.961076   1.417182   0.000000
    46  H    3.235752   9.395880   9.693891   2.025452   1.095988
    47  H    1.952514   9.040990   9.228744   2.083403   1.102472
    48  H    1.890816   8.797932   9.166995   2.089418   1.103164
                   46         47         48
    46  H    0.000000
    47  H    1.795805   0.000000
    48  H    1.796381   1.792269   0.000000
 Symmetry turned off by external request.
 Stoichiometry    C20H22O6
 Framework group  C1[X(C20H22O6)]
 Deg. of freedom   138
 Full point group                 C1      NOp   1
 Rotational constants (GHZ):           0.2073788           0.1025245           0.0806127
 Standard basis: def2SVP (5D, 7F)
   474 basis functions,   804 primitive gaussians,   500 cartesian basis functions
    95 alpha electrons       95 beta electrons
       nuclear repulsion energy      2217.8065809949 Hartrees.
 NAtoms=   48 NActive=   48 NUniq=   48 SFac= 1.00D+00 NAtFMM=   60 NAOKFM=F Big=F
 Integral buffers will be    131072 words long.
 Raffenetti 2 integral format.
 Two-electron integral symmetry is turned off.
 Nuclear repulsion after empirical dispersion term =     2217.7121112809 Hartrees.
 Using the following non-standard input for PCM:
 PDENS=7.0
 --- end of non-standard input.
 ------------------------------------------------------------------------------
 Polarizable Continuum Model (PCM)
 =================================
 Model                : C-PCM.
 Atomic radii         : UFF (Universal Force Field).
 Polarization charges : Total charges.
 Charge compensation  : None.
 Solution method      : On-the-fly selection.
 Cavity type          : Scaled VdW (van der Waals Surface) (Alpha=1.100).
 Cavity algorithm     : GePol (No added spheres)
                        Default sphere list used, NSphG=   48.
                        Lebedev-Laikov grids with approx.  7.0 points / Ang**2.
                        Smoothing algorithm: York/Karplus (Gamma=1.0000).
                        Polarization charges: spherical gaussians, with
                                              point-specific exponents (IZeta= 3).
                        Self-potential: point-specific (ISelfS= 7).
                        Self-field    : sphere-specific E.n sum rule (ISelfD= 2).
 1st derivatives      : Analytical E(r).r(x)/FMM algorithm (CHGder, D1EAlg=3).
                        Cavity 1st derivative terms included.
 Solvent              : Water, Eps=  78.355300 Eps(inf)=   1.777849
 ------------------------------------------------------------------------------
 One-electron integrals computed using PRISM.
   1 Symmetry operations used in ECPInt.
 ECPInt:  NShTT=   24753 NPrTT=   89657 LenC2=   20038 LenP2D=   47980.
 LDataN:  DoStor=T MaxTD1= 4 Len=   56
 NBasis=   474 RedAO= T EigKep=  1.99D-04  NBF=   474
 NBsUse=   474 1.00D-06 EigRej= -1.00D+00 NBFU=   474
 ExpMin= 1.22D-01 ExpMax= 2.27D+03 ExpMxC= 3.41D+02 IAcc=3 IRadAn=         5 AccDes= 0.00D+00
 Harris functional with IExCor=  402 and IRadAn=       5 diagonalized for initial guess.
 HarFok:  IExCor=  402 AccDes= 0.00D+00 IRadAn=         5 IDoV= 1 UseB2=F ITyADJ=14
 ICtDFT=  3500011 ScaDFX=  1.000000  1.000000  1.000000  1.000000
 FoFCou: FMM=F IPFlag=           0 FMFlag=      100000 FMFlg1=           0
         NFxFlg=           0 DoJE=T BraDBF=F KetDBF=T FulRan=T
         wScrn=  0.000000 ICntrl=       500 IOpCl=  0 I1Cent=   200000004 NGrid=           0
         NMat0=    1 NMatS0=      1 NMatT0=    0 NMatD0=    1 NMtDS0=    0 NMtDT0=    0
 Symmetry not used in FoFCou.
 Mixing orbitals, IMix= 1 IMixAn=  0 NRI=1 NE=   95 Coef=  7.07106781D-01  7.07106781D-01
 Requested convergence on RMS density matrix=1.00D-08 within 400 cycles.
 Requested convergence on MAX density matrix=1.00D-06.
 Requested convergence on             energy=1.00D-06.
 No special actions if energy rises.
 Inv3:  Mode=1 IEnd=    83666883.
 Iteration    1 A*A^-1 deviation from unit magnitude is 3.11D-15 for    888.
 Iteration    1 A*A^-1 deviation from orthogonality  is 2.33D-15 for   4600     16.
 Iteration    1 A^-1*A deviation from unit magnitude is 3.33D-15 for   3177.
 Iteration    1 A^-1*A deviation from orthogonality  is 2.33D-15 for   3417    499.
 Error on total polarization charges =  0.01328
 SCF Done:  E(RB3LYP) =  -1225.77695916     A.U. after   14 cycles
            NFock= 14  Conv=0.60D-08     -V/T= 2.0097
 QCSCF skips out because SCF is already converged.

 **********************************************************************

            Population analysis using the SCF Density.

 **********************************************************************

 Alpha  occ. eigenvalues --  -19.17414 -19.17394 -19.16417 -19.13804 -19.12908
 Alpha  occ. eigenvalues --  -19.12266 -10.27982 -10.26282 -10.26009 -10.25597
 Alpha  occ. eigenvalues --  -10.25438 -10.24176 -10.24165 -10.23414 -10.22412
 Alpha  occ. eigenvalues --  -10.22134 -10.21854 -10.21672 -10.20229 -10.20192
 Alpha  occ. eigenvalues --  -10.20084 -10.19659 -10.19616 -10.19527 -10.19230
 Alpha  occ. eigenvalues --  -10.19023  -1.07992  -1.06984  -1.05275  -1.02932
 Alpha  occ. eigenvalues --   -1.01500  -1.00807  -0.86407  -0.85692  -0.80684
 Alpha  occ. eigenvalues --   -0.78972  -0.76803  -0.75572  -0.74993  -0.73390
 Alpha  occ. eigenvalues --   -0.69585  -0.69086  -0.67047  -0.65928  -0.63546
 Alpha  occ. eigenvalues --   -0.62042  -0.60868  -0.59572  -0.57374  -0.55619
 Alpha  occ. eigenvalues --   -0.55463  -0.52932  -0.52323  -0.51878  -0.51242
 Alpha  occ. eigenvalues --   -0.50278  -0.49945  -0.49408  -0.48178  -0.47851
 Alpha  occ. eigenvalues --   -0.47321  -0.46742  -0.45273  -0.45176  -0.44732
 Alpha  occ. eigenvalues --   -0.44291  -0.43944  -0.43213  -0.42872  -0.42030
 Alpha  occ. eigenvalues --   -0.41216  -0.40558  -0.40193  -0.39436  -0.39230
 Alpha  occ. eigenvalues --   -0.38525  -0.37598  -0.37012  -0.36353  -0.36260
 Alpha  occ. eigenvalues --   -0.36010  -0.34824  -0.34157  -0.33623  -0.33426
 Alpha  occ. eigenvalues --   -0.32287  -0.31878  -0.28905  -0.28025  -0.27034
 Alpha  occ. eigenvalues --   -0.26947  -0.24661  -0.24021  -0.22635  -0.21374
 Alpha virt. eigenvalues --   -0.10040  -0.03766  -0.01371  -0.00724   0.02119
 Alpha virt. eigenvalues --    0.03580   0.05782   0.06546   0.06986   0.07236
 Alpha virt. eigenvalues --    0.07530   0.08336   0.08795   0.09239   0.10308
 Alpha virt. eigenvalues --    0.10646   0.11453   0.11627   0.11851   0.12686
 Alpha virt. eigenvalues --    0.12699   0.13156   0.13363   0.13659   0.14688
 Alpha virt. eigenvalues --    0.14825   0.15099   0.16108   0.16959   0.17397
 Alpha virt. eigenvalues --    0.17977   0.18654   0.19387   0.20473   0.20887
 Alpha virt. eigenvalues --    0.21473   0.22481   0.23059   0.23543   0.24107
 Alpha virt. eigenvalues --    0.25808   0.27235   0.27557   0.28536   0.29268
 Alpha virt. eigenvalues --    0.29347   0.31032   0.31236   0.32247   0.32416
 Alpha virt. eigenvalues --    0.33753   0.34479   0.35231   0.37536   0.37978
 Alpha virt. eigenvalues --    0.38775   0.38958   0.39514   0.40873   0.41242
 Alpha virt. eigenvalues --    0.42865   0.43129   0.43362   0.44092   0.44750
 Alpha virt. eigenvalues --    0.45438   0.45527   0.46063   0.46405   0.46774
 Alpha virt. eigenvalues --    0.47350   0.47901   0.48485   0.49244   0.49640
 Alpha virt. eigenvalues --    0.50242   0.50894   0.51495   0.51780   0.52937
 Alpha virt. eigenvalues --    0.53275   0.53678   0.54408   0.54593   0.55193
 Alpha virt. eigenvalues --    0.55641   0.56693   0.57004   0.57911   0.58874
 Alpha virt. eigenvalues --    0.59365   0.59798   0.60155   0.60971   0.61962
 Alpha virt. eigenvalues --    0.62647   0.62798   0.63092   0.63557   0.63704
 Alpha virt. eigenvalues --    0.63965   0.64484   0.64662   0.64853   0.65108
 Alpha virt. eigenvalues --    0.65624   0.65753   0.66095   0.66209   0.66625
 Alpha virt. eigenvalues --    0.66852   0.67101   0.67424   0.67973   0.68505
 Alpha virt. eigenvalues --    0.68876   0.69191   0.70380   0.70664   0.71120
 Alpha virt. eigenvalues --    0.71518   0.71795   0.73162   0.73599   0.74090
 Alpha virt. eigenvalues --    0.74839   0.76103   0.76627   0.77251   0.78345
 Alpha virt. eigenvalues --    0.78924   0.79741   0.80541   0.81416   0.81796
 Alpha virt. eigenvalues --    0.84306   0.85038   0.86098   0.87375   0.88471
 Alpha virt. eigenvalues --    0.90068   0.90482   0.91791   0.93318   0.95316
 Alpha virt. eigenvalues --    0.95732   0.97661   0.98406   0.99810   1.00531
 Alpha virt. eigenvalues --    1.00844   1.01977   1.03485   1.05194   1.05615
 Alpha virt. eigenvalues --    1.06487   1.07130   1.08464   1.09072   1.10615
 Alpha virt. eigenvalues --    1.11400   1.12119   1.13389   1.14923   1.16649
 Alpha virt. eigenvalues --    1.16948   1.18875   1.20572   1.21014   1.22007
 Alpha virt. eigenvalues --    1.23290   1.23878   1.24588   1.26056   1.26478
 Alpha virt. eigenvalues --    1.26970   1.27258   1.27548   1.28771   1.29757
 Alpha virt. eigenvalues --    1.30424   1.31373   1.32545   1.33465   1.36441
 Alpha virt. eigenvalues --    1.37029   1.38689   1.40532   1.41546   1.41629
 Alpha virt. eigenvalues --    1.42511   1.43686   1.44968   1.46762   1.47114
 Alpha virt. eigenvalues --    1.47721   1.48078   1.50856   1.52039   1.53247
 Alpha virt. eigenvalues --    1.54114   1.56132   1.58403   1.58644   1.59420
 Alpha virt. eigenvalues --    1.59935   1.61299   1.62184   1.63511   1.64091
 Alpha virt. eigenvalues --    1.65002   1.65655   1.66594   1.67449   1.67788
 Alpha virt. eigenvalues --    1.68507   1.69549   1.70261   1.71174   1.71975
 Alpha virt. eigenvalues --    1.72522   1.73416   1.73735   1.74221   1.74445
 Alpha virt. eigenvalues --    1.74700   1.75500   1.76169   1.76693   1.76964
 Alpha virt. eigenvalues --    1.77479   1.77856   1.78152   1.79429   1.79859
 Alpha virt. eigenvalues --    1.80247   1.81021   1.81711   1.82185   1.83435
 Alpha virt. eigenvalues --    1.83982   1.84532   1.85076   1.85832   1.86373
 Alpha virt. eigenvalues --    1.86891   1.87357   1.88099   1.88442   1.88949
 Alpha virt. eigenvalues --    1.89604   1.90676   1.91293   1.91919   1.92297
 Alpha virt. eigenvalues --    1.93149   1.93999   1.96126   1.96979   1.98099
 Alpha virt. eigenvalues --    1.98794   2.00368   2.00926   2.01355   2.01757
 Alpha virt. eigenvalues --    2.03461   2.04736   2.05933   2.07421   2.08947
 Alpha virt. eigenvalues --    2.09700   2.11477   2.12617   2.12923   2.13720
 Alpha virt. eigenvalues --    2.13797   2.14806   2.15051   2.16467   2.17259
 Alpha virt. eigenvalues --    2.19072   2.19689   2.21269   2.21553   2.22357
 Alpha virt. eigenvalues --    2.23060   2.24682   2.25273   2.25708   2.26962
 Alpha virt. eigenvalues --    2.28355   2.29112   2.29944   2.31159   2.31768
 Alpha virt. eigenvalues --    2.32220   2.33251   2.33706   2.35084   2.35772
 Alpha virt. eigenvalues --    2.37314   2.38052   2.38474   2.39203   2.40236
 Alpha virt. eigenvalues --    2.43130   2.45824   2.46611   2.49243   2.50188
 Alpha virt. eigenvalues --    2.51944   2.54052   2.54878   2.55784   2.57092
 Alpha virt. eigenvalues --    2.59864   2.60892   2.62063   2.63820   2.63958
 Alpha virt. eigenvalues --    2.64693   2.65533   2.66854   2.68983   2.70845
 Alpha virt. eigenvalues --    2.71901   2.72102   2.72912   2.74038   2.75665
 Alpha virt. eigenvalues --    2.77799   2.79433   2.79879   2.80369   2.83089
 Alpha virt. eigenvalues --    2.83356   2.84566   2.84937   2.87090   2.87344
 Alpha virt. eigenvalues --    2.88969   2.89325   2.89426   2.90047   2.91629
 Alpha virt. eigenvalues --    2.93079   2.94599   2.97525   2.98352   3.00750
 Alpha virt. eigenvalues --    3.03248   3.05276   3.05685   3.06201   3.07532
 Alpha virt. eigenvalues --    3.07922   3.08088   3.10704   3.12100   3.13807
 Alpha virt. eigenvalues --    3.14866   3.17257   3.18189   3.24846   3.26849
 Alpha virt. eigenvalues --    3.29771   3.32018   3.34050   3.37237   3.39378
 Alpha virt. eigenvalues --    3.41989   3.45613   3.51827   3.53403   3.58868
 Alpha virt. eigenvalues --    3.69437   3.73594   3.76053   3.76157
          Condensed to atoms (all electrons):
               1          2          3          4          5          6
     1  C    5.354895   0.172583   0.154909  -0.176741   0.121629   0.220730
     2  C    0.172583   5.424410   0.221950   0.068994  -0.128534   0.064008
     3  C    0.154909   0.221950   5.173309   0.119050   0.073485  -0.157146
     4  C   -0.176741   0.068994   0.119050   5.262903   0.213028   0.140933
     5  C    0.121629  -0.128534   0.073485   0.213028   5.314030   0.162099
     6  C    0.220730   0.064008  -0.157146   0.140933   0.162099   5.299748
     7  H   -0.077350   0.462363  -0.089769   0.020640  -0.003717   0.018485
     8  H    0.016802  -0.002791   0.017004  -0.082926   0.453538  -0.071199
     9  H   -0.076075   0.017081  -0.002380   0.016664  -0.070252   0.447956
    10  C    0.299709  -0.095755   0.015476  -0.002342   0.019398  -0.100968
    11  H   -0.045156  -0.014839   0.000634  -0.000036  -0.000471   0.010128
    12  C   -0.054689   0.010791  -0.000692   0.000126   0.000743  -0.014991
    13  H   -0.021073  -0.000521   0.000051  -0.000070   0.000260   0.006821
    14  C    0.009735  -0.000241   0.000003   0.000001  -0.000007   0.000391
    15  H   -0.001094   0.000013  -0.000000   0.000000  -0.000004  -0.000042
    16  H    0.001308  -0.000048   0.000000  -0.000000   0.000003   0.000059
    17  O   -0.000061   0.002636  -0.070811   0.369706  -0.069715   0.005850
    18  O   -0.000312   0.000002  -0.000000  -0.000000   0.000000   0.000005
    19  H    0.000034  -0.000001   0.000000   0.000000  -0.000000  -0.000001
    20  O    0.005251  -0.074580   0.405950  -0.090665   0.004425  -0.000164
    21  C    0.000887  -0.002235  -0.051725   0.005925  -0.000216   0.000065
    22  H   -0.000014   0.000090   0.004681  -0.000057   0.000019   0.000002
    23  H   -0.000425   0.005107   0.002919   0.001819  -0.000268  -0.000008
    24  H    0.000858   0.007065  -0.014310  -0.001692   0.000132  -0.000083
    25  C    0.000000  -0.000006  -0.000119   0.001052   0.000380   0.000006
    26  C    0.000002   0.000000  -0.000021  -0.000268  -0.000313  -0.000065
    27  C   -0.000000   0.000000   0.000001  -0.000065  -0.000027  -0.000001
    28  C   -0.000000   0.000000  -0.000000   0.000000   0.000000   0.000000
    29  C    0.000000   0.000000   0.000000  -0.000002  -0.000001  -0.000000
    30  C   -0.000000  -0.000000   0.000006   0.000006   0.000010   0.000000
    31  H   -0.000010   0.000000  -0.000026   0.000312   0.001531   0.000264
    32  H   -0.000000   0.000000   0.000000  -0.000000   0.000000   0.000000
    33  H   -0.000000  -0.000000   0.000000   0.000001   0.000000   0.000000
    34  C    0.000009   0.000048   0.000266   0.000647   0.000286  -0.000185
    35  H   -0.000001   0.000003   0.000052  -0.000516  -0.000158   0.000001
    36  C   -0.000095   0.000080   0.003590  -0.037952  -0.013394   0.001213
    37  H   -0.000091  -0.000135   0.001283  -0.004703   0.001106  -0.000697
    38  C   -0.000007   0.000017  -0.000913  -0.003064  -0.003191   0.000249
    39  H    0.000008  -0.000003  -0.000171  -0.000504  -0.000502  -0.000252
    40  H   -0.000000  -0.000001   0.000047   0.000374  -0.000059   0.000004
    41  O   -0.000000   0.000000  -0.000000   0.000000  -0.000000   0.000000
    42  O   -0.000000  -0.000000   0.000025   0.000148   0.000022   0.000001
    43  H    0.000000  -0.000006  -0.000041   0.000331   0.000041  -0.000003
    44  O   -0.000000   0.000000  -0.000000   0.000000  -0.000000   0.000000
    45  C    0.000000  -0.000000   0.000000  -0.000000  -0.000000  -0.000000
    46  H    0.000000  -0.000000   0.000000   0.000000   0.000000  -0.000000
    47  H   -0.000000  -0.000000  -0.000000   0.000000   0.000000  -0.000000
    48  H   -0.000000   0.000000  -0.000000  -0.000000  -0.000000   0.000000
               7          8          9         10         11         12
     1  C   -0.077350   0.016802  -0.076075   0.299709  -0.045156  -0.054689
     2  C    0.462363  -0.002791   0.017081  -0.095755  -0.014839   0.010791
     3  C   -0.089769   0.017004  -0.002380   0.015476   0.000634  -0.000692
     4  C    0.020640  -0.082926   0.016664  -0.002342  -0.000036   0.000126
     5  C   -0.003717   0.453538  -0.070252   0.019398  -0.000471   0.000743
     6  C    0.018485  -0.071199   0.447956  -0.100968   0.010128  -0.014991
     7  H    0.707568  -0.000001  -0.000268  -0.017453   0.005436   0.000391
     8  H   -0.000001   0.681338  -0.013767  -0.000335   0.000009  -0.000010
     9  H   -0.000268  -0.013767   0.709261  -0.022998   0.000161   0.007110
    10  C   -0.017453  -0.000335  -0.022998   4.980857   0.399341   0.609844
    11  H    0.005436   0.000009   0.000161   0.399341   0.694958  -0.052145
    12  C    0.000391  -0.000010   0.007110   0.609844  -0.052145   4.947302
    13  H    0.000019   0.000030   0.000743  -0.033995   0.010215   0.375238
    14  C   -0.000037  -0.000001  -0.000061  -0.025868  -0.017392   0.363078
    15  H    0.000000   0.000000  -0.000052  -0.001515   0.000132  -0.000927
    16  H    0.000015   0.000000  -0.000012  -0.011483   0.010596  -0.043695
    17  O   -0.000050  -0.008819  -0.000101   0.000001  -0.000000  -0.000000
    18  O   -0.000001  -0.000000   0.000000  -0.001346  -0.000093  -0.056966
    19  H    0.000000   0.000000  -0.000001  -0.000024  -0.000078   0.007317
    20  O   -0.007713  -0.000068   0.000004  -0.000068  -0.000002   0.000000
    21  C    0.004808   0.000008  -0.000000  -0.000049  -0.000000  -0.000001
    22  H   -0.000378  -0.000000  -0.000000  -0.000001   0.000000   0.000000
    23  H    0.001375   0.000002   0.000000   0.000021  -0.000007  -0.000000
    24  H   -0.001239  -0.000001  -0.000000   0.000059   0.000001   0.000000
    25  C    0.000000   0.000034  -0.000000  -0.000000  -0.000000   0.000000
    26  C    0.000000  -0.000137   0.000000   0.000000   0.000000  -0.000000
    27  C    0.000000   0.000009   0.000000   0.000000  -0.000000  -0.000000
    28  C    0.000000   0.000000  -0.000000  -0.000000   0.000000   0.000000
    29  C   -0.000000  -0.000000   0.000000   0.000000   0.000000  -0.000000
    30  C    0.000000   0.000002  -0.000000  -0.000000  -0.000000   0.000000
    31  H    0.000000   0.000038  -0.000004  -0.000000  -0.000000   0.000000
    32  H   -0.000000   0.000000  -0.000000  -0.000000  -0.000000   0.000000
    33  H    0.000000   0.000000  -0.000000  -0.000000  -0.000000   0.000000
    34  C   -0.000001   0.001923  -0.000001  -0.000000   0.000000  -0.000000
    35  H    0.000000  -0.000035   0.000000   0.000000  -0.000000  -0.000000
    36  C    0.000008  -0.002051  -0.000043   0.000001   0.000000  -0.000000
    37  H   -0.000000   0.004050   0.000208   0.000000   0.000000   0.000001
    38  C   -0.000000  -0.005005  -0.000004   0.000000  -0.000000  -0.000000
    39  H    0.000000   0.004132  -0.000004  -0.000000  -0.000000  -0.000000
    40  H    0.000000  -0.000074  -0.000000   0.000000   0.000000  -0.000000
    41  O   -0.000000  -0.000000  -0.000000   0.000000  -0.000000   0.000000
    42  O   -0.000000  -0.000099   0.000000   0.000000   0.000000  -0.000000
    43  H    0.000000   0.000003   0.000000   0.000000  -0.000000   0.000000
    44  O   -0.000000   0.000001  -0.000000  -0.000000  -0.000000   0.000000
    45  C    0.000000  -0.000000   0.000000   0.000000   0.000000  -0.000000
    46  H   -0.000000  -0.000000   0.000000   0.000000  -0.000000   0.000000
    47  H    0.000000   0.000000  -0.000000  -0.000000   0.000000  -0.000000
    48  H   -0.000000   0.000000  -0.000000  -0.000000   0.000000   0.000000
              13         14         15         16         17         18
     1  C   -0.021073   0.009735  -0.001094   0.001308  -0.000061  -0.000312
     2  C   -0.000521  -0.000241   0.000013  -0.000048   0.002636   0.000002
     3  C    0.000051   0.000003  -0.000000   0.000000  -0.070811  -0.000000
     4  C   -0.000070   0.000001   0.000000  -0.000000   0.369706  -0.000000
     5  C    0.000260  -0.000007  -0.000004   0.000003  -0.069715   0.000000
     6  C    0.006821   0.000391  -0.000042   0.000059   0.005850   0.000005
     7  H    0.000019  -0.000037   0.000000   0.000015  -0.000050  -0.000001
     8  H    0.000030  -0.000001   0.000000   0.000000  -0.008819  -0.000000
     9  H    0.000743  -0.000061  -0.000052  -0.000012  -0.000101   0.000000
    10  C   -0.033995  -0.025868  -0.001515  -0.011483   0.000001  -0.001346
    11  H    0.010215  -0.017392   0.000132   0.010596  -0.000000  -0.000093
    12  C    0.375238   0.363078  -0.000927  -0.043695  -0.000000  -0.056966
    13  H    0.692585  -0.043378  -0.008447   0.010557  -0.000000   0.005215
    14  C   -0.043378   4.417600   0.343631   0.384211   0.000000   0.337506
    15  H   -0.008447   0.343631   0.748539  -0.048053  -0.000000  -0.033040
    16  H    0.010557   0.384211  -0.048053   0.739573   0.000000  -0.029094
    17  O   -0.000000   0.000000  -0.000000   0.000000   7.980330   0.000000
    18  O    0.005215   0.337506  -0.033040  -0.029094   0.000000   7.801502
    19  H   -0.000416  -0.015815  -0.004870  -0.005623  -0.000000   0.318403
    20  O    0.000000  -0.000000  -0.000000   0.000000   0.001717   0.000000
    21  C    0.000000   0.000000  -0.000000   0.000000   0.000175  -0.000000
    22  H   -0.000000  -0.000000  -0.000000   0.000000   0.000007   0.000000
    23  H   -0.000000  -0.000000   0.000000   0.000000  -0.000018  -0.000000
    24  H    0.000000   0.000000  -0.000000  -0.000000  -0.000005   0.000000
    25  C   -0.000000  -0.000000   0.000000  -0.000000  -0.000640   0.000000
    26  C    0.000000  -0.000000   0.000000   0.000000  -0.000370  -0.000000
    27  C   -0.000000   0.000000  -0.000000   0.000000  -0.000030   0.000000
    28  C    0.000000   0.000000  -0.000000   0.000000  -0.000000  -0.000000
    29  C    0.000000   0.000000  -0.000000   0.000000   0.000004   0.000000
    30  C   -0.000000  -0.000000   0.000000  -0.000000  -0.000248  -0.000000
    31  H   -0.000000   0.000000   0.000000  -0.000000  -0.000308   0.000000
    32  H   -0.000000  -0.000000   0.000000  -0.000000  -0.000000  -0.000000
    33  H   -0.000000   0.000000   0.000000   0.000000  -0.000021  -0.000000
    34  C    0.000000  -0.000000  -0.000000   0.000000  -0.042019   0.000000
    35  H   -0.000000   0.000000  -0.000000  -0.000000  -0.000781  -0.000000
    36  C   -0.000000   0.000000  -0.000000   0.000000   0.242931   0.000000
    37  H    0.000001  -0.000000   0.000000  -0.000000  -0.028507  -0.000000
    38  C   -0.000000   0.000000   0.000000  -0.000000  -0.042157  -0.000000
    39  H   -0.000000  -0.000000   0.000000   0.000000  -0.002782   0.000000
    40  H   -0.000000  -0.000000   0.000000  -0.000000   0.004271  -0.000000
    41  O   -0.000000  -0.000000   0.000000  -0.000000  -0.000000   0.000000
    42  O    0.000000   0.000000  -0.000000   0.000000  -0.006264   0.000000
    43  H   -0.000000  -0.000000   0.000000  -0.000000   0.020115  -0.000000
    44  O    0.000000   0.000000   0.000000  -0.000000  -0.000000  -0.000000
    45  C   -0.000000   0.000000  -0.000000   0.000000  -0.000000   0.000000
    46  H   -0.000000  -0.000000   0.000000   0.000000  -0.000000   0.000000
    47  H    0.000000   0.000000  -0.000000   0.000000   0.000000  -0.000000
    48  H    0.000000   0.000000  -0.000000  -0.000000   0.000000  -0.000000
              19         20         21         22         23         24
     1  C    0.000034   0.005251   0.000887  -0.000014  -0.000425   0.000858
     2  C   -0.000001  -0.074580  -0.002235   0.000090   0.005107   0.007065
     3  C    0.000000   0.405950  -0.051725   0.004681   0.002919  -0.014310
     4  C    0.000000  -0.090665   0.005925  -0.000057   0.001819  -0.001692
     5  C   -0.000000   0.004425  -0.000216   0.000019  -0.000268   0.000132
     6  C   -0.000001  -0.000164   0.000065   0.000002  -0.000008  -0.000083
     7  H    0.000000  -0.007713   0.004808  -0.000378   0.001375  -0.001239
     8  H    0.000000  -0.000068   0.000008  -0.000000   0.000002  -0.000001
     9  H   -0.000001   0.000004  -0.000000  -0.000000   0.000000  -0.000000
    10  C   -0.000024  -0.000068  -0.000049  -0.000001   0.000021   0.000059
    11  H   -0.000078  -0.000002  -0.000000   0.000000  -0.000007   0.000001
    12  C    0.007317   0.000000  -0.000001   0.000000  -0.000000   0.000000
    13  H   -0.000416   0.000000   0.000000  -0.000000  -0.000000   0.000000
    14  C   -0.015815  -0.000000   0.000000  -0.000000  -0.000000   0.000000
    15  H   -0.004870  -0.000000  -0.000000  -0.000000   0.000000  -0.000000
    16  H   -0.005623   0.000000   0.000000   0.000000   0.000000  -0.000000
    17  O   -0.000000   0.001717   0.000175   0.000007  -0.000018  -0.000005
    18  O    0.318403   0.000000  -0.000000   0.000000  -0.000000   0.000000
    19  H    0.516122  -0.000000  -0.000000  -0.000000   0.000000   0.000000
    20  O   -0.000000   7.872773   0.308495  -0.023755  -0.033988  -0.028271
    21  C   -0.000000   0.308495   4.375416   0.394129   0.388137   0.399163
    22  H   -0.000000  -0.023755   0.394129   0.631572  -0.023070  -0.023904
    23  H    0.000000  -0.033988   0.388137  -0.023070   0.672380  -0.042199
    24  H    0.000000  -0.028271   0.399163  -0.023904  -0.042199   0.667526
    25  C    0.000000  -0.000044  -0.000004   0.000001   0.000010  -0.000000
    26  C   -0.000000   0.000001  -0.000000  -0.000000   0.000001   0.000000
    27  C   -0.000000   0.000000  -0.000000   0.000000  -0.000000   0.000000
    28  C   -0.000000  -0.000000   0.000000  -0.000000   0.000000  -0.000000
    29  C   -0.000000   0.000000   0.000000  -0.000000  -0.000000   0.000000
    30  C    0.000000  -0.000001  -0.000000   0.000000   0.000001  -0.000000
    31  H    0.000000  -0.000002  -0.000000  -0.000000   0.000000  -0.000000
    32  H    0.000000  -0.000000  -0.000000   0.000000   0.000000  -0.000000
    33  H    0.000000  -0.000000  -0.000000   0.000000   0.000000  -0.000000
    34  C   -0.000000   0.000316  -0.000000   0.000000  -0.000012   0.000002
    35  H    0.000000   0.000040  -0.000001   0.000001  -0.000001   0.000000
    36  C   -0.000000  -0.000415   0.000027  -0.000004   0.000007  -0.000000
    37  H    0.000000   0.000031   0.000009   0.000000  -0.000003  -0.000000
    38  C    0.000000  -0.000016   0.000000  -0.000000   0.000000  -0.000000
    39  H   -0.000000  -0.000000  -0.000000  -0.000000   0.000000  -0.000000
    40  H    0.000000  -0.000000   0.000000   0.000000   0.000000  -0.000000
    41  O    0.000000  -0.000000  -0.000000   0.000000   0.000000  -0.000000
    42  O   -0.000000  -0.000000   0.000000   0.000000  -0.000000   0.000000
    43  H    0.000000   0.000036  -0.000001   0.000001   0.000001  -0.000000
    44  O    0.000000  -0.000000  -0.000000   0.000000   0.000000  -0.000000
    45  C   -0.000000  -0.000000  -0.000000   0.000000  -0.000000  -0.000000
    46  H    0.000000   0.000000   0.000000   0.000000  -0.000000  -0.000000
    47  H   -0.000000   0.000000  -0.000000  -0.000000   0.000000   0.000000
    48  H    0.000000  -0.000000   0.000000   0.000000  -0.000000  -0.000000
              25         26         27         28         29         30
     1  C    0.000000   0.000002  -0.000000  -0.000000   0.000000  -0.000000
     2  C   -0.000006   0.000000   0.000000   0.000000   0.000000  -0.000000
     3  C   -0.000119  -0.000021   0.000001  -0.000000   0.000000   0.000006
     4  C    0.001052  -0.000268  -0.000065   0.000000  -0.000002   0.000006
     5  C    0.000380  -0.000313  -0.000027   0.000000  -0.000001   0.000010
     6  C    0.000006  -0.000065  -0.000001   0.000000  -0.000000   0.000000
     7  H    0.000000   0.000000   0.000000   0.000000  -0.000000   0.000000
     8  H    0.000034  -0.000137   0.000009   0.000000  -0.000000   0.000002
     9  H   -0.000000   0.000000   0.000000  -0.000000   0.000000  -0.000000
    10  C   -0.000000   0.000000   0.000000  -0.000000   0.000000  -0.000000
    11  H   -0.000000   0.000000  -0.000000   0.000000   0.000000  -0.000000
    12  C    0.000000  -0.000000  -0.000000   0.000000  -0.000000   0.000000
    13  H   -0.000000   0.000000  -0.000000   0.000000   0.000000  -0.000000
    14  C   -0.000000  -0.000000   0.000000   0.000000   0.000000  -0.000000
    15  H    0.000000   0.000000  -0.000000  -0.000000  -0.000000   0.000000
    16  H   -0.000000   0.000000   0.000000   0.000000   0.000000  -0.000000
    17  O   -0.000640  -0.000370  -0.000030  -0.000000   0.000004  -0.000248
    18  O    0.000000  -0.000000   0.000000  -0.000000   0.000000  -0.000000
    19  H    0.000000  -0.000000  -0.000000  -0.000000  -0.000000   0.000000
    20  O   -0.000044   0.000001   0.000000  -0.000000   0.000000  -0.000001
    21  C   -0.000004  -0.000000  -0.000000   0.000000   0.000000  -0.000000
    22  H    0.000001  -0.000000   0.000000  -0.000000  -0.000000   0.000000
    23  H    0.000010   0.000001  -0.000000   0.000000  -0.000000   0.000001
    24  H   -0.000000   0.000000   0.000000  -0.000000   0.000000  -0.000000
    25  C    5.169207   0.175256   0.136117  -0.143072   0.112769   0.128380
    26  C    0.175256   5.445196   0.204479   0.062696  -0.079253   0.033520
    27  C    0.136117   0.204479   5.367930  -0.000932  -0.003193  -0.109776
    28  C   -0.143072   0.062696  -0.000932   5.162616   0.136880   0.130679
    29  C    0.112769  -0.079253  -0.003193   0.136880   5.385353   0.193910
    30  C    0.128380   0.033520  -0.109776   0.130679   0.193910   5.286007
    31  H   -0.058973   0.415440  -0.057344   0.017260  -0.005083   0.016110
    32  H    0.015648  -0.003600   0.020968  -0.063695   0.419165  -0.070857
    33  H   -0.077600   0.014372  -0.004103   0.015312  -0.066905   0.453687
    34  C    0.524848  -0.107682   0.019950  -0.001920   0.018892  -0.099303
    35  H   -0.029192   0.011573  -0.000057  -0.000086   0.001366  -0.021264
    36  C   -0.019994  -0.015826   0.000135   0.000124  -0.001159   0.014508
    37  H   -0.024350   0.006406   0.001579  -0.000210   0.000172  -0.000653
    38  C    0.003316  -0.000081  -0.000056   0.000002   0.000006  -0.000227
    39  H    0.000087   0.000077   0.000008   0.000000  -0.000000   0.000008
    40  H    0.000275  -0.000056  -0.000085   0.000001  -0.000005  -0.000008
    41  O   -0.000251   0.005138  -0.121871   0.656919  -0.073273   0.004465
    42  O    0.001328   0.000029   0.000001  -0.000000  -0.000000  -0.000054
    43  H   -0.000089  -0.000010   0.000000  -0.000000  -0.000000  -0.000005
    44  O    0.002969  -0.078703   0.402991  -0.063917   0.006845  -0.000385
    45  C   -0.000236   0.008153  -0.037125  -0.014194   0.001218   0.000063
    46  H    0.000007  -0.000528  -0.002670   0.003755   0.000286  -0.000018
    47  H    0.000033   0.000233   0.009306  -0.010176  -0.002092   0.000092
    48  H    0.000007   0.000322   0.009799  -0.011819  -0.002471   0.000128
              31         32         33         34         35         36
     1  C   -0.000010  -0.000000  -0.000000   0.000009  -0.000001  -0.000095
     2  C    0.000000   0.000000  -0.000000   0.000048   0.000003   0.000080
     3  C   -0.000026   0.000000   0.000000   0.000266   0.000052   0.003590
     4  C    0.000312  -0.000000   0.000001   0.000647  -0.000516  -0.037952
     5  C    0.001531   0.000000   0.000000   0.000286  -0.000158  -0.013394
     6  C    0.000264   0.000000   0.000000  -0.000185   0.000001   0.001213
     7  H    0.000000  -0.000000   0.000000  -0.000001   0.000000   0.000008
     8  H    0.000038   0.000000   0.000000   0.001923  -0.000035  -0.002051
     9  H   -0.000004  -0.000000  -0.000000  -0.000001   0.000000  -0.000043
    10  C   -0.000000  -0.000000  -0.000000  -0.000000   0.000000   0.000001
    11  H   -0.000000  -0.000000  -0.000000   0.000000  -0.000000   0.000000
    12  C    0.000000   0.000000   0.000000  -0.000000  -0.000000  -0.000000
    13  H   -0.000000  -0.000000  -0.000000   0.000000  -0.000000  -0.000000
    14  C    0.000000  -0.000000   0.000000  -0.000000   0.000000   0.000000
    15  H    0.000000   0.000000   0.000000  -0.000000  -0.000000  -0.000000
    16  H   -0.000000  -0.000000   0.000000   0.000000  -0.000000   0.000000
    17  O   -0.000308  -0.000000  -0.000021  -0.042019  -0.000781   0.242931
    18  O    0.000000  -0.000000  -0.000000   0.000000  -0.000000   0.000000
    19  H    0.000000   0.000000   0.000000  -0.000000   0.000000  -0.000000
    20  O   -0.000002  -0.000000  -0.000000   0.000316   0.000040  -0.000415
    21  C   -0.000000  -0.000000  -0.000000  -0.000000  -0.000001   0.000027
    22  H   -0.000000   0.000000   0.000000   0.000000   0.000001  -0.000004
    23  H    0.000000   0.000000   0.000000  -0.000012  -0.000001   0.000007
    24  H   -0.000000  -0.000000  -0.000000   0.000002   0.000000  -0.000000
    25  C   -0.058973   0.015648  -0.077600   0.524848  -0.029192  -0.019994
    26  C    0.415440  -0.003600   0.014372  -0.107682   0.011573  -0.015826
    27  C   -0.057344   0.020968  -0.004103   0.019950  -0.000057   0.000135
    28  C    0.017260  -0.063695   0.015312  -0.001920  -0.000086   0.000124
    29  C   -0.005083   0.419165  -0.066905   0.018892   0.001366  -0.001159
    30  C    0.016110  -0.070857   0.453687  -0.099303  -0.021264   0.014508
    31  H    0.717953   0.000063  -0.000196  -0.030276  -0.000248   0.006503
    32  H    0.000063   0.696441  -0.015739  -0.000453  -0.000024   0.000010
    33  H   -0.000196  -0.015739   0.682124  -0.017245   0.004393   0.000909
    34  C   -0.030276  -0.000453  -0.017245   5.203994   0.398959   0.248098
    35  H   -0.000248  -0.000024   0.004393   0.398959   0.668664  -0.060121
    36  C    0.006503   0.000010   0.000909   0.248098  -0.060121   4.843409
    37  H   -0.004685  -0.000001  -0.000066  -0.018228   0.009062   0.349320
    38  C   -0.000481  -0.000000   0.000003  -0.059469  -0.010586   0.423812
    39  H    0.000140   0.000000  -0.000002   0.012793   0.000952  -0.024801
    40  H    0.000103  -0.000000   0.000015  -0.008141  -0.001725  -0.005557
    41  O   -0.000128   0.005176  -0.000100   0.000003   0.000000  -0.000000
    42  O   -0.000013   0.000000  -0.000043  -0.003089   0.019236  -0.050637
    43  H    0.000001   0.000000  -0.000001  -0.004595   0.001145  -0.009495
    44  O    0.004117  -0.000105   0.000004  -0.000020   0.000001   0.000005
    45  C   -0.000518  -0.000165   0.000001   0.000006  -0.000000  -0.000000
    46  H   -0.000161  -0.000013   0.000000  -0.000000   0.000000  -0.000000
    47  H    0.000148   0.000167  -0.000002   0.000000  -0.000000   0.000000
    48  H    0.000157   0.000193  -0.000002   0.000001  -0.000000   0.000000
              37         38         39         40         41         42
     1  C   -0.000091  -0.000007   0.000008  -0.000000  -0.000000  -0.000000
     2  C   -0.000135   0.000017  -0.000003  -0.000001   0.000000  -0.000000
     3  C    0.001283  -0.000913  -0.000171   0.000047  -0.000000   0.000025
     4  C   -0.004703  -0.003064  -0.000504   0.000374   0.000000   0.000148
     5  C    0.001106  -0.003191  -0.000502  -0.000059  -0.000000   0.000022
     6  C   -0.000697   0.000249  -0.000252   0.000004   0.000000   0.000001
     7  H   -0.000000  -0.000000   0.000000   0.000000  -0.000000  -0.000000
     8  H    0.004050  -0.005005   0.004132  -0.000074  -0.000000  -0.000099
     9  H    0.000208  -0.000004  -0.000004  -0.000000  -0.000000   0.000000
    10  C    0.000000   0.000000  -0.000000   0.000000   0.000000   0.000000
[...]
    18  O   -0.000000   0.000001   0.000011   0.000002   0.000000   0.000000
    19  H    0.000000  -0.000000  -0.000000   0.000001  -0.000000   0.000000
    20  O   -0.009170  -0.000381   0.000050   0.000040  -0.000643   0.003678
    21  C   -0.000136   0.000015   0.000005  -0.000078  -0.001450  -0.001039
    22  H    0.000144   0.000005  -0.000001   0.000003  -0.000001  -0.000069
    23  H    0.000347   0.000153  -0.000136  -0.000052   0.004047   0.003117
    24  H   -0.000136  -0.000009   0.000002   0.000009  -0.000041   0.000241
    25  C    5.315138   0.106714   0.141844  -0.140617   0.106694   0.136338
    26  C    0.106714   5.421840   0.251599   0.069610  -0.075336   0.032104
    27  C    0.141844   0.251599   5.469724  -0.084121  -0.002730  -0.118371
    28  C   -0.140617   0.069610  -0.084121   5.143612   0.141056   0.134052
    29  C    0.106694  -0.075336  -0.002730   0.141056   5.417255   0.177981
    30  C    0.136338   0.032104  -0.118371   0.134052   0.177981   5.306175
    31  H   -0.054613   0.399707  -0.046187   0.018619  -0.004341   0.014747
    32  H    0.016986  -0.004467   0.022826  -0.061658   0.418711  -0.076467
    33  H   -0.076351   0.015301  -0.004152   0.014987  -0.065979   0.449431
    34  C    0.416055  -0.112927   0.020322  -0.003413   0.019637  -0.095521
    35  H   -0.030114   0.013858  -0.000275   0.000003   0.000773  -0.022902
    36  C   -0.015114  -0.011182   0.000139   0.000158  -0.001040   0.013622
    37  H   -0.026686   0.007091   0.001111  -0.000086   0.000065  -0.000464
    38  C    0.010829  -0.000015  -0.000023  -0.000000   0.000008  -0.000189
    39  H   -0.000362   0.000072   0.000001   0.000000  -0.000000   0.000001
    40  H    0.001112  -0.000207   0.000001  -0.000000  -0.000000   0.000044
    41  O   -0.000439   0.006182  -0.116066   0.701425  -0.082284   0.005571
    42  O    0.001714   0.000012   0.000000   0.000000  -0.000000  -0.000061
    43  H   -0.000478  -0.000004   0.000001  -0.000000  -0.000000   0.000012
    44  O    0.004415  -0.087364   0.388588  -0.062362   0.004414  -0.000240
    45  C   -0.000084   0.005204  -0.047889  -0.003945   0.000667  -0.000034
    46  H   -0.000011   0.000086   0.002729   0.000412   0.000099  -0.000007
    47  H    0.000051  -0.000615  -0.006437   0.003995   0.000242  -0.000023
    48  H   -0.000086   0.001340  -0.000175   0.002703  -0.000418  -0.000050
              31         32         33         34         35         36
     1  C   -0.000551  -0.000069   0.000013   0.000467  -0.000020  -0.000015
     2  C    0.000310   0.000156  -0.000166  -0.004101   0.000377   0.000740
     3  C   -0.000470  -0.000082   0.000051  -0.000123   0.000565  -0.017124
     4  C   -0.004199   0.000018   0.000037  -0.014094  -0.002739  -0.057141
     5  C    0.008276  -0.000005   0.000010  -0.003002  -0.000069  -0.006900
     6  C   -0.000843   0.000010  -0.000004   0.000649   0.000000   0.000660
     7  H    0.000010   0.000062  -0.000037  -0.000095  -0.000002  -0.000013
     8  H    0.001198   0.000000   0.000000   0.000617  -0.000013  -0.001645
     9  H    0.000068   0.000000  -0.000000  -0.000005   0.000000  -0.000011
    10  C   -0.000083  -0.000009   0.000001   0.000015   0.000000  -0.000003
    11  H    0.000001   0.000002   0.000000   0.000001  -0.000000  -0.000000
    12  C   -0.000009  -0.000001   0.000000   0.000000  -0.000000  -0.000000
    13  H    0.000033   0.000000  -0.000000   0.000001  -0.000000  -0.000000
    14  C    0.000000   0.000000   0.000000   0.000000   0.000000   0.000000
    15  H   -0.000000   0.000000   0.000000  -0.000000  -0.000000  -0.000000
    16  H   -0.000000  -0.000000   0.000000   0.000000   0.000000   0.000000
    17  O   -0.000624  -0.000000  -0.000015  -0.059353   0.001005   0.279865
    18  O   -0.000000  -0.000000  -0.000000  -0.000000   0.000000   0.000000
    19  H    0.000000   0.000000  -0.000000   0.000000  -0.000000  -0.000000
    20  O    0.000002  -0.000010  -0.000220   0.014259   0.001381  -0.000389
    21  C    0.000002  -0.000020   0.000089   0.000566   0.000048   0.000047
    22  H   -0.000000  -0.000002   0.000181  -0.000347   0.000172   0.000032
    23  H   -0.000004   0.000332   0.001015  -0.001779  -0.000076   0.000002
    24  H    0.000000  -0.000006  -0.000013   0.000274   0.000013  -0.000007
    25  C   -0.054613   0.016986  -0.076351   0.416055  -0.030114  -0.015114
    26  C    0.399707  -0.004467   0.015301  -0.112927   0.013858  -0.011182
    27  C   -0.046187   0.022826  -0.004152   0.020322  -0.000275   0.000139
    28  C    0.018619  -0.061658   0.014987  -0.003413   0.000003   0.000158
    29  C   -0.004341   0.418711  -0.065979   0.019637   0.000773  -0.001040
    30  C    0.014747  -0.076467   0.449431  -0.095521  -0.022902   0.013622
    31  H    0.704543   0.000056  -0.000214  -0.030366   0.000038   0.008241
    32  H    0.000056   0.699977  -0.015837  -0.000492  -0.000011   0.000008
    33  H   -0.000214  -0.015837   0.684691  -0.016699   0.003841   0.000872
    34  C   -0.030366  -0.000492  -0.016699   5.385250   0.387218   0.253971
    35  H    0.000038  -0.000011   0.003841   0.387218   0.685487  -0.064214
    36  C    0.008241   0.000008   0.000872   0.253971  -0.064214   4.778387
    37  H   -0.000436  -0.000000  -0.000030  -0.019188   0.008301   0.356379
    38  C   -0.000011  -0.000000  -0.000005  -0.040936  -0.017284   0.395046
    39  H    0.000034   0.000000  -0.000002   0.012991   0.002283  -0.026053
    40  H    0.000017  -0.000000   0.000021  -0.009342  -0.004806  -0.005427
    41  O   -0.000133   0.006180  -0.000113   0.000005  -0.000000  -0.000000
    42  O   -0.000000   0.000000  -0.000058  -0.013105   0.034019  -0.041725
    43  H   -0.000001   0.000000   0.000003  -0.003530  -0.000578  -0.006988
    44  O    0.007331  -0.000069   0.000003  -0.000023   0.000001   0.000000
    45  C   -0.000687  -0.000058   0.000001   0.000004  -0.000000   0.000001
    46  H   -0.000349  -0.000003   0.000000   0.000000   0.000000  -0.000000
    47  H    0.000098   0.000005   0.000000  -0.000001   0.000000   0.000000
    48  H    0.000234   0.000032  -0.000000   0.000004  -0.000000  -0.000000
              37         38         39         40         41         42
     1  C    0.000003   0.000002  -0.000000   0.000000  -0.000480  -0.000000
     2  C    0.000121  -0.000048  -0.000003  -0.000001  -0.000425   0.000002
     3  C   -0.001276   0.000050   0.000078   0.000020   0.000038   0.000292
     4  C   -0.002088   0.007719  -0.000047  -0.000024  -0.000003  -0.000963
     5  C    0.004950  -0.000215  -0.000084   0.000011   0.000009  -0.000022
     6  C   -0.000997   0.000030   0.000003  -0.000001  -0.000062   0.000000
     7  H   -0.000002  -0.000000   0.000000   0.000000  -0.000018  -0.000000
     8  H   -0.000380  -0.000217   0.000138   0.000017   0.000000   0.000001
     9  H    0.000032  -0.000001  -0.000000   0.000000  -0.000002  -0.000000
    10  C    0.000000  -0.000000   0.000000  -0.000000   0.001597  -0.000000
    11  H    0.000000  -0.000000  -0.000000   0.000000   0.000073   0.000000
    12  C    0.000000   0.000000   0.000000  -0.000000  -0.000085  -0.000000
    13  H    0.000000  -0.000000  -0.000000  -0.000000  -0.000023   0.000000
    14  C   -0.000000  -0.000000  -0.000000   0.000000  -0.000013   0.000000
    15  H    0.000000   0.000000   0.000000  -0.000000   0.000001  -0.000000
    16  H    0.000000  -0.000000  -0.000000  -0.000000   0.000022   0.000000
    17  O   -0.031126  -0.055606   0.001532   0.004094  -0.000000  -0.007326
    18  O    0.000000  -0.000000  -0.000000   0.000000  -0.000059   0.000000
    19  H   -0.000000   0.000000   0.000000  -0.000000  -0.000005  -0.000000
    20  O   -0.000050  -0.000958   0.000002   0.000003  -0.000000  -0.000146
    21  C    0.000004   0.000017  -0.000001   0.000001   0.000001  -0.000009
    22  H    0.000002   0.000006   0.000000   0.000000  -0.000000   0.000034
    23  H   -0.000003  -0.000002   0.000000  -0.000000  -0.000007  -0.000001
    24  H   -0.000000  -0.000002  -0.000000   0.000000  -0.000000  -0.000000
    25  C   -0.026686   0.010829  -0.000362   0.001112  -0.000439   0.001714
    26  C    0.007091  -0.000015   0.000072  -0.000207   0.006182   0.000012
    27  C    0.001111  -0.000023   0.000001   0.000001  -0.116066   0.000000
    28  C   -0.000086  -0.000000   0.000000  -0.000000   0.701425   0.000000
    29  C    0.000065   0.000008  -0.000000  -0.000000  -0.082284  -0.000000
    30  C   -0.000464  -0.000189   0.000001   0.000044   0.005571  -0.000061
    31  H   -0.000436  -0.000011   0.000034   0.000017  -0.000133  -0.000000
    32  H   -0.000000  -0.000000   0.000000  -0.000000   0.006180   0.000000
    33  H   -0.000030  -0.000005  -0.000002   0.000021  -0.000113  -0.000058
    34  C   -0.019188  -0.040936   0.012991  -0.009342   0.000005  -0.013105
    35  H    0.008301  -0.017284   0.002283  -0.004806  -0.000000   0.034019
    36  C    0.356379   0.395046  -0.026053  -0.005427  -0.000000  -0.041725
    37  H    0.694214  -0.021665  -0.004366  -0.001875   0.000000   0.003654
    38  C   -0.021665   4.458688   0.354821   0.362441   0.000000   0.338857
    39  H   -0.004366   0.354821   0.717855  -0.034194  -0.000000  -0.028662
    40  H   -0.001875   0.362441  -0.034194   0.688321  -0.000000  -0.028683
    41  O    0.000000   0.000000  -0.000000  -0.000000   7.720944   0.000000
    42  O    0.003654   0.338857  -0.028662  -0.028683   0.000000   7.758511
    43  H    0.001432  -0.053084  -0.004274   0.010003   0.000000   0.332363
    44  O   -0.000055  -0.000000   0.000000   0.000000  -0.002270   0.000000
    45  C   -0.000000  -0.000000   0.000000   0.000000   0.004403   0.000000
    46  H    0.000001   0.000000  -0.000000  -0.000000   0.001248  -0.000000
    47  H   -0.000000  -0.000000   0.000000   0.000000   0.011704  -0.000000
    48  H   -0.000000  -0.000000   0.000000  -0.000000  -0.000095  -0.000000
              43         44         45         46         47         48
     1  C   -0.000003  -0.001087   0.000531   0.000020  -0.000738  -0.000027
     2  C    0.000084  -0.000903   0.000012  -0.000006   0.000030  -0.000004
     3  C    0.000346   0.000112  -0.000005   0.000001  -0.000003   0.000001
     4  C   -0.001760   0.000087  -0.000006  -0.000002   0.000002   0.000001
     5  C    0.000147  -0.001929   0.000057   0.000023   0.000001  -0.000012
     6  C   -0.000016   0.007337  -0.000199  -0.000067  -0.000096   0.000049
     7  H    0.000000  -0.000008  -0.000001  -0.000000  -0.000000   0.000000
     8  H   -0.000000  -0.000000  -0.000000   0.000000   0.000000  -0.000000
     9  H    0.000000  -0.000397  -0.000022  -0.000026   0.000010  -0.000003
    10  C    0.000000  -0.000659  -0.001498   0.000040   0.002624  -0.000005
    11  H   -0.000000   0.000015  -0.000007  -0.000000   0.000015   0.000002
    12  C   -0.000000   0.002204   0.002565  -0.000084  -0.004612   0.000078
    13  H   -0.000000   0.003832   0.000302   0.000170  -0.000413   0.000197
    14  C   -0.000000  -0.000173  -0.000250  -0.000000  -0.002421  -0.000003
    15  H    0.000000   0.000000  -0.000208   0.000003   0.000943   0.000001
    16  H   -0.000000   0.000001  -0.000030   0.000003   0.000134   0.000003
    17  O    0.027180  -0.000000   0.000000  -0.000000   0.000000  -0.000000
    18  O   -0.000000   0.000032  -0.011702   0.000225   0.041773   0.000169
    19  H    0.000000  -0.000003   0.000530  -0.000022  -0.002020  -0.000013
    20  O    0.005280  -0.000000   0.000000   0.000000   0.000000  -0.000000
    21  C   -0.000175  -0.000000   0.000000  -0.000000   0.000000  -0.000000
    22  H   -0.000135  -0.000000  -0.000000   0.000000  -0.000000   0.000000
    23  H    0.000044   0.000000  -0.000000   0.000000  -0.000000   0.000000
    24  H    0.000010  -0.000000   0.000000   0.000000   0.000000  -0.000000
    25  C   -0.000478   0.004415  -0.000084  -0.000011   0.000051  -0.000086
    26  C   -0.000004  -0.087364   0.005204   0.000086  -0.000615   0.001340
    27  C    0.000001   0.388588  -0.047889   0.002729  -0.006437  -0.000175
    28  C   -0.000000  -0.062362  -0.003945   0.000412   0.003995   0.002703
    29  C   -0.000000   0.004414   0.000667   0.000099   0.000242  -0.000418
    30  C    0.000012  -0.000240  -0.000034  -0.000007  -0.000023  -0.000050
    31  H   -0.000001   0.007331  -0.000687  -0.000349   0.000098   0.000234
    32  H    0.000000  -0.000069  -0.000058  -0.000003   0.000005   0.000032
    33  H    0.000003   0.000003   0.000001   0.000000   0.000000  -0.000000
    34  C   -0.003530  -0.000023   0.000004   0.000000  -0.000001   0.000004
    35  H   -0.000578   0.000001  -0.000000   0.000000   0.000000  -0.000000
    36  C   -0.006988   0.000000   0.000001  -0.000000   0.000000  -0.000000
    37  H    0.001432  -0.000055  -0.000000   0.000001  -0.000000  -0.000000
    38  C   -0.053084  -0.000000  -0.000000   0.000000  -0.000000  -0.000000
    39  H   -0.004274   0.000000   0.000000  -0.000000   0.000000   0.000000
    40  H    0.010003   0.000000   0.000000  -0.000000   0.000000  -0.000000
    41  O    0.000000  -0.002270   0.004403   0.001248   0.011704  -0.000095
    42  O    0.332363   0.000000   0.000000  -0.000000  -0.000000  -0.000000
    43  H    0.516374   0.000000  -0.000000   0.000000  -0.000000   0.000000
    44  O    0.000000   7.872981   0.285732  -0.027888  -0.024861  -0.025867
    45  C   -0.000000   0.285732   4.448006   0.379197   0.364496   0.383032
    46  H    0.000000  -0.027888   0.379197   0.672482  -0.023902  -0.025686
    47  H   -0.000000  -0.024861   0.364496  -0.023902   0.643086  -0.027755
    48  H    0.000000  -0.025867   0.383032  -0.025686  -0.027755   0.675089
 Mulliken charges:
               1
     1  C    0.126428
     2  C   -0.184051
     3  C    0.252074
     4  C    0.123631
     5  C   -0.042410
     6  C   -0.022910
     7  H   -0.018460
     8  H   -0.013232
     9  H   -0.018407
    10  C   -0.020852
    11  H   -0.007792
    12  C   -0.080410
    13  H    0.010719
    14  C    0.246576
    15  H    0.013734
    16  H   -0.001194
    17  O   -0.369899
    18  O   -0.323730
    19  H    0.184201
    20  O   -0.327157
    21  C    0.172667
    22  H    0.041973
    23  H    0.034042
    24  H    0.034642
    25  C    0.097057
    26  C   -0.030556
    27  C    0.137770
    28  C    0.123829
    29  C   -0.060991
    30  C    0.043920
    31  H   -0.019442
    32  H   -0.006099
    33  H    0.009347
    34  C   -0.083866
    35  H    0.003719
    36  C    0.166820
    37  H    0.033414
    38  C    0.261748
    39  H    0.008236
    40  H    0.018455
    41  O   -0.256821
    42  O   -0.348697
    43  H    0.177749
    44  O   -0.340929
    45  C    0.191884
    46  H    0.021313
    47  H    0.024690
    48  H    0.017265
 Sum of Mulliken charges =  -0.00000
 Mulliken charges with hydrogens summed into heavy atoms:
               1
     1  C    0.126428
     2  C   -0.202511
     3  C    0.252074
     4  C    0.123631
     5  C   -0.055642
     6  C   -0.041316
    10  C   -0.028645
    12  C   -0.069692
    14  C    0.259117
    17  O   -0.369899
    18  O   -0.139529
    20  O   -0.327157
    21  C    0.283324
    25  C    0.097057
    26  C   -0.049998
    27  C    0.137770
    28  C    0.123829
    29  C   -0.067089
    30  C    0.053267
    34  C   -0.080147
    36  C    0.200234
    38  C    0.288439
    41  O   -0.256821
    42  O   -0.170948
    44  O   -0.340929
    45  C    0.255152
 Electronic spatial extent (au):  <R**2>=          25808.6207
 Charge=             -0.0000 electrons
 Dipole moment (field-independent basis, Debye):
    X=             -0.1064    Y=             -0.7611    Z=             -0.9801  Tot=              1.2454
 Quadrupole moment (field-independent basis, Debye-Ang):
   XX=           -141.4472   YY=           -137.1429   ZZ=           -153.2800
   XY=              9.5138   XZ=             -9.1661   YZ=             14.4124
 Traceless Quadrupole moment (field-independent basis, Debye-Ang):
   XX=              2.5095   YY=              6.8138   ZZ=             -9.3233
   XY=              9.5138   XZ=             -9.1661   YZ=             14.4124
 Octapole moment (field-independent basis, Debye-Ang**2):
  XXX=           1357.1404  YYY=           1268.8722  ZZZ=           -697.0957  XYY=            307.9705
  XXY=            476.2942  XXZ=           -162.1788  XZZ=            462.7066  YZZ=            582.6235
  YYZ=           -273.0080  XYZ=             19.3219
 Hexadecapole moment (field-independent basis, Debye-Ang**3):
 XXXX=         -10425.4548 YYYY=         -13440.6037 ZZZZ=          -4436.6073 XXXY=          -5110.1106
 XXXZ=           1735.7237 YYYX=          -3159.6701 YYYZ=           2785.4400 ZZZX=           2027.0002
 ZZZY=           3075.3895 XXYY=          -3976.7237 XXZZ=          -2473.6800 YYZZ=          -3976.1476
 XXYZ=            787.3856 YYXZ=            364.4277 ZZXY=          -1807.4261
 N-N= 2.495906116741D+03 E-N=-7.849186996260D+03  KE= 1.213737859984D+03
 1\1\GINC-R1I0N22\FOpt\RB3LYP\def2SVP\C20H22O6\HMAYES\24-Feb-2020\0\\# 
 b3lyp/Def2SVP nosymm opt scf=(xqc,maxconventionalcycles=400) CPHF=Grid
 =Fine SCRF=(CPCM,Solvent=Water,Read) guess=mix EmpiricalDispersion=GD3
 BJ geom=connectivity\\obabel g_dimer_0.pdb -O g_dimer.pdb --confab --c
 onf10000 --original\\0,1\C,-4.0973995819,-4.9434855949,0.2632978759\C,
 -3.0559420512,-4.1868715703,-0.309838268\C,-3.1104819095,-2.7904206766
 ,-0.339215756\C,-4.2276224753,-2.1366601889,0.225674762\C,-5.296874100
 5,-2.8863053205,0.7158961477\C,-5.2444623671,-4.2779988273,0.727790384
 9\H,-2.1763461047,-4.7081427518,-0.6865936888\H,-6.1568609985,-2.35303
 73277,1.1269570257\H,-6.0818543245,-4.8455277647,1.134612126\C,-3.9101
 064384,-6.3935747361,0.4087260234\H,-3.0998593203,-6.8293419123,-0.187
 9106548\C,-4.5878534753,-7.1947529804,1.2462154033\H,-5.361885891,-6.7
 819943501,1.9016109015\C,-4.3349957844,-8.6604371927,1.3950551307\H,-5
 .2298404175,-9.2221557595,1.0563954266\H,-3.4941179848,-8.9661220349,0
 .7425971287\O,-4.2166004736,-0.7717348654,0.3327233928\O,-4.0671042389
 ,-8.9420732988,2.7635051751\H,-4.0609971936,-9.9022232348,2.8767383661
 \O,-2.1363211132,-1.9881499138,-0.8277895459\C,-0.9303599817,-2.577598
 0251,-1.2800997229\H,-0.2776979199,-1.7514212337,-1.5884082894\H,-0.43
 84534749,-3.1488454881,-0.4753652159\H,-1.1039194482,-3.2433187769,-2.
 1423666515\C,-2.1291234232,-1.990976176,2.5043172697\C,-3.1530506653,-
 2.8392788922,3.0811147909\C,-2.9294312338,-4.1469041794,3.3884723738\C
 ,-1.5883334445,-4.753246313,3.16040142\C,-0.5272175215,-3.8245941401,2
 .7412093757\C,-0.7760944706,-2.5306832483,2.4395371963\H,-4.1581687462
 ,-2.4494692139,3.2338868081\H,0.4695268452,-4.2601074448,2.6405669671\
 H,0.0209086096,-1.875442589,2.0795960757\C,-2.3729743326,-0.7834805751
 ,1.9172134765\H,-1.5320495784,-0.2362411371,1.4853983993\C,-3.72417604
 79,-0.2208683082,1.6030702794\H,-4.4604807407,-0.4513168469,2.39001887
 62\C,-3.684532902,1.2780532025,1.337722541\H,-4.715731283,1.6193688483
 ,1.1250716867\H,-3.3293852919,1.805339093,2.2365857562\O,-1.3689987293
 ,-5.9559295057,3.307054656\O,-2.8037292687,1.5754890395,0.277234762\H,
 -3.0146050296,0.9410242014,-0.4271054184\O,-3.9736717047,-4.8856848375
 ,3.8160342569\C,-3.8029234174,-6.0167539679,4.6739159823\H,-4.76250271
 35,-6.1352521574,5.1978716024\H,-3.583864999,-6.9252790353,4.099699833
 8\H,-3.009432842,-5.8425719914,5.4159035552\\Version=ES64L-G16RevB.01\
 HF=-1225.8352438\RMSD=4.271e-09\RMSF=5.626e-06\Dipole=-0.0418616,-0.29
 94314,-0.3855847\Quadrupole=1.8657521,5.0658926,-6.9316448,7.0732973,-
 6.8147492,10.7152719\PG=C01 [X(C20H22O6)]\\@

 Job cpu time:       0 days 20 hours 46 minutes  3.9 seconds.
 Elapsed time:       0 days  0 hours 36 minutes 30.0 seconds.
 File lengths (MBytes):  RWF=    547 Int=      0 D2E=      0 Chk=     26 Scr=      1
 Normal termination of Gaussian 16 at Mon Feb 24 03:19:58 2020.
