 Entering Gaussian System, Link 0=g16
 Initial command:
 /nopt/nrel/apps/gaussian/g16B/g16/l1.exe "/dev/shm/Gau-11184.inp" -scrdir="/dev/shm/"
 Default is to use a total of  36 processors:
                               36 via shared-memory
                                1 via Linda
 Entering Link 1 = /nopt/nrel/apps/gaussian/g16B/g16/l1.exe PID=     11185.
  
 Copyright (c) 1988-2017, Gaussian, Inc.  All Rights Reserved.
 ...
 ******************************************
 Gaussian 16:  ES64L-G16RevB.01 20-Dec-2017
                23-Feb-2020 
 ******************************************
 %RWF=/dev/shm/,5GB,/scratch/hmayes/g_dimer_100_2487666/,-1
 %NoSave
 %Chk=/dev/shm/g_dimer_100.chk
 %CPU=0-35
 SetSPE:  set environment variable "MP_BIND" = "yes"
 SetSPE:  set environment variable "MP_BLIST" = "0,1,2,3,4,5,6,7,8,9,10,11,12,13,14,15,16,17,18,19,20,21,22,23,24,25,26,27,28,29,30,31,32,33,34,35"
 Will use up to   36 processors via shared memory.
 %Mem=147301275KB
 Default route: CacheSize=180224 MaxDisk=256GB
 ----------------------------------------------------------------------
 # b3lyp/Def2SVP nosymm opt scf=(xqc,maxconventionalcycles=400) CPHF=Gr
 id=Fine SCRF=(CPCM,Solvent=Water,Read) guess=mix EmpiricalDispersion=G
 D3BJ geom=connectivity
 ----------------------------------------------------------------------
 1/4=180224,18=20,19=15,26=3,38=1,40=2,57=2/1,3;
 2/4=180224,9=110,12=2,15=1,17=6,18=5,40=1/2;
 3/4=180224,5=43,7=101,11=2,25=1,30=1,70=2103,71=1,72=1,74=-5,124=41/1,2,3;
 4/4=180224,13=-1/1;
 5/4=180224,5=2,8=3,13=1,38=5,53=1,85=400/2,8;
 6/4=180224,7=2,8=2,9=2,10=2,28=1/1;
 7/4=180224,30=1/1,2,3,16;
 1/4=180224,18=20,19=15,26=3/3(2);
 2/4=180224,9=110,15=1/2;
 99/4=180224/99;
 2/4=180224,9=110,15=1/2;
 3/4=180224,5=43,7=101,11=2,25=1,30=1,70=2105,71=1,72=1,74=-5,124=41/1,2,3;
 4/4=180224,5=5,16=3,69=1/1;
 5/4=180224,5=2,8=3,13=1,38=5,53=1,85=400/2,8;
 7/4=180224,30=1/1,2,3,16;
 1/4=180224,18=20,19=15,26=3/3(-5);
 2/4=180224,9=110,15=1/2;
 6/4=180224,7=2,8=2,9=2,10=2,19=2,28=1/1;
 99/4=180224,9=1/99;
 -------------------------------------------------------------------
 obabel g_dimer_0.pdb -O g_dimer.pdb --confab --conf10000 --original
 -------------------------------------------------------------------
 Symbolic Z-matrix:
 Charge =  0 Multiplicity = 1
 C                    -4.843    -5.407    -0.622 
 C                    -4.775    -4.431    -1.639 
 C                    -4.256    -3.161    -1.39 
 C                    -3.773    -2.842    -0.095 
 C                    -3.841    -3.803     0.909 
 C                    -4.374    -5.07      0.657 
 H                    -5.145    -4.67     -2.634 
 H                    -3.466    -3.544     1.902 
 H                    -4.418    -5.809     1.46 
 C                    -5.388    -6.753    -0.851 
 H                    -6.163    -6.821    -1.619 
 C                    -5.038    -7.888    -0.225 
 H                    -4.27     -7.891     0.556 
 C                    -5.637    -9.229    -0.511 
 H                    -5.401    -9.503    -1.563 
 H                    -5.118    -9.987     0.114 
 O                    -3.302    -1.589     0.204 
 O                    -7.026    -9.221    -0.275 
 H                    -7.369    -10.104   -0.465 
 O                    -4.183    -2.171    -2.317 
 C                    -4.027    -2.515    -3.684 
 H                    -3.931    -1.569    -4.23 
 H                    -3.121    -3.121    -3.842 
 H                    -4.904    -3.066    -4.061 
 C                    -1.377    -0.354     2.836 
 C                    -1.365    -1.48      3.755 
 C                    -0.382    -1.613     4.688 
 C                     0.713    -0.604     4.821 
 C                     0.657     0.529     3.889 
 C                    -0.32      0.644     2.962 
 H                    -2.158    -2.219     3.667 
 H                     1.453     1.271     3.987 
 H                    -0.339     1.496     2.276 
 C                    -2.316    -0.189     1.862 
 H                    -2.233     0.684     1.212 
 C                    -3.454    -1.125     1.574 
 H                    -3.411    -1.995     2.249 
 C                    -4.805    -0.433     1.708 
 H                    -5.608    -1.174     1.529 
 H                    -4.922    -0.063     2.738 
 O                     1.597    -0.724     5.665 
 O                    -4.906     0.673     0.837 
 H                    -4.578     0.38     -0.027 
 O                    -0.268    -2.619     5.571 
 C                     0.823    -2.597     6.474 
 H                     0.717    -3.478     7.118 
 H                     1.782    -2.648     5.934 
 H                     0.814    -1.684     7.093 
 

 GradGradGradGradGradGradGradGradGradGradGradGradGradGradGradGradGradGrad
 Berny optimization.
 Initialization pass.
                           ----------------------------
                           !    Initial Parameters    !
                           ! (Angstroms and Degrees)  !
 --------------------------                            --------------------------
 ! Name  Definition              Value          Derivative Info.                !
 --------------------------------------------------------------------------------
 ! R1    R(1,2)                  1.4112         estimate D2E/DX2                !
 ! R2    R(1,6)                  1.4033         estimate D2E/DX2                !
 ! R3    R(1,10)                 1.4701         estimate D2E/DX2                !
 ! R4    R(2,3)                  1.3944         estimate D2E/DX2                !
 ! R5    R(2,7)                  1.0881         estimate D2E/DX2                !
 ! R6    R(3,4)                  1.4185         estimate D2E/DX2                !
 ! R7    R(3,20)                 1.3582         estimate D2E/DX2                !
 ! R8    R(4,5)                  1.3915         estimate D2E/DX2                !
 ! R9    R(4,17)                 1.3716         estimate D2E/DX2                !
 ! R10   R(5,6)                  1.3975         estimate D2E/DX2                !
 ! R11   R(5,8)                  1.0926         estimate D2E/DX2                !
 ! R12   R(6,9)                  1.0922         estimate D2E/DX2                !
 ! R13   R(10,11)                1.0932         estimate D2E/DX2                !
 ! R14   R(10,12)                1.3426         estimate D2E/DX2                !
 ! R15   R(12,13)                1.0954         estimate D2E/DX2                !
 ! R16   R(12,14)                1.4963         estimate D2E/DX2                !
 ! R17   R(14,15)                1.1124         estimate D2E/DX2                !
 ! R18   R(14,16)                1.1111         estimate D2E/DX2                !
 ! R19   R(14,18)                1.4089         estimate D2E/DX2                !
 ! R20   R(17,36)                1.4544         estimate D2E/DX2                !
 ! R21   R(18,19)                0.9661         estimate D2E/DX2                !
 ! R22   R(20,21)                1.4182         estimate D2E/DX2                !
 ! R23   R(21,22)                1.0965         estimate D2E/DX2                !
 ! R24   R(21,23)                1.1014         estimate D2E/DX2                !
 ! R25   R(21,24)                1.1022         estimate D2E/DX2                !
 ! R26   R(25,26)                1.4535         estimate D2E/DX2                !
 ! R27   R(25,30)                1.4592         estimate D2E/DX2                !
 ! R28   R(25,34)                1.3629         estimate D2E/DX2                !
 ! R29   R(26,27)                1.3618         estimate D2E/DX2                !
 ! R30   R(26,31)                1.0875         estimate D2E/DX2                !
 ! R31   R(27,28)                1.4949         estimate D2E/DX2                !
 ! R32   R(27,44)                1.3434         estimate D2E/DX2                !
 ! R33   R(28,29)                1.4681         estimate D2E/DX2                !
 ! R34   R(28,41)                1.2281         estimate D2E/DX2                !
 ! R35   R(29,30)                1.3517         estimate D2E/DX2                !
 ! R36   R(29,32)                1.0926         estimate D2E/DX2                !
 ! R37   R(30,33)                1.094          estimate D2E/DX2                !
 ! R38   R(34,35)                1.0916         estimate D2E/DX2                !
 ! R39   R(34,36)                1.5014         estimate D2E/DX2                !
 ! R40   R(36,37)                1.102          estimate D2E/DX2                !
 ! R41   R(36,38)                1.5238         estimate D2E/DX2                !
 ! R42   R(38,39)                1.1072         estimate D2E/DX2                !
 ! R43   R(38,40)                1.1007         estimate D2E/DX2                !
 ! R44   R(38,42)                1.4114         estimate D2E/DX2                !
 ! R45   R(42,43)                0.9695         estimate D2E/DX2                !
 ! R46   R(44,45)                1.4164         estimate D2E/DX2                !
 ! R47   R(45,46)                1.0964         estimate D2E/DX2                !
 ! R48   R(45,47)                1.1018         estimate D2E/DX2                !
 ! R49   R(45,48)                1.1031         estimate D2E/DX2                !
 ! A1    A(2,1,6)              118.3347         estimate D2E/DX2                !
 ! A2    A(2,1,10)             122.6042         estimate D2E/DX2                !
 ! A3    A(6,1,10)             119.0607         estimate D2E/DX2                !
 ! A4    A(1,2,3)              121.2763         estimate D2E/DX2                !
 ! A5    A(1,2,7)              119.3858         estimate D2E/DX2                !
 ! A6    A(3,2,7)              119.3343         estimate D2E/DX2                !
 ! A7    A(2,3,4)              119.6435         estimate D2E/DX2                !
 ! A8    A(2,3,20)             124.1948         estimate D2E/DX2                !
 ! A9    A(4,3,20)             116.1599         estimate D2E/DX2                !
 ! A10   A(3,4,5)              119.1289         estimate D2E/DX2                !
 ! A11   A(3,4,17)             121.4258         estimate D2E/DX2                !
 ! A12   A(5,4,17)             119.368          estimate D2E/DX2                !
 ! A13   A(4,5,6)              120.977          estimate D2E/DX2                !
 ! A14   A(4,5,8)              118.3779         estimate D2E/DX2                !
 ! A15   A(6,5,8)              120.6452         estimate D2E/DX2                !
 ! A16   A(1,6,5)              120.6332         estimate D2E/DX2                !
 ! A17   A(1,6,9)              119.6124         estimate D2E/DX2                !
 ! A18   A(5,6,9)              119.7519         estimate D2E/DX2                !
 ! A19   A(1,10,11)            115.4171         estimate D2E/DX2                !
 ! A20   A(1,10,12)            127.2098         estimate D2E/DX2                !
 ! A21   A(11,10,12)           117.3731         estimate D2E/DX2                !
 ! A22   A(10,12,13)           121.1675         estimate D2E/DX2                !
 ! A23   A(10,12,14)           124.3437         estimate D2E/DX2                !
 ! A24   A(13,12,14)           114.4888         estimate D2E/DX2                !
 ! A25   A(12,14,15)           108.456          estimate D2E/DX2                !
 ! A26   A(12,14,16)           108.4752         estimate D2E/DX2                !
 ! A27   A(12,14,18)           110.9502         estimate D2E/DX2                !
 ! A28   A(15,14,16)           105.3564         estimate D2E/DX2                !
 ! A29   A(15,14,18)           111.6511         estimate D2E/DX2                !
 ! A30   A(16,14,18)           111.7248         estimate D2E/DX2                !
 ! A31   A(4,17,36)            117.4454         estimate D2E/DX2                !
 ! A32   A(14,18,19)           108.1718         estimate D2E/DX2                !
 ! A33   A(3,20,21)            119.1418         estimate D2E/DX2                !
 ! A34   A(20,21,22)           106.2803         estimate D2E/DX2                !
 ! A35   A(20,21,23)           111.2365         estimate D2E/DX2                !
 ! A36   A(20,21,24)           111.3104         estimate D2E/DX2                !
 ! A37   A(22,21,23)           109.3449         estimate D2E/DX2                !
 ! A38   A(22,21,24)           109.3079         estimate D2E/DX2                !
 ! A39   A(23,21,24)           109.2931         estimate D2E/DX2                !
 ! A40   A(26,25,30)           117.9877         estimate D2E/DX2                !
 ! A41   A(26,25,34)           123.4575         estimate D2E/DX2                !
 ! A42   A(30,25,34)           118.5534         estimate D2E/DX2                !
 ! A43   A(25,26,27)           120.985          estimate D2E/DX2                !
 ! A44   A(25,26,31)           117.9851         estimate D2E/DX2                !
 ! A45   A(27,26,31)           121.0259         estimate D2E/DX2                !
 ! A46   A(26,27,28)           121.5856         estimate D2E/DX2                !
 ! A47   A(26,27,44)           125.7831         estimate D2E/DX2                !
 ! A48   A(28,27,44)           112.6313         estimate D2E/DX2                !
 ! A49   A(27,28,29)           115.8781         estimate D2E/DX2                !
 ! A50   A(27,28,41)           121.4964         estimate D2E/DX2                !
 ! A51   A(29,28,41)           122.6251         estimate D2E/DX2                !
 ! A52   A(28,29,30)           121.91           estimate D2E/DX2                !
 ! A53   A(28,29,32)           116.0629         estimate D2E/DX2                !
 ! A54   A(30,29,32)           122.0268         estimate D2E/DX2                !
 ! A55   A(25,30,29)           121.6425         estimate D2E/DX2                !
 ! A56   A(25,30,33)           117.7704         estimate D2E/DX2                !
 ! A57   A(29,30,33)           120.5869         estimate D2E/DX2                !
 ! A58   A(25,34,35)           118.0329         estimate D2E/DX2                !
 ! A59   A(25,34,36)           125.7196         estimate D2E/DX2                !
 ! A60   A(35,34,36)           116.2322         estimate D2E/DX2                !
 ! A61   A(17,36,34)           107.4799         estimate D2E/DX2                !
 ! A62   A(17,36,37)           108.7255         estimate D2E/DX2                !
 ! A63   A(17,36,38)           108.6853         estimate D2E/DX2                !
 ! A64   A(34,36,37)           110.1888         estimate D2E/DX2                !
 ! A65   A(34,36,38)           111.841          estimate D2E/DX2                !
 ! A66   A(37,36,38)           109.8314         estimate D2E/DX2                !
 ! A67   A(36,38,39)           108.9568         estimate D2E/DX2                !
 ! A68   A(36,38,40)           109.2196         estimate D2E/DX2                !
 ! A69   A(36,38,42)           111.4096         estimate D2E/DX2                !
 ! A70   A(39,38,40)           107.4075         estimate D2E/DX2                !
 ! A71   A(39,38,42)           111.8862         estimate D2E/DX2                !
 ! A72   A(40,38,42)           107.8462         estimate D2E/DX2                !
 ! A73   A(38,42,43)           106.7938         estimate D2E/DX2                !
 ! A74   A(27,44,45)           118.2147         estimate D2E/DX2                !
 ! A75   A(44,45,46)           106.7094         estimate D2E/DX2                !
 ! A76   A(44,45,47)           110.9325         estimate D2E/DX2                !
 ! A77   A(44,45,48)           111.366          estimate D2E/DX2                !
 ! A78   A(46,45,47)           109.5627         estimate D2E/DX2                !
 ! A79   A(46,45,48)           109.5523         estimate D2E/DX2                !
 ! A80   A(47,45,48)           108.69           estimate D2E/DX2                !
 ! D1    D(6,1,2,3)              0.0349         estimate D2E/DX2                !
 ! D2    D(6,1,2,7)           -179.2634         estimate D2E/DX2                !
 ! D3    D(10,1,2,3)           179.8101         estimate D2E/DX2                !
 ! D4    D(10,1,2,7)             0.5118         estimate D2E/DX2                !
 ! D5    D(2,1,6,5)             -0.654          estimate D2E/DX2                !
 ! D6    D(2,1,6,9)            179.9163         estimate D2E/DX2                !
 ! D7    D(10,1,6,5)           179.5625         estimate D2E/DX2                !
 ! D8    D(10,1,6,9)             0.1329         estimate D2E/DX2                !
 ! D9    D(2,1,10,11)          -29.7825         estimate D2E/DX2                !
 ! D10   D(2,1,10,12)          150.2111         estimate D2E/DX2                !
 ! D11   D(6,1,10,11)          149.9912         estimate D2E/DX2                !
 ! D12   D(6,1,10,12)          -30.0152         estimate D2E/DX2                !
 ! D13   D(1,2,3,4)              0.644          estimate D2E/DX2                !
 ! D14   D(1,2,3,20)          -178.8545         estimate D2E/DX2                !
 ! D15   D(7,2,3,4)            179.9427         estimate D2E/DX2                !
 ! D16   D(7,2,3,20)             0.4441         estimate D2E/DX2                !
 ! D17   D(2,3,4,5)             -0.7064         estimate D2E/DX2                !
 ! D18   D(2,3,4,17)          -177.4891         estimate D2E/DX2                !
 ! D19   D(20,3,4,5)           178.8315         estimate D2E/DX2                !
 ! D20   D(20,3,4,17)            2.0488         estimate D2E/DX2                !
 ! D21   D(2,3,20,21)          -29.9768         estimate D2E/DX2                !
 ! D22   D(4,3,20,21)          150.5088         estimate D2E/DX2                !
 ! D23   D(3,4,5,6)              0.096          estimate D2E/DX2                !
 ! D24   D(3,4,5,8)           -179.9658         estimate D2E/DX2                !
 ! D25   D(17,4,5,6)           176.9459         estimate D2E/DX2                !
 ! D26   D(17,4,5,8)            -3.1159         estimate D2E/DX2                !
 ! D27   D(3,4,17,36)          149.9994         estimate D2E/DX2                !
 ! D28   D(5,4,17,36)          -26.7758         estimate D2E/DX2                !
 ! D29   D(4,5,6,1)              0.5938         estimate D2E/DX2                !
 ! D30   D(4,5,6,9)           -179.9774         estimate D2E/DX2                !
 ! D31   D(8,5,6,1)           -179.343          estimate D2E/DX2                !
 ! D32   D(8,5,6,9)              0.0858         estimate D2E/DX2                !
 ! D33   D(1,10,12,13)           0.1371         estimate D2E/DX2                !
 ! D34   D(1,10,12,14)        -179.9625         estimate D2E/DX2                !
 ! D35   D(11,10,12,13)       -179.8695         estimate D2E/DX2                !
 ! D36   D(11,10,12,14)          0.031          estimate D2E/DX2                !
 ! D37   D(10,12,14,15)         62.9641         estimate D2E/DX2                !
 ! D38   D(10,12,14,16)        176.9092         estimate D2E/DX2                !
 ! D39   D(10,12,14,18)        -60.0108         estimate D2E/DX2                !
 ! D40   D(13,12,14,15)       -117.1295         estimate D2E/DX2                !
 ! D41   D(13,12,14,16)         -3.1844         estimate D2E/DX2                !
 ! D42   D(13,12,14,18)        119.8956         estimate D2E/DX2                !
 ! D43   D(12,14,18,19)       -179.5872         estimate D2E/DX2                !
 ! D44   D(15,14,18,19)         59.3015         estimate D2E/DX2                !
 ! D45   D(16,14,18,19)        -58.4008         estimate D2E/DX2                !
 ! D46   D(4,17,36,34)         150.0178         estimate D2E/DX2                !
 ! D47   D(4,17,36,37)          30.7564         estimate D2E/DX2                !
 ! D48   D(4,17,36,38)         -88.7675         estimate D2E/DX2                !
 ! D49   D(3,20,21,22)        -176.6039         estimate D2E/DX2                !
 ! D50   D(3,20,21,23)         -57.675          estimate D2E/DX2                !
 ! D51   D(3,20,21,24)          64.4712         estimate D2E/DX2                !
 ! D52   D(30,25,26,27)         -1.2688         estimate D2E/DX2                !
 ! D53   D(30,25,26,31)        179.4491         estimate D2E/DX2                !
 ! D54   D(34,25,26,27)        178.289          estimate D2E/DX2                !
 ! D55   D(34,25,26,31)         -0.9931         estimate D2E/DX2                !
 ! D56   D(26,25,30,29)          0.8459         estimate D2E/DX2                !
 ! D57   D(26,25,30,33)       -179.3119         estimate D2E/DX2                !
 ! D58   D(34,25,30,29)       -178.7341         estimate D2E/DX2                !
 ! D59   D(34,25,30,33)          1.1081         estimate D2E/DX2                !
 ! D60   D(26,25,34,35)       -179.2348         estimate D2E/DX2                !
 ! D61   D(26,25,34,36)         -0.7167         estimate D2E/DX2                !
 ! D62   D(30,25,34,35)          0.3206         estimate D2E/DX2                !
 ! D63   D(30,25,34,36)        178.8388         estimate D2E/DX2                !
 ! D64   D(25,26,27,28)          0.8137         estimate D2E/DX2                !
 ! D65   D(25,26,27,44)       -179.1505         estimate D2E/DX2                !
 ! D66   D(31,26,27,28)       -179.9261         estimate D2E/DX2                !
 ! D67   D(31,26,27,44)          0.1097         estimate D2E/DX2                !
 ! D68   D(26,27,28,29)          0.0741         estimate D2E/DX2                !
 ! D69   D(26,27,28,41)        179.8329         estimate D2E/DX2                !
 ! D70   D(44,27,28,29)       -179.9574         estimate D2E/DX2                !
 ! D71   D(44,27,28,41)         -0.1985         estimate D2E/DX2                !
 ! D72   D(26,27,44,45)       -179.9952         estimate D2E/DX2                !
 ! D73   D(28,27,44,45)          0.0378         estimate D2E/DX2                !
 ! D74   D(27,28,29,30)         -0.5047         estimate D2E/DX2                !
 ! D75   D(27,28,29,32)        179.6944         estimate D2E/DX2                !
 ! D76   D(41,28,29,30)        179.7394         estimate D2E/DX2                !
 ! D77   D(41,28,29,32)         -0.0615         estimate D2E/DX2                !
 ! D78   D(28,29,30,25)          0.0348         estimate D2E/DX2                !
 ! D79   D(28,29,30,33)       -179.8031         estimate D2E/DX2                !
 ! D80   D(32,29,30,25)        179.8238         estimate D2E/DX2                !
 ! D81   D(32,29,30,33)         -0.0141         estimate D2E/DX2                !
 ! D82   D(25,34,36,17)       -119.9976         estimate D2E/DX2                !
 ! D83   D(25,34,36,37)         -1.6769         estimate D2E/DX2                !
 ! D84   D(25,34,36,38)        120.7885         estimate D2E/DX2                !
 ! D85   D(35,34,36,17)         58.5443         estimate D2E/DX2                !
 ! D86   D(35,34,36,37)        176.865          estimate D2E/DX2                !
 ! D87   D(35,34,36,38)        -60.6696         estimate D2E/DX2                !
 ! D88   D(17,36,38,39)         63.9054         estimate D2E/DX2                !
 ! D89   D(17,36,38,40)       -179.0465         estimate D2E/DX2                !
 ! D90   D(17,36,38,42)        -60.0144         estimate D2E/DX2                !
 ! D91   D(34,36,38,39)       -177.595          estimate D2E/DX2                !
 ! D92   D(34,36,38,40)        -60.5469         estimate D2E/DX2                !
 ! D93   D(34,36,38,42)         58.4852         estimate D2E/DX2                !
 ! D94   D(37,36,38,39)        -54.9257         estimate D2E/DX2                !
 ! D95   D(37,36,38,40)         62.1224         estimate D2E/DX2                !
 ! D96   D(37,36,38,42)       -178.8456         estimate D2E/DX2                !
 ! D97   D(36,38,42,43)         45.8309         estimate D2E/DX2                !
 ! D98   D(39,38,42,43)        -76.4144         estimate D2E/DX2                !
 ! D99   D(40,38,42,43)        165.6788         estimate D2E/DX2                !
 ! D100  D(27,44,45,46)        178.413          estimate D2E/DX2                !
 ! D101  D(27,44,45,47)        -62.3035         estimate D2E/DX2                !
 ! D102  D(27,44,45,48)         58.8982         estimate D2E/DX2                !
 --------------------------------------------------------------------------------
 Trust Radius=3.00D-01 FncErr=1.00D-07 GrdErr=1.00D-06 EigMax=2.50D+02 EigMin=1.00D-04
 Number of steps in this run=    241 maximum allowed number of steps=    288.
 GradGradGradGradGradGradGradGradGradGradGradGradGradGradGradGradGradGrad

                          Input orientation:                          
 ---------------------------------------------------------------------
 Center     Atomic      Atomic             Coordinates (Angstroms)
 Number     Number       Type             X           Y           Z
 ---------------------------------------------------------------------
      1          6           0       -4.843000   -5.407000   -0.622000
      2          6           0       -4.775000   -4.431000   -1.639000
      3          6           0       -4.256000   -3.161000   -1.390000
      4          6           0       -3.773000   -2.842000   -0.095000
      5          6           0       -3.841000   -3.803000    0.909000
      6          6           0       -4.374000   -5.070000    0.657000
      7          1           0       -5.145000   -4.670000   -2.634000
      8          1           0       -3.466000   -3.544000    1.902000
      9          1           0       -4.418000   -5.809000    1.460000
     10          6           0       -5.388000   -6.753000   -0.851000
     11          1           0       -6.163000   -6.821000   -1.619000
     12          6           0       -5.038000   -7.888000   -0.225000
     13          1           0       -4.270000   -7.891000    0.556000
     14          6           0       -5.637000   -9.229000   -0.511000
     15          1           0       -5.401000   -9.503000   -1.563000
     16          1           0       -5.118000   -9.987000    0.114000
     17          8           0       -3.302000   -1.589000    0.204000
     18          8           0       -7.026000   -9.221000   -0.275000
     19          1           0       -7.369000  -10.104000   -0.465000
     20          8           0       -4.183000   -2.171000   -2.317000
     21          6           0       -4.027000   -2.515000   -3.684000
     22          1           0       -3.931000   -1.569000   -4.230000
     23          1           0       -3.121000   -3.121000   -3.842000
     24          1           0       -4.904000   -3.066000   -4.061000
     25          6           0       -1.377000   -0.354000    2.836000
     26          6           0       -1.365000   -1.480000    3.755000
     27          6           0       -0.382000   -1.613000    4.688000
     28          6           0        0.713000   -0.604000    4.821000
     29          6           0        0.657000    0.529000    3.889000
     30          6           0       -0.320000    0.644000    2.962000
     31          1           0       -2.158000   -2.219000    3.667000
     32          1           0        1.453000    1.271000    3.987000
     33          1           0       -0.339000    1.496000    2.276000
     34          6           0       -2.316000   -0.189000    1.862000
     35          1           0       -2.233000    0.684000    1.212000
     36          6           0       -3.454000   -1.125000    1.574000
     37          1           0       -3.411000   -1.995000    2.249000
     38          6           0       -4.805000   -0.433000    1.708000
     39          1           0       -5.608000   -1.174000    1.529000
     40          1           0       -4.922000   -0.063000    2.738000
     41          8           0        1.597000   -0.724000    5.665000
     42          8           0       -4.906000    0.673000    0.837000
     43          1           0       -4.578000    0.380000   -0.027000
     44          8           0       -0.268000   -2.619000    5.571000
     45          6           0        0.823000   -2.597000    6.474000
     46          1           0        0.717000   -3.478000    7.118000
     47          1           0        1.782000   -2.648000    5.934000
     48          1           0        0.814000   -1.684000    7.093000
 ---------------------------------------------------------------------
                    Distance matrix (angstroms):
                    1          2          3          4          5
     1  C    0.000000
     2  C    1.411201   0.000000
     3  C    2.445181   1.394368   0.000000
     4  C    2.828755   2.431638   1.418476   0.000000
     5  C    2.433266   2.785506   2.422765   1.391460   0.000000
     6  C    1.403343   2.416762   2.801502   2.427074   1.397456
     7  H    2.163912   1.088139   2.148241   3.416210   3.873623
     8  H    3.426000   3.878006   3.407059   2.138939   1.092591
     9  H    2.162626   3.410298   3.893668   3.411325   2.158834
    10  C    1.470096   2.527528   3.804525   4.298335   3.767401
    11  H    2.176190   2.763882   4.133363   4.885398   4.570645
    12  C    2.520118   3.744251   4.930850   5.203772   4.405223
    13  H    2.808250   4.128517   5.114686   5.114999   4.125578
    14  C    3.905181   5.003622   6.284936   6.666432   5.889269
    15  H    4.239583   5.111050   6.446853   7.012441   6.405809
    16  H    4.646904   5.836077   7.042680   7.273495   6.364323
    17  O    4.199295   3.693689   2.433544   1.371587   2.385234
    18  O    4.408230   5.465491   6.755718   7.162824   6.395374
    19  H    5.335460   6.347444   7.664962   8.112013   7.351004
    20  O    3.712185   2.432642   1.358219   2.357037   3.631455
    21  C    4.290147   2.900446   2.394200   3.612806   4.773802
    22  H    5.345994   3.951792   3.271955   4.329402   5.604300
    23  H    4.308071   3.050414   2.702245   3.813523   4.853403
    24  H    4.160616   2.783155   2.750122   4.130193   5.135566
    25  C    7.035889   6.942187   5.833264   4.530091   4.656203
    26  C    6.831979   7.030771   6.136340   4.740887   4.430194
    27  C    7.905129   8.201860   7.371992   5.990527   5.571501
    28  C    9.141345   9.300305   8.354982   7.021388   6.802666
    29  C    9.264730   9.201468   8.100710   6.845495   6.919438
    30  C    8.361650   8.171404   6.993570   5.781060   6.032252
    31  H    5.980643   6.316270   5.555377   4.141135   3.598348
    32  H   10.270257  10.146559   9.008187   7.803241   7.952735
    33  H    8.737038   8.374643   7.104231   6.019322   6.497083
    34  C    6.307417   6.024803   4.813719   3.604318   4.036686
    35  H    6.875750   6.383823   5.064283   4.063561   4.776049
    36  C    5.008718   4.795628   3.684263   2.415660   2.786338
    37  H    4.683483   4.786558   3.913554   2.518489   2.291149
    38  C    5.492815   5.214145   4.164251   3.181055   3.595080
    39  H    4.809399   4.619325   3.781089   2.964258   3.227744
    40  H    6.313016   6.185399   5.203993   4.131456   4.301326
    41  O   10.145465  10.377507   9.485231   8.154779   7.853128
    42  O    6.252923   5.674377   4.481248   3.808876   4.601520
    43  H    5.823540   5.077704   3.807904   3.321736   4.349339
    44  O    8.188823   8.693704   8.040736   6.666207   5.991864
    45  C    9.505413  10.026062   9.378530   8.020910   7.360473
    46  H    9.723283  10.380526   9.859882   8.520092   7.709259
    47  H    9.720280  10.174658   9.505871   8.200275   7.629075
    48  H   10.265652  10.725239   9.992383   8.605166   8.025026
                    6          7          8          9         10
     6  C    0.000000
     7  H    3.403692   0.000000
     8  H    2.168678   4.966106   0.000000
     9  H    1.092184   4.311228   2.496376   0.000000
    10  C    2.476843   2.752640   4.644435   2.678200   0.000000
    11  H    3.383297   2.587151   5.514524   3.680952   1.093194
    12  C    3.026540   4.021225   5.085828   2.746974   1.342610
    13  H    2.824723   4.616987   4.621097   2.274609   2.127115
    14  C    4.500741   5.053086   6.546376   4.131247   2.511608
    15  H    5.063064   4.956860   7.159618   4.873444   2.840706
    16  H    5.002527   5.985209   6.887547   4.444930   3.385688
    17  O    3.670389   4.576402   2.594634   4.542179   5.668449
    18  O    5.013235   5.460279   7.045655   4.631807   3.017589
    19  H    5.964064   6.259320   7.991852   5.555272   3.911848
    20  O    4.157566   2.696467   4.494350   5.249381   4.959426
    21  C    5.049031   2.645080   5.707623   6.120789   5.276254
    22  H    6.027937   3.692860   6.458968   7.112726   6.357228
    23  H    5.060594   2.820504   5.769878   6.084304   5.222719
    24  H    5.153294   2.160376   6.152536   6.183986   4.912466
    25  C    5.997558   7.921274   3.925860   6.395161   8.404123
    26  C    5.616029   8.079840   3.479642   5.773047   8.074918
    27  C    6.643484   9.254356   4.582752   6.657004   9.064224
    28  C    7.947429  10.316276   5.884573   8.044595  10.353936
    29  C    8.191800  10.160823   6.126714   8.475017  10.584760
    30  C    7.375482   9.101343   5.344180   7.790431   9.743675
    31  H    4.700953   7.391358   2.565485   4.781898   7.169545
    32  H    9.233153  11.075501   7.192219   9.538384  11.601297
    33  H    7.874944   9.231755   5.943030   8.406374  10.164474
    34  C    5.432453   6.949577   3.546847   6.013685   7.738453
    35  H    6.164448   7.206717   4.457844   6.855274   8.337803
    36  C    4.153350   5.756194   2.441166   4.783529   6.426147
    37  H    3.594087   5.831472   1.588343   4.022831   6.013077
    38  C    4.774110   6.076243   3.392474   5.395614   6.843301
    39  H    4.178751   5.455910   3.216239   4.785821   6.069435
    40  H    5.449854   7.080435   3.864737   5.907945   7.606193
    41  O    8.923039  11.397319   6.909887   8.928576  11.295898
    42  O    5.770396   6.375940   4.581584   6.530130   7.630671
    43  H    5.496542   5.711430   4.511692   6.367141   7.225978
    44  O    6.856678   9.762876   4.954230   6.655743   9.194914
    45  C    8.183033  11.084675   6.339993   7.932542  10.464439
    46  H    8.378381  11.440516   6.686442   7.988413  10.559432
    47  H    8.462219  11.201894   6.678424   8.273367  10.690938
    48  H    8.933221  11.791540   6.980292   8.724686  11.281254
                   11         12         13         14         15
    11  H    0.000000
    12  C    2.085030   0.000000
    13  H    3.075545   1.095351   0.000000
    14  C    2.702370   1.496288   2.190302   0.000000
    15  H    2.788710   2.128436   2.892726   1.112419   0.000000
    16  H    3.757508   2.127703   2.303841   1.111103   1.768240
    17  O    6.235581   6.547911   6.385619   8.020789   8.376126
    18  O    2.882899   2.394062   3.170962   1.408929   2.092628
    19  H    3.682966   3.225185   3.942539   1.941022   2.332344
    20  O    5.101971   6.147486   6.401570   7.429072   7.470627
    21  C    5.231478   6.469616   6.851133   7.598541   7.430926
    22  H    6.275560   7.562753   7.936523   8.684296   8.498361
    23  H    5.280672   6.283460   6.589044   7.398208   7.149977
    24  H    4.652792   6.163160   6.708150   7.149990   6.922570
    25  C    9.196462   8.918172   8.388934  10.397867  10.920072
    26  C    8.968108   8.390101   7.731335   9.823225  10.437382
    27  C   10.016061   9.229926   8.461870  10.613580  11.247998
    28  C   11.287341  10.563748   9.804126  11.964253  12.543072
    29  C   11.439972  10.963754  10.309249  12.417447  12.925351
    30  C   10.528648  10.257267   9.707603  11.739180  12.216947
    31  H    8.072188   7.455174   6.805178   8.871258   9.535544
    32  H   12.446331  11.990050  11.334317  13.444334  13.923322
    33  H   10.874856  10.788654  10.321188  12.282581  12.701959
    34  C    8.420225   8.428491   8.052612   9.918758  10.392230
    35  H    8.932216   9.133027   8.838005  10.621841  11.023240
    36  C    7.069536   7.175209   6.890641   8.647978   9.155461
    37  H    6.769432   6.595093   6.194106   8.056267   8.652255
    38  C    7.329368   7.705050   7.565388   9.109654   9.660205
    39  H    6.488955   6.962701   6.917735   8.309360   8.886819
    40  H    8.135975   8.368002   8.152534   9.751040  10.384683
    41  O   12.265711  11.403430  10.577781  12.759653  13.352409
    42  O    7.985739   8.627629   8.592180  10.020033  10.466900
    43  H    7.543281   8.283153   8.297240   9.679288  10.035453
    44  O   10.203133   9.171089   8.304229  10.464654  11.163830
    45  C   11.495348  10.354835   9.433335  11.597640  12.289198
    46  H   11.612287  10.319291   9.349042  11.473838  12.210254
    47  H   11.729653  10.578435   9.645654  11.827474  12.441524
    48  H   12.286832  11.237822  10.349216  12.504529  13.217009
                   16         17         18         19         20
    16  H    0.000000
    17  O    8.592576   0.000000
    18  O    2.092496   8.505589   0.000000
    19  H    2.327215   9.460089   0.966146   0.000000
    20  O    8.238558   2.733190   7.871144   8.747170   0.000000
    21  C    8.452566   4.061976   8.098501   8.895159   1.418225
    22  H    9.546833   4.478437   9.152822   9.941896   2.021256
    23  H    8.171897   4.330116   8.073569   8.843750   2.087096
    24  H    8.085584   4.789380   7.531315   8.278942   2.088636
    25  C   10.686396   3.486872  10.964179  11.910632   6.142356
    26  C    9.985536   4.046412  10.402447  11.323859   6.729620
    27  C   10.652467   5.351003  11.254145  12.143667   7.989305
    28  C   12.008210   6.197349  12.653617  13.546605   8.796440
    29  C   12.577261   5.808514  13.093124  14.015516   8.320459
    30  C   12.006251   4.635211  12.359888  13.302339   7.121435
    31  H    9.040312   3.701082   9.394934  10.315094   6.317530
    32  H   13.598556   6.715707  14.147090  15.067801   9.129747
    33  H   12.624277   4.752871  12.887112  13.838135   7.022740
    34  C   10.339609   2.383518  10.408069  11.369035   4.987790
    35  H   11.108513   2.706539  11.103740  12.065313   4.940381
    36  C    9.134306   1.454407   9.040089  10.005358   4.094562
    37  H    8.446546   2.087760   8.464861   9.422709   4.634147
    38  C    9.691116   2.420199   9.278689  10.238372   4.428109
    39  H    8.939312   2.691744   8.367757   9.317835   4.220942
    40  H   10.266916   3.372571   9.867824  10.819829   5.526555
    41  O   12.716446   7.387215  13.484759  14.350974   9.960649
    42  O   10.686593   2.844319  10.179498  11.131276   4.307990
    43  H   10.382012   2.357647   9.911277  10.857982   3.450757
    44  O   10.372501   6.250660  11.110026  11.953356   8.817509
    45  C   11.417407   7.572621  12.289556  13.100139  10.125374
    46  H   11.201354   8.217304  12.148767  12.914688  10.711558
    47  H   11.633715   7.733139  12.622871  13.426836  10.192534
    48  H   12.362640   8.025509  13.136186  13.963569  10.665612
                   21         22         23         24         25
    21  C    0.000000
    22  H    1.096471   0.000000
    23  H    1.101379   1.793139   0.000000
    24  H    1.102206   1.793404   1.797241   0.000000
    25  C    7.362257   7.611012   7.435961   8.207514   0.000000
    26  C    7.968450   8.387640   7.968113   8.725238   1.453472
    27  C    9.175512   9.598336   9.084992   9.955134   2.450512
    28  C    9.922426  10.218540   9.802164  10.793612   2.893238
    29  C    9.410426   9.558740   9.346879  10.346557   2.454721
    30  C    8.239566   8.346350   8.265304   9.170588   1.459154
    31  H    7.590651   8.119645   7.624044   8.244993   2.186035
    32  H   10.159155  10.226052  10.074938  11.135139   3.460394
    33  H    8.075337   8.038950   8.153903   9.044813   2.193979
    34  C    6.252672   6.451751   6.463766   7.075083   1.362946
    35  H    6.117422   6.129811   6.388230   7.000091   2.108923
    36  C    5.468729   5.840469   5.781692   6.133776   2.549709
    37  H    5.987516   6.513779   6.200988   6.572077   2.678546
    38  C    5.832124   6.108536   6.392472   6.342228   3.609683
    39  H    5.610099   6.011192   6.230860   5.943348   4.503555
    40  H    6.932201   7.197440   7.476053   7.432680   3.558273
    41  O   11.056259  11.365907  10.880633  11.930760   4.121264
    42  O    5.601377   5.625982   6.282810   6.162023   4.183846
    43  H    4.696624   4.677865   5.379040   5.315482   4.356825
    44  O    9.989791  10.515687   9.848664  10.698959   3.720260
    45  C   11.256740  11.757250  11.056653  12.000196   4.806880
    46  H   11.837065  12.410693  11.618059  12.519402   5.699100
    47  H   11.236908  11.709377  10.946840  12.032346   4.983906
    48  H   11.843546  12.277564  11.709971  12.610201   4.969047
                   26         27         28         29         30
    26  C    0.000000
    27  C    1.361788   0.000000
    28  C    2.494357   1.494923   0.000000
    29  C    2.853510   2.511192   1.468145   0.000000
    30  C    2.496447   2.842001   2.465862   1.351696   0.000000
    31  H    1.087527   2.136318   3.490356   3.940179   3.474484
    32  H    3.944990   3.489424   2.181463   1.092604   2.141794
    33  H    3.478030   3.935159   3.463196   2.128115   1.094011
    34  C    2.480833   3.708694   4.254732   3.669194   2.426501
    35  H    3.450097   4.559055   4.833502   3.942392   2.593004
    36  C    3.040840   4.401400   5.308327   4.999526   3.857183
    37  H    2.592176   3.907619   5.055437   5.060514   4.126375
    38  C    4.137634   5.462209   6.337849   5.959501   4.779924
    39  H    4.801225   6.122343   7.149630   6.907969   5.772483
    40  H    3.961619   5.178475   6.031981   5.727173   4.661376
    41  O    3.604592   2.379347   1.228085   2.368076   3.585041
    42  O    5.068413   6.365734   7.005437   6.346842   5.054489
    43  H    5.299669   6.618889   7.243345   6.539303   5.209067
    44  O    2.408025   1.343399   2.363279   3.687093   4.178128
    45  C    3.664423   2.368560   2.591632   4.059761   4.913723
    46  H    4.431309   3.254370   3.679144   5.146464   5.944627
    47  H    4.001984   2.703079   2.561145   3.942205   4.907999
    48  H    3.991479   2.686909   2.517655   3.897132   4.875521
                   31         32         33         34         35
    31  H    0.000000
    32  H    5.032079   0.000000
    33  H    4.364043   2.487852   0.000000
    34  C    2.721009   4.566463   2.630428   0.000000
    35  H    3.802638   4.650999   2.319197   1.091567   0.000000
    36  C    2.693901   5.970095   4.131062   1.501361   2.212321
    37  H    1.905494   6.111129   4.650268   2.147191   3.104850
    38  C    3.746210   6.874592   4.897838   2.505668   2.847611
    39  H    4.191130   7.866226   5.953929   3.452300   3.865654
    40  H    3.626441   6.631756   4.862902   2.752179   3.180787
    41  O    4.508553   2.610832   4.490191   5.482755   6.039915
    42  O    4.891224   7.121586   4.858553   2.915779   2.699199
    43  H    5.124143   7.299249   4.951604   3.001454   2.669562
    44  O    2.712437   4.539052   5.272124   4.884249   5.811361
    45  C    4.111994   4.641497   5.977131   6.076375   6.913229
    46  H    4.664773   5.735665   7.021451   6.902329   7.804203
    47  H    4.565844   4.388349   5.920502   6.278652   7.037026
    48  H    4.566890   4.334464   5.886026   6.276566   7.034045
                   36         37         38         39         40
    36  C    0.000000
    37  H    1.101986   0.000000
    38  C    1.523818   2.162351   0.000000
    39  H    2.155027   2.453416   1.107218   0.000000
    40  H    2.153547   2.500973   1.100677   1.779494   0.000000
    41  O    6.512272   6.193913   7.531808   8.319917   7.176462
    42  O    2.425753   3.368530   1.411410   2.093580   2.038566
    43  H    2.468117   3.490371   1.929436   2.428364   2.821314
    44  O    5.325283   4.615572   6.347104   6.851379   6.018201
    45  C    6.668547   6.011637   7.685833   8.236244   7.306427
    46  H    7.325967   6.553383   8.308586   8.749341   7.914856
    47  H    6.981749   6.401006   8.133503   8.728620   7.863858
    48  H    6.999119   6.435191   7.882664   8.512360   7.382097
                   41         42         43         44         45
    41  O    0.000000
    42  O    8.218893   0.000000
    43  H    8.470437   0.969499   0.000000
    44  O    2.660467   7.399937   7.675136   0.000000
    45  C    2.182129   8.676987   8.960822   1.416395   0.000000
    46  H    3.235757   9.396802   9.693927   2.025170   1.096418
    47  H    1.951502   9.040896   9.227779   2.082093   1.101763
    48  H    1.890469   8.798374   9.166688   2.088404   1.103092
                   46         47         48
    46  H    0.000000
    47  H    1.795823   0.000000
    48  H    1.796794   1.791536   0.000000
 Symmetry turned off by external request.
 Stoichiometry    C20H22O6
 Framework group  C1[X(C20H22O6)]
 Deg. of freedom   138
 Full point group                 C1      NOp   1
 Rotational constants (GHZ):           0.2571401           0.0836202           0.0679226
 Standard basis: def2SVP (5D, 7F)
   474 basis functions,   804 primitive gaussians,   500 cartesian basis functions
    95 alpha electrons       95 beta electrons
       nuclear repulsion energy      2191.0602166604 Hartrees.
 NAtoms=   48 NActive=   48 NUniq=   48 SFac= 1.00D+00 NAtFMM=   60 NAOKFM=F Big=F
 Integral buffers will be    131072 words long.
 Raffenetti 2 integral format.
 Two-electron integral symmetry is turned off.
 Nuclear repulsion after empirical dispersion term =     2190.9653568840 Hartrees.
 Using the following non-standard input for PCM:
 PDENS=7.0
 --- end of non-standard input.
 ------------------------------------------------------------------------------
 Polarizable Continuum Model (PCM)
 =================================
 Model                : C-PCM.
 Atomic radii         : UFF (Universal Force Field).
 Polarization charges : Total charges.
 Charge compensation  : None.
 Solution method      : On-the-fly selection.
 Cavity type          : Scaled VdW (van der Waals Surface) (Alpha=1.100).
 Cavity algorithm     : GePol (No added spheres)
                        Default sphere list used, NSphG=   48.
                        Lebedev-Laikov grids with approx.  7.0 points / Ang**2.
                        Smoothing algorithm: York/Karplus (Gamma=1.0000).
                        Polarization charges: spherical gaussians, with
                                              point-specific exponents (IZeta= 3).
                        Self-potential: point-specific (ISelfS= 7).
                        Self-field    : sphere-specific E.n sum rule (ISelfD= 2).
 1st derivatives      : Analytical E(r).r(x)/FMM algorithm (CHGder, D1EAlg=3).
                        Cavity 1st derivative terms included.
 Solvent              : Water, Eps=  78.355300 Eps(inf)=   1.777849
 ------------------------------------------------------------------------------
 One-electron integrals computed using PRISM.
   1 Symmetry operations used in ECPInt.
 ECPInt:  NShTT=   24753 NPrTT=   89657 LenC2=   19464 LenP2D=   46701.
 LDataN:  DoStor=T MaxTD1= 4 Len=   56
 NBasis=   474 RedAO= T EigKep=  2.01D-04  NBF=   474
 NBsUse=   474 1.00D-06 EigRej= -1.00D+00 NBFU=   474
 ExpMin= 1.22D-01 ExpMax= 2.27D+03 ExpMxC= 3.41D+02 IAcc=3 IRadAn=         5 AccDes= 0.00D+00
 Harris functional with IExCor=  402 and IRadAn=       5 diagonalized for initial guess.
 HarFok:  IExCor=  402 AccDes= 0.00D+00 IRadAn=         5 IDoV= 1 UseB2=F ITyADJ=14
 ICtDFT=  3500011 ScaDFX=  1.000000  1.000000  1.000000  1.000000
 FoFCou: FMM=F IPFlag=           0 FMFlag=      100000 FMFlg1=           0
         NFxFlg=           0 DoJE=T BraDBF=F KetDBF=T FulRan=T
         wScrn=  0.000000 ICntrl=       500 IOpCl=  0 I1Cent=   200000004 NGrid=           0
         NMat0=    1 NMatS0=      1 NMatT0=    0 NMatD0=    1 NMtDS0=    0 NMtDT0=    0
 Symmetry not used in FoFCou.
 Mixing orbitals, IMix= 1 IMixAn=  0 NRI=1 NE=   95 Coef=  7.07106781D-01  7.07106781D-01
 Requested convergence on RMS density matrix=1.00D-08 within 400 cycles.
 Requested convergence on MAX density matrix=1.00D-06.
 Requested convergence on             energy=1.00D-06.
 No special actions if energy rises.
 Inv3:  Mode=1 IEnd=    83730267.
 Iteration    1 A*A^-1 deviation from unit magnitude is 3.44D-15 for   3505.
 Iteration    1 A*A^-1 deviation from orthogonality  is 2.25D-15 for   5246   5162.
 Iteration    1 A^-1*A deviation from unit magnitude is 3.44D-15 for   3505.
 Iteration    1 A^-1*A deviation from orthogonality  is 3.55D-15 for   4822    373.
 Error on total polarization charges =  0.01357
 SCF Done:  E(RB3LYP) =  -1225.77111688     A.U. after   14 cycles
            NFock= 14  Conv=0.51D-08     -V/T= 2.0097
 QCSCF skips out because SCF is already converged.

 **********************************************************************

            Population analysis using the SCF Density.

 **********************************************************************

 Alpha  occ. eigenvalues --  -19.17518 -19.17348 -19.16455 -19.13699 -19.12892
 Alpha  occ. eigenvalues --  -19.12420 -10.28112 -10.26433 -10.25939 -10.25546
 Alpha  occ. eigenvalues --  -10.25404 -10.24160 -10.24092 -10.23288 -10.22460
 Alpha  occ. eigenvalues --  -10.22273 -10.21942 -10.21772 -10.20300 -10.20176
 Alpha  occ. eigenvalues --  -10.20135 -10.19624 -10.19450 -10.19379 -10.19179
 Alpha  occ. eigenvalues --  -10.18768  -1.08129  -1.06993  -1.05270  -1.03058
 Alpha  occ. eigenvalues --   -1.01376  -1.00781  -0.86501  -0.85647  -0.80664
 Alpha  occ. eigenvalues --   -0.78835  -0.76910  -0.75507  -0.74935  -0.73377
 Alpha  occ. eigenvalues --   -0.69590  -0.69166  -0.67223  -0.65912  -0.63761
 Alpha  occ. eigenvalues --   -0.62037  -0.60875  -0.59458  -0.57415  -0.55671
 Alpha  occ. eigenvalues --   -0.55118  -0.52956  -0.52324  -0.51907  -0.51337
 Alpha  occ. eigenvalues --   -0.50317  -0.49993  -0.49126  -0.48279  -0.47755
 Alpha  occ. eigenvalues --   -0.47302  -0.46846  -0.45560  -0.45320  -0.44718
 Alpha  occ. eigenvalues --   -0.44444  -0.43830  -0.43229  -0.42731  -0.41848
 Alpha  occ. eigenvalues --   -0.41702  -0.40650  -0.40119  -0.39401  -0.38997
 Alpha  occ. eigenvalues --   -0.38574  -0.37673  -0.37378  -0.36381  -0.36094
 Alpha  occ. eigenvalues --   -0.35164  -0.34816  -0.34115  -0.33821  -0.33295
 Alpha  occ. eigenvalues --   -0.32742  -0.31679  -0.28955  -0.27961  -0.27145
 Alpha  occ. eigenvalues --   -0.26673  -0.24538  -0.24123  -0.22597  -0.21337
 Alpha virt. eigenvalues --   -0.10162  -0.03935  -0.01309  -0.00821   0.02013
 Alpha virt. eigenvalues --    0.03320   0.05235   0.06445   0.06740   0.07094
 Alpha virt. eigenvalues --    0.07405   0.08547   0.08861   0.09500   0.10305
 Alpha virt. eigenvalues --    0.11252   0.11513   0.11598   0.12125   0.12604
 Alpha virt. eigenvalues --    0.12824   0.13028   0.13375   0.13591   0.13660
 Alpha virt. eigenvalues --    0.14763   0.15544   0.16679   0.16838   0.17642
 Alpha virt. eigenvalues --    0.18414   0.19439   0.19577   0.20558   0.20798
 Alpha virt. eigenvalues --    0.22099   0.23374   0.23453   0.24174   0.24546
 Alpha virt. eigenvalues --    0.25314   0.27300   0.27718   0.28683   0.29296
 Alpha virt. eigenvalues --    0.29719   0.31143   0.31163   0.32159   0.32836
 Alpha virt. eigenvalues --    0.33549   0.34048   0.34974   0.36477   0.38180
 Alpha virt. eigenvalues --    0.38760   0.38953   0.39380   0.40229   0.40772
 Alpha virt. eigenvalues --    0.41543   0.43587   0.43708   0.43947   0.44276
 Alpha virt. eigenvalues --    0.45123   0.45481   0.46085   0.46379   0.46662
 Alpha virt. eigenvalues --    0.46905   0.47769   0.48804   0.49017   0.50451
 Alpha virt. eigenvalues --    0.50640   0.50982   0.51527   0.52025   0.52734
 Alpha virt. eigenvalues --    0.53042   0.53692   0.54093   0.54251   0.54967
 Alpha virt. eigenvalues --    0.56021   0.56725   0.57623   0.58341   0.58816
 Alpha virt. eigenvalues --    0.59729   0.60064   0.60971   0.61008   0.61630
 Alpha virt. eigenvalues --    0.62387   0.62828   0.63121   0.63688   0.63999
 Alpha virt. eigenvalues --    0.64342   0.64495   0.64668   0.65012   0.65244
 Alpha virt. eigenvalues --    0.65540   0.65726   0.65960   0.66286   0.66382
 Alpha virt. eigenvalues --    0.66728   0.67463   0.67578   0.68016   0.68328
 Alpha virt. eigenvalues --    0.69113   0.69416   0.70088   0.70687   0.71117
 Alpha virt. eigenvalues --    0.71325   0.72722   0.73437   0.73765   0.74649
 Alpha virt. eigenvalues --    0.75254   0.75958   0.76531   0.77294   0.78289
 Alpha virt. eigenvalues --    0.79127   0.79324   0.80679   0.82261   0.82440
 Alpha virt. eigenvalues --    0.84347   0.85877   0.86067   0.86700   0.88483
 Alpha virt. eigenvalues --    0.89987   0.91004   0.92252   0.94162   0.94610
 Alpha virt. eigenvalues --    0.95790   0.97500   0.99207   0.99573   1.00320
 Alpha virt. eigenvalues --    1.00871   1.02418   1.03359   1.03895   1.06115
 Alpha virt. eigenvalues --    1.06887   1.07187   1.09163   1.09886   1.10575
 Alpha virt. eigenvalues --    1.11356   1.12015   1.13085   1.14659   1.15450
 Alpha virt. eigenvalues --    1.16346   1.19139   1.19926   1.21021   1.21592
 Alpha virt. eigenvalues --    1.22961   1.23930   1.25217   1.25889   1.26417
 Alpha virt. eigenvalues --    1.26761   1.27629   1.28025   1.28893   1.30727
 Alpha virt. eigenvalues --    1.31277   1.32064   1.32748   1.34360   1.36708
 Alpha virt. eigenvalues --    1.37186   1.39815   1.41265   1.41509   1.41926
 Alpha virt. eigenvalues --    1.43334   1.45655   1.46000   1.46513   1.46887
 Alpha virt. eigenvalues --    1.48041   1.48870   1.49350   1.51798   1.53384
 Alpha virt. eigenvalues --    1.53761   1.56377   1.57766   1.58431   1.59729
 Alpha virt. eigenvalues --    1.60020   1.60627   1.61668   1.63379   1.64852
 Alpha virt. eigenvalues --    1.64992   1.65407   1.66794   1.67815   1.68179
 Alpha virt. eigenvalues --    1.69352   1.69890   1.70756   1.71784   1.71930
 Alpha virt. eigenvalues --    1.72070   1.72734   1.73675   1.73707   1.74470
 Alpha virt. eigenvalues --    1.74567   1.75335   1.75886   1.76372   1.76566
 Alpha virt. eigenvalues --    1.77551   1.77645   1.78284   1.78477   1.79922
 Alpha virt. eigenvalues --    1.80292   1.80547   1.80814   1.80936   1.82467
 Alpha virt. eigenvalues --    1.83107   1.83823   1.85220   1.85432   1.86173
 Alpha virt. eigenvalues --    1.86989   1.87441   1.88119   1.88760   1.89803
 Alpha virt. eigenvalues --    1.90507   1.90652   1.91275   1.91520   1.92366
 Alpha virt. eigenvalues --    1.94159   1.94771   1.96457   1.96971   1.98122
 Alpha virt. eigenvalues --    1.99503   2.00247   2.00661   2.01471   2.02049
 Alpha virt. eigenvalues --    2.03418   2.04014   2.06714   2.08360   2.08999
 Alpha virt. eigenvalues --    2.09404   2.11030   2.12098   2.12284   2.13180
 Alpha virt. eigenvalues --    2.13813   2.15210   2.15417   2.16837   2.17704
 Alpha virt. eigenvalues --    2.18909   2.19981   2.21231   2.21660   2.22329
 Alpha virt. eigenvalues --    2.22977   2.23489   2.24642   2.25583   2.26017
 Alpha virt. eigenvalues --    2.27513   2.28036   2.29161   2.31100   2.31443
 Alpha virt. eigenvalues --    2.32826   2.33635   2.34112   2.34835   2.36446
 Alpha virt. eigenvalues --    2.38046   2.38526   2.39377   2.40440   2.41754
 Alpha virt. eigenvalues --    2.43244   2.45590   2.46508   2.49405   2.49993
 Alpha virt. eigenvalues --    2.51845   2.54250   2.54807   2.57274   2.58061
 Alpha virt. eigenvalues --    2.60329   2.60861   2.61762   2.63696   2.63965
 Alpha virt. eigenvalues --    2.64594   2.65363   2.66601   2.68416   2.70743
 Alpha virt. eigenvalues --    2.70803   2.72302   2.73593   2.74190   2.77699
 Alpha virt. eigenvalues --    2.77863   2.79595   2.79777   2.80969   2.82529
 Alpha virt. eigenvalues --    2.83995   2.84225   2.84537   2.85340   2.86956
 Alpha virt. eigenvalues --    2.88600   2.89245   2.90510   2.90636   2.91547
 Alpha virt. eigenvalues --    2.92175   2.95594   2.97514   2.98895   3.02096
 Alpha virt. eigenvalues --    3.03383   3.05593   3.05705   3.06667   3.07539
 Alpha virt. eigenvalues --    3.07951   3.08311   3.10076   3.10803   3.13645
 Alpha virt. eigenvalues --    3.13900   3.15160   3.21012   3.25522   3.26417
 Alpha virt. eigenvalues --    3.29741   3.32605   3.34544   3.37455   3.39457
 Alpha virt. eigenvalues --    3.42367   3.46399   3.51854   3.53355   3.58742
 Alpha virt. eigenvalues --    3.69313   3.73657   3.75733   3.76451
          Condensed to atoms (all electrons):
               1          2          3          4          5          6
     1  C    5.346423   0.152168   0.168981  -0.185479   0.125416   0.208829
     2  C    0.152168   5.471578   0.187935   0.087894  -0.137854   0.064266
     3  C    0.168981   0.187935   5.217726   0.081747   0.098518  -0.162973
     4  C   -0.185479   0.087894   0.081747   5.306241   0.192409   0.143189
     5  C    0.125416  -0.137854   0.098518   0.192409   5.315494   0.160320
     6  C    0.208829   0.064266  -0.162973   0.143189   0.160320   5.308985
     7  H   -0.077872   0.462152  -0.090081   0.020620  -0.003714   0.018584
     8  H    0.018456  -0.003293   0.019622  -0.090715   0.459293  -0.069215
     9  H   -0.077226   0.017676  -0.002700   0.017313  -0.070569   0.447741
    10  C    0.337922  -0.100677   0.015343  -0.002280   0.019018  -0.087864
    11  H   -0.047980  -0.017201   0.000942  -0.000100  -0.000453   0.010985
    12  C   -0.050361   0.014900  -0.000965   0.000154   0.000834  -0.024810
    13  H   -0.024370  -0.000628   0.000076  -0.000092   0.000248   0.006746
    14  C    0.008368  -0.000397   0.000008  -0.000000  -0.000014   0.000253
    15  H   -0.000448   0.000076  -0.000001  -0.000000   0.000003  -0.000044
    16  H   -0.000380  -0.000011   0.000000   0.000000  -0.000002   0.000082
    17  O   -0.000185   0.003436  -0.072540   0.365951  -0.070355   0.005996
    18  O    0.000003  -0.000020   0.000000  -0.000000  -0.000000   0.000005
    19  H    0.000023   0.000000   0.000000   0.000000   0.000000   0.000000
    20  O    0.005463  -0.075598   0.405225  -0.090974   0.004804  -0.000220
    21  C    0.001013  -0.004630  -0.051738   0.004787  -0.000139   0.000029
    22  H   -0.000018   0.000182   0.004866  -0.000028   0.000016   0.000002
    23  H   -0.000468   0.006408   0.002110   0.002151  -0.000298   0.000012
    24  H    0.000915   0.005980  -0.013957  -0.001862   0.000148  -0.000088
    25  C    0.000000  -0.000000   0.000005   0.000486   0.000113  -0.000015
    26  C    0.000000  -0.000000   0.000002  -0.000062  -0.000607  -0.000012
    27  C   -0.000000   0.000000  -0.000000  -0.000017  -0.000000   0.000001
    28  C   -0.000000   0.000000  -0.000000   0.000000   0.000000   0.000000
    29  C    0.000000  -0.000000   0.000000  -0.000000  -0.000000  -0.000000
    30  C   -0.000000   0.000000  -0.000001   0.000003   0.000003   0.000000
    31  H   -0.000006   0.000002  -0.000030   0.000241  -0.000226   0.000077
    32  H   -0.000000   0.000000  -0.000000   0.000000   0.000000   0.000000
    33  H   -0.000000   0.000000   0.000000  -0.000000   0.000000   0.000000
    34  C    0.000001   0.000009  -0.000393   0.004147   0.000315  -0.000084
    35  H   -0.000000   0.000001  -0.000050  -0.000596  -0.000041   0.000003
    36  C   -0.000161   0.000151   0.001256  -0.037066  -0.009360   0.001771
    37  H   -0.000144  -0.000019  -0.000738  -0.017111   0.001207   0.000641
    38  C    0.000020  -0.000023   0.001066  -0.000314  -0.005806  -0.000142
    39  H   -0.000001  -0.000069  -0.001130   0.007161   0.001856  -0.000717
    40  H    0.000001   0.000001  -0.000000  -0.000305  -0.000163   0.000042
    41  O    0.000000   0.000000  -0.000000   0.000000   0.000000  -0.000000
    42  O   -0.000000  -0.000003   0.000225   0.000205   0.000053   0.000004
    43  H   -0.000006   0.000075  -0.000568  -0.001605   0.000268  -0.000001
    44  O   -0.000000   0.000000  -0.000000  -0.000000   0.000001   0.000000
    45  C    0.000000   0.000000  -0.000000  -0.000000  -0.000000   0.000000
    46  H    0.000000  -0.000000   0.000000  -0.000000  -0.000000  -0.000000
    47  H   -0.000000  -0.000000  -0.000000  -0.000000  -0.000000   0.000000
    48  H   -0.000000   0.000000  -0.000000   0.000000   0.000000   0.000000
               7          8          9         10         11         12
     1  C   -0.077872   0.018456  -0.077226   0.337922  -0.047980  -0.050361
     2  C    0.462152  -0.003293   0.017676  -0.100677  -0.017201   0.014900
     3  C   -0.090081   0.019622  -0.002700   0.015343   0.000942  -0.000965
     4  C    0.020620  -0.090715   0.017313  -0.002280  -0.000100   0.000154
     5  C   -0.003714   0.459293  -0.070569   0.019018  -0.000453   0.000834
     6  C    0.018584  -0.069215   0.447741  -0.087864   0.010985  -0.024810
     7  H    0.708245  -0.000006  -0.000260  -0.016916   0.005400   0.000337
     8  H   -0.000006   0.714652  -0.015538  -0.000375   0.000011  -0.000007
     9  H   -0.000260  -0.015538   0.711919  -0.022791   0.000154   0.007373
    10  C   -0.016916  -0.000375  -0.022791   5.085095   0.412952   0.429814
    11  H    0.005400   0.000011   0.000154   0.412952   0.704869  -0.073056
    12  C    0.000337  -0.000007   0.007373   0.429814  -0.073056   5.169030
    13  H    0.000009   0.000043   0.001246  -0.037626   0.010168   0.396074
    14  C   -0.000045  -0.000000  -0.000214  -0.030061  -0.010566   0.357071
    15  H   -0.000002  -0.000000   0.000027  -0.036325   0.002338   0.006385
    16  H    0.000000   0.000000  -0.000007   0.020957   0.000844  -0.032618
    17  O   -0.000051  -0.006444  -0.000100   0.000001  -0.000000   0.000000
    18  O   -0.000001   0.000000  -0.000030   0.005582   0.006910  -0.080582
    19  H   -0.000000  -0.000000   0.000004   0.000786  -0.000593   0.009353
    20  O   -0.007724  -0.000047   0.000005  -0.000067  -0.000000   0.000000
    21  C    0.004934   0.000012  -0.000000  -0.000040  -0.000001  -0.000001
    22  H   -0.000380  -0.000001   0.000000  -0.000001   0.000000   0.000000
    23  H    0.001234  -0.000001   0.000000   0.000018  -0.000007  -0.000000
    24  H   -0.001088   0.000001  -0.000001   0.000051   0.000004  -0.000000
    25  C    0.000000   0.000933  -0.000001  -0.000000   0.000000   0.000000
    26  C   -0.000000   0.000905  -0.000003   0.000000   0.000000  -0.000000
    27  C   -0.000000  -0.000089   0.000000   0.000000  -0.000000  -0.000000
    28  C    0.000000  -0.000008   0.000000   0.000000  -0.000000   0.000000
    29  C    0.000000   0.000002  -0.000000  -0.000000   0.000000  -0.000000
    30  C   -0.000000  -0.000028   0.000000   0.000000  -0.000000   0.000000
    31  H    0.000000  -0.000692   0.000024  -0.000000   0.000000   0.000000
    32  H   -0.000000   0.000000   0.000000  -0.000000  -0.000000  -0.000000
    33  H   -0.000000  -0.000001  -0.000000   0.000000  -0.000000   0.000000
    34  C   -0.000000  -0.000886   0.000001  -0.000000   0.000000  -0.000000
    35  H   -0.000000  -0.000217   0.000000   0.000000  -0.000000   0.000000
    36  C    0.000009  -0.011001  -0.000005   0.000000  -0.000000   0.000000
    37  H    0.000000  -0.006525   0.000302   0.000004  -0.000000   0.000000
    38  C   -0.000000   0.000095  -0.000016   0.000000   0.000000   0.000000
    39  H   -0.000000  -0.000221   0.000008  -0.000003   0.000000  -0.000000
    40  H    0.000000   0.000176  -0.000000   0.000000  -0.000000   0.000000
    41  O   -0.000000  -0.000000  -0.000000  -0.000000  -0.000000   0.000000
    42  O   -0.000000  -0.000033   0.000000   0.000000   0.000000  -0.000000
    43  H   -0.000000  -0.000013   0.000001   0.000000  -0.000000  -0.000000
    44  O   -0.000000  -0.000018   0.000000   0.000000   0.000000  -0.000000
    45  C   -0.000000   0.000000  -0.000000  -0.000000  -0.000000   0.000000
    46  H   -0.000000   0.000000  -0.000000  -0.000000  -0.000000   0.000000
    47  H    0.000000   0.000000   0.000000   0.000000   0.000000  -0.000000
    48  H    0.000000  -0.000000   0.000000   0.000000   0.000000  -0.000000
              13         14         15         16         17         18
     1  C   -0.024370   0.008368  -0.000448  -0.000380  -0.000185   0.000003
     2  C   -0.000628  -0.000397   0.000076  -0.000011   0.003436  -0.000020
     3  C    0.000076   0.000008  -0.000001   0.000000  -0.072540   0.000000
     4  C   -0.000092  -0.000000  -0.000000   0.000000   0.365951  -0.000000
     5  C    0.000248  -0.000014   0.000003  -0.000002  -0.070355  -0.000000
     6  C    0.006746   0.000253  -0.000044   0.000082   0.005996   0.000005
     7  H    0.000009  -0.000045  -0.000002   0.000000  -0.000051  -0.000001
     8  H    0.000043  -0.000000  -0.000000   0.000000  -0.006444   0.000000
     9  H    0.001246  -0.000214   0.000027  -0.000007  -0.000100  -0.000030
    10  C   -0.037626  -0.030061  -0.036325   0.020957   0.000001   0.005582
    11  H    0.010168  -0.010566   0.002338   0.000844  -0.000000   0.006910
    12  C    0.396074   0.357071   0.006385  -0.032618   0.000000  -0.080582
    13  H    0.682167  -0.041817   0.007649  -0.014913  -0.000000   0.002689
    14  C   -0.041817   4.395916   0.363168   0.369253  -0.000000   0.356602
    15  H    0.007649   0.363168   0.741177  -0.052776   0.000000  -0.031422
    16  H   -0.014913   0.369253  -0.052776   0.750506  -0.000000  -0.030868
    17  O   -0.000000  -0.000000   0.000000  -0.000000   7.971526   0.000000
    18  O    0.002689   0.356602  -0.031422  -0.030868   0.000000   7.792157
    19  H   -0.000502  -0.020072  -0.004573  -0.004976  -0.000000   0.317165
    20  O    0.000000  -0.000000   0.000000   0.000000   0.001038   0.000000
    21  C    0.000000   0.000000   0.000000  -0.000000   0.000006  -0.000000
    22  H   -0.000000  -0.000000   0.000000   0.000000   0.000018  -0.000000
    23  H   -0.000000  -0.000000  -0.000000   0.000000   0.000029   0.000000
    24  H    0.000000   0.000000  -0.000000  -0.000000  -0.000016   0.000000
    25  C    0.000000  -0.000000  -0.000000   0.000000  -0.001434  -0.000000
    26  C    0.000000   0.000000   0.000000  -0.000000  -0.000231  -0.000000
    27  C   -0.000000   0.000000  -0.000000   0.000000  -0.000032   0.000000
    28  C   -0.000000  -0.000000   0.000000   0.000000  -0.000000   0.000000
    29  C    0.000000   0.000000   0.000000  -0.000000   0.000003   0.000000
    30  C   -0.000000  -0.000000  -0.000000   0.000000  -0.000212   0.000000
    31  H    0.000000  -0.000000  -0.000000   0.000000  -0.000101   0.000000
    32  H   -0.000000  -0.000000  -0.000000   0.000000  -0.000000   0.000000
    33  H   -0.000000  -0.000000  -0.000000   0.000000  -0.000019   0.000000
    34  C    0.000000   0.000000   0.000000  -0.000000  -0.043521  -0.000000
    35  H   -0.000000   0.000000  -0.000000   0.000000  -0.000947   0.000000
    36  C   -0.000000  -0.000000  -0.000000   0.000000   0.268615   0.000000
    37  H   -0.000000  -0.000000   0.000000   0.000000  -0.029927  -0.000000
    38  C    0.000000   0.000000   0.000000  -0.000000  -0.054403  -0.000000
    39  H   -0.000000  -0.000000   0.000000  -0.000000  -0.007007   0.000000
    40  H   -0.000000  -0.000000  -0.000000   0.000000   0.004737   0.000000
    41  O    0.000000   0.000000   0.000000   0.000000  -0.000000   0.000000
    42  O    0.000000   0.000000   0.000000  -0.000000  -0.006390   0.000000
    43  H   -0.000000  -0.000000  -0.000000   0.000000   0.022612   0.000000
    44  O   -0.000000  -0.000000  -0.000000   0.000000  -0.000000   0.000000
    45  C   -0.000000  -0.000000  -0.000000   0.000000  -0.000000   0.000000
    46  H    0.000000   0.000000  -0.000000  -0.000000  -0.000000   0.000000
    47  H    0.000000   0.000000   0.000000  -0.000000   0.000000   0.000000
    48  H   -0.000000  -0.000000   0.000000   0.000000   0.000000   0.000000
              19         20         21         22         23         24
     1  C    0.000023   0.005463   0.001013  -0.000018  -0.000468   0.000915
     2  C    0.000000  -0.075598  -0.004630   0.000182   0.006408   0.005980
     3  C    0.000000   0.405225  -0.051738   0.004866   0.002110  -0.013957
     4  C    0.000000  -0.090974   0.004787  -0.000028   0.002151  -0.001862
     5  C    0.000000   0.004804  -0.000139   0.000016  -0.000298   0.000148
     6  C    0.000000  -0.000220   0.000029   0.000002   0.000012  -0.000088
     7  H   -0.000000  -0.007724   0.004934  -0.000380   0.001234  -0.001088
     8  H   -0.000000  -0.000047   0.000012  -0.000001  -0.000001   0.000001
     9  H    0.000004   0.000005  -0.000000   0.000000   0.000000  -0.000001
    10  C    0.000786  -0.000067  -0.000040  -0.000001   0.000018   0.000051
    11  H   -0.000593  -0.000000  -0.000001   0.000000  -0.000007   0.000004
    12  C    0.009353   0.000000  -0.000001   0.000000  -0.000000  -0.000000
    13  H   -0.000502   0.000000   0.000000  -0.000000  -0.000000   0.000000
    14  C   -0.020072  -0.000000   0.000000  -0.000000  -0.000000   0.000000
    15  H   -0.004573   0.000000   0.000000   0.000000  -0.000000  -0.000000
    16  H   -0.004976   0.000000  -0.000000   0.000000   0.000000  -0.000000
    17  O   -0.000000   0.001038   0.000006   0.000018   0.000029  -0.000016
    18  O    0.317165   0.000000  -0.000000  -0.000000   0.000000   0.000000
    19  H    0.520601   0.000000   0.000000   0.000000  -0.000000   0.000000
    20  O    0.000000   7.871577   0.310410  -0.023865  -0.034436  -0.027798
    21  C    0.000000   0.310410   4.375791   0.393998   0.388116   0.399471
    22  H    0.000000  -0.023865   0.393998   0.631593  -0.022810  -0.024000
    23  H   -0.000000  -0.034436   0.388116  -0.022810   0.671941  -0.042270
    24  H    0.000000  -0.027798   0.399471  -0.024000  -0.042270   0.667572
    25  C   -0.000000  -0.000000  -0.000000   0.000000  -0.000000  -0.000000
    26  C    0.000000   0.000000  -0.000000   0.000000  -0.000000   0.000000
    27  C   -0.000000   0.000000  -0.000000   0.000000  -0.000000   0.000000
    28  C   -0.000000  -0.000000  -0.000000  -0.000000   0.000000  -0.000000
    29  C    0.000000   0.000000   0.000000  -0.000000  -0.000000   0.000000
    30  C   -0.000000  -0.000000  -0.000000   0.000000   0.000000  -0.000000
    31  H   -0.000000  -0.000000  -0.000000   0.000000  -0.000000  -0.000000
    32  H    0.000000  -0.000000  -0.000000   0.000000  -0.000000   0.000000
    33  H   -0.000000  -0.000000  -0.000000  -0.000000   0.000000   0.000000
    34  C    0.000000   0.000007  -0.000000   0.000000  -0.000000   0.000000
    35  H   -0.000000  -0.000010   0.000000   0.000000  -0.000000  -0.000000
    36  C   -0.000000  -0.000101  -0.000012  -0.000001   0.000005  -0.000000
    37  H    0.000000  -0.000027   0.000001   0.000000   0.000001  -0.000001
    38  C    0.000000  -0.000046   0.000002  -0.000001   0.000000  -0.000000
    39  H    0.000000   0.000024  -0.000002  -0.000000   0.000000   0.000000
    40  H   -0.000000   0.000000  -0.000000   0.000000   0.000000  -0.000000
    41  O    0.000000  -0.000000  -0.000000   0.000000   0.000000  -0.000000
    42  O    0.000000  -0.000033   0.000001   0.000000  -0.000000   0.000000
    43  H   -0.000000   0.002254  -0.000070  -0.000020   0.000013   0.000003
    44  O   -0.000000  -0.000000  -0.000000   0.000000   0.000000  -0.000000
    45  C   -0.000000  -0.000000  -0.000000   0.000000   0.000000  -0.000000
    46  H   -0.000000  -0.000000   0.000000   0.000000  -0.000000  -0.000000
    47  H    0.000000   0.000000   0.000000  -0.000000  -0.000000   0.000000
    48  H    0.000000  -0.000000   0.000000  -0.000000   0.000000   0.000000
              25         26         27         28         29         30
     1  C    0.000000   0.000000  -0.000000  -0.000000   0.000000  -0.000000
     2  C   -0.000000  -0.000000   0.000000   0.000000  -0.000000   0.000000
     3  C    0.000005   0.000002  -0.000000  -0.000000   0.000000  -0.000001
     4  C    0.000486  -0.000062  -0.000017   0.000000  -0.000000   0.000003
     5  C    0.000113  -0.000607  -0.000000   0.000000  -0.000000   0.000003
     6  C   -0.000015  -0.000012   0.000001   0.000000  -0.000000   0.000000
     7  H    0.000000  -0.000000  -0.000000   0.000000   0.000000  -0.000000
     8  H    0.000933   0.000905  -0.000089  -0.000008   0.000002  -0.000028
     9  H   -0.000001  -0.000003   0.000000   0.000000  -0.000000   0.000000
    10  C   -0.000000   0.000000   0.000000   0.000000  -0.000000   0.000000
    11  H    0.000000   0.000000  -0.000000  -0.000000   0.000000  -0.000000
    12  C    0.000000  -0.000000  -0.000000   0.000000  -0.000000   0.000000
    13  H    0.000000   0.000000  -0.000000  -0.000000   0.000000  -0.000000
    14  C   -0.000000   0.000000   0.000000  -0.000000   0.000000  -0.000000
    15  H   -0.000000   0.000000  -0.000000   0.000000   0.000000  -0.000000
    16  H    0.000000  -0.000000   0.000000   0.000000  -0.000000   0.000000
    17  O   -0.001434  -0.000231  -0.000032  -0.000000   0.000003  -0.000212
    18  O   -0.000000  -0.000000   0.000000   0.000000   0.000000   0.000000
    19  H   -0.000000   0.000000  -0.000000  -0.000000   0.000000  -0.000000
    20  O   -0.000000   0.000000   0.000000  -0.000000   0.000000  -0.000000
    21  C   -0.000000  -0.000000  -0.000000  -0.000000   0.000000  -0.000000
    22  H    0.000000   0.000000   0.000000  -0.000000  -0.000000   0.000000
    23  H   -0.000000  -0.000000  -0.000000   0.000000  -0.000000   0.000000
    24  H   -0.000000   0.000000   0.000000  -0.000000   0.000000  -0.000000
    25  C    5.159714   0.171839   0.135383  -0.143499   0.112834   0.128197
    26  C    0.171839   5.446664   0.204352   0.064419  -0.079438   0.034061
    27  C    0.135383   0.204352   5.364853  -0.002646  -0.003203  -0.108509
    28  C   -0.143499   0.064419  -0.002646   5.164941   0.135978   0.130518
    29  C    0.112834  -0.079438  -0.003203   0.135978   5.380427   0.196520
    30  C    0.128197   0.034061  -0.108509   0.130518   0.196520   5.283469
    31  H   -0.060517   0.416118  -0.057066   0.017455  -0.005017   0.015911
    32  H    0.015660  -0.003617   0.020920  -0.063593   0.420031  -0.071229
    33  H   -0.077473   0.014394  -0.004104   0.015274  -0.066390   0.453447
    34  C    0.537157  -0.108982   0.019495  -0.001769   0.018523  -0.099474
    35  H   -0.028434   0.011870  -0.000088  -0.000063   0.001240  -0.020590
    36  C   -0.020208  -0.016539   0.000272   0.000072  -0.001079   0.013624
    37  H   -0.025270   0.006812   0.001987  -0.000156   0.000125  -0.000399
    38  C    0.001854   0.000141  -0.000075   0.000002   0.000008  -0.000369
    39  H    0.000102   0.000052   0.000006   0.000000  -0.000000   0.000008
    40  H    0.000769  -0.000102  -0.000064  -0.000000  -0.000004  -0.000030
    41  O   -0.000251   0.005159  -0.121430   0.656495  -0.072845   0.004440
    42  O    0.001343   0.000029   0.000001  -0.000000  -0.000000  -0.000048
    43  H   -0.000092  -0.000015   0.000000  -0.000000  -0.000000  -0.000002
    44  O    0.002912  -0.078214   0.404232  -0.063857   0.006843  -0.000378
    45  C   -0.000239   0.008149  -0.037040  -0.014229   0.001185   0.000067
    46  H    0.000008  -0.000532  -0.002663   0.003719   0.000286  -0.000018
    47  H    0.000033   0.000193   0.009219  -0.010152  -0.002077   0.000091
    48  H   -0.000002   0.000414   0.009736  -0.011775  -0.002504   0.000132
              31         32         33         34         35         36
     1  C   -0.000006  -0.000000  -0.000000   0.000001  -0.000000  -0.000161
     2  C    0.000002   0.000000   0.000000   0.000009   0.000001   0.000151
     3  C   -0.000030  -0.000000   0.000000  -0.000393  -0.000050   0.001256
     4  C    0.000241   0.000000  -0.000000   0.004147  -0.000596  -0.037066
     5  C   -0.000226   0.000000   0.000000   0.000315  -0.000041  -0.009360
     6  C    0.000077   0.000000   0.000000  -0.000084   0.000003   0.001771
     7  H    0.000000  -0.000000  -0.000000  -0.000000  -0.000000   0.000009
     8  H   -0.000692   0.000000  -0.000001  -0.000886  -0.000217  -0.011001
     9  H    0.000024   0.000000  -0.000000   0.000001   0.000000  -0.000005
    10  C   -0.000000  -0.000000   0.000000  -0.000000   0.000000   0.000000
    11  H    0.000000  -0.000000  -0.000000   0.000000  -0.000000  -0.000000
    12  C    0.000000  -0.000000   0.000000  -0.000000   0.000000   0.000000
    13  H    0.000000  -0.000000  -0.000000   0.000000  -0.000000  -0.000000
    14  C   -0.000000  -0.000000  -0.000000   0.000000   0.000000  -0.000000
    15  H   -0.000000  -0.000000  -0.000000   0.000000  -0.000000  -0.000000
    16  H    0.000000   0.000000   0.000000  -0.000000   0.000000   0.000000
    17  O   -0.000101  -0.000000  -0.000019  -0.043521  -0.000947   0.268615
    18  O    0.000000   0.000000   0.000000  -0.000000   0.000000   0.000000
    19  H   -0.000000   0.000000  -0.000000   0.000000  -0.000000  -0.000000
    20  O   -0.000000  -0.000000  -0.000000   0.000007  -0.000010  -0.000101
    21  C   -0.000000  -0.000000  -0.000000  -0.000000   0.000000  -0.000012
    22  H    0.000000   0.000000  -0.000000   0.000000   0.000000  -0.000001
    23  H   -0.000000  -0.000000   0.000000  -0.000000  -0.000000   0.000005
    24  H   -0.000000   0.000000   0.000000   0.000000  -0.000000  -0.000000
    25  C   -0.060517   0.015660  -0.077473   0.537157  -0.028434  -0.020208
    26  C    0.416118  -0.003617   0.014394  -0.108982   0.011870  -0.016539
    27  C   -0.057066   0.020920  -0.004104   0.019495  -0.000088   0.000272
    28  C    0.017455  -0.063593   0.015274  -0.001769  -0.000063   0.000072
    29  C   -0.005017   0.420031  -0.066390   0.018523   0.001240  -0.001079
    30  C    0.015911  -0.071229   0.453447  -0.099474  -0.020590   0.013624
    31  H    0.720097   0.000061  -0.000200  -0.030560  -0.000095   0.005849
    32  H    0.000061   0.694899  -0.015693  -0.000446  -0.000023   0.000010
    33  H   -0.000200  -0.015693   0.680291  -0.017125   0.004427   0.000838
    34  C   -0.030560  -0.000446  -0.017125   5.213185   0.395427   0.234539
    35  H   -0.000095  -0.000023   0.004427   0.395427   0.670288  -0.060650
    36  C    0.005849   0.000010   0.000838   0.234539  -0.060650   4.849002
    37  H   -0.002496  -0.000001  -0.000058  -0.015619   0.009973   0.348948
    38  C   -0.000500  -0.000000  -0.000001  -0.055538  -0.010889   0.407646
    39  H    0.000093   0.000000  -0.000002   0.013243   0.000946  -0.028149
    40  H    0.000107  -0.000000   0.000015  -0.011515  -0.001626  -0.000019
    41  O   -0.000127   0.005154  -0.000100   0.000003   0.000000  -0.000000
    42  O   -0.000007   0.000000  -0.000042  -0.001785   0.019350  -0.054493
    43  H   -0.000003   0.000000  -0.000002  -0.005933   0.001281  -0.007341
    44  O    0.004409  -0.000105   0.000004  -0.000017   0.000001   0.000003
    45  C   -0.000522  -0.000162   0.000001   0.000006  -0.000000  -0.000000
    46  H   -0.000165  -0.000013   0.000000  -0.000000   0.000000  -0.000000
    47  H    0.000148   0.000165  -0.000002   0.000001  -0.000000   0.000000
    48  H    0.000164   0.000192  -0.000002   0.000001  -0.000000   0.000000
              37         38         39         40         41         42
     1  C   -0.000144   0.000020  -0.000001   0.000001   0.000000  -0.000000
     2  C   -0.000019  -0.000023  -0.000069   0.000001   0.000000  -0.000003
     3  C   -0.000738   0.001066  -0.001130  -0.000000  -0.000000   0.000225
     4  C   -0.017111  -0.000314   0.007161  -0.000305   0.000000   0.000205
     5  C    0.001207  -0.005806   0.001856  -0.000163   0.000000   0.000053
     6  C    0.000641  -0.000142  -0.000717   0.000042  -0.000000   0.000004
     7  H    0.000000  -0.000000  -0.000000   0.000000  -0.000000  -0.000000
     8  H   -0.006525   0.000095  -0.000221   0.000176  -0.000000  -0.000033
     9  H    0.000302  -0.000016   0.000008  -0.000000  -0.000000   0.000000
    10  C    0.000004   0.000000  -0.000003   0.000000  -0.000000   0.000000
[...]
    18  O   -0.000000   0.000000   0.000000   0.000000   0.000000   0.000000
    19  H    0.000000  -0.000000  -0.000000   0.000000   0.000000   0.000000
    20  O   -0.000002   0.000000   0.000000   0.000000   0.000000  -0.000000
    21  C    0.000000  -0.000000  -0.000000   0.000000   0.000000   0.000000
    22  H    0.000000  -0.000000  -0.000000   0.000000   0.000000   0.000000
    23  H    0.000000  -0.000000  -0.000000   0.000000   0.000000   0.000000
    24  H   -0.000000   0.000000   0.000000   0.000000  -0.000000  -0.000000
    25  C    5.228084   0.111112   0.125795  -0.139135   0.109449   0.145230
    26  C    0.111112   5.400230   0.256732   0.071389  -0.069697   0.024601
    27  C    0.125795   0.256732   5.498705  -0.090585  -0.004244  -0.113359
    28  C   -0.139135   0.071389  -0.090585   5.153240   0.127812   0.138065
    29  C    0.109449  -0.069697  -0.004244   0.127812   5.430371   0.175857
    30  C    0.145230   0.024601  -0.113359   0.138065   0.175857   5.301003
    31  H   -0.058286   0.407940  -0.050338   0.018989  -0.004513   0.014561
    32  H    0.015894  -0.004272   0.022016  -0.061096   0.418588  -0.073624
    33  H   -0.077746   0.015198  -0.004246   0.014796  -0.065553   0.453645
    34  C    0.502926  -0.101926   0.020362  -0.002385   0.019540  -0.106534
    35  H   -0.033462   0.011814  -0.000065  -0.000062   0.001116  -0.022542
    36  C    0.001816  -0.012078  -0.001020   0.000130  -0.001120   0.013283
    37  H   -0.020976   0.006811   0.002034  -0.000101   0.000054  -0.000546
    38  C   -0.008127  -0.001044  -0.000096   0.000001   0.000015  -0.000357
    39  H   -0.000262   0.000052   0.000018   0.000000  -0.000001   0.000013
    40  H    0.002437   0.001871  -0.000358  -0.000008  -0.000014  -0.000163
    41  O   -0.000321   0.006209  -0.113667   0.703834  -0.083067   0.005426
    42  O   -0.001698   0.000112   0.000005  -0.000000  -0.000001  -0.000066
    43  H    0.000042   0.000005   0.000001  -0.000000  -0.000000  -0.000015
    44  O    0.004573  -0.084246   0.396146  -0.068421   0.004921  -0.000250
    45  C   -0.000172   0.000871  -0.050272  -0.002772  -0.000321   0.000038
    46  H    0.000009   0.000065   0.002381   0.000258   0.000066  -0.000004
    47  H    0.000062  -0.000617  -0.014528   0.007334   0.000375  -0.000027
    48  H   -0.000343   0.003170   0.009760  -0.001504   0.000282  -0.000120
              31         32         33         34         35         36
     1  C    0.000000  -0.000000  -0.000000  -0.000002  -0.000000  -0.000014
     2  C    0.000000   0.000000  -0.000000   0.000018   0.000004   0.000422
     3  C   -0.000007  -0.000000  -0.000000  -0.000392  -0.000065  -0.011953
     4  C   -0.000004   0.000000   0.000000   0.003461  -0.000045  -0.051817
     5  C   -0.000013   0.000000  -0.000000  -0.000319   0.000092  -0.008598
     6  C   -0.000001  -0.000000   0.000000   0.000063  -0.000004   0.000775
     7  H   -0.000000  -0.000000  -0.000000  -0.000000  -0.000000  -0.000003
     8  H   -0.000047  -0.000000  -0.000000  -0.000467  -0.000022  -0.002824
     9  H   -0.000000  -0.000000  -0.000000  -0.000001   0.000000  -0.000020
    10  C    0.000000  -0.000000   0.000000  -0.000000   0.000000   0.000001
    11  H   -0.000000  -0.000000  -0.000000  -0.000000  -0.000000  -0.000000
    12  C   -0.000000   0.000000  -0.000000   0.000000  -0.000000  -0.000000
    13  H   -0.000000   0.000000  -0.000000  -0.000000  -0.000000  -0.000000
    14  C   -0.000000   0.000000  -0.000000   0.000000  -0.000000   0.000000
    15  H   -0.000000   0.000000  -0.000000   0.000000   0.000000  -0.000000
    16  H    0.000000   0.000000   0.000000  -0.000000  -0.000000   0.000000
    17  O   -0.000095  -0.000000  -0.000026  -0.048692   0.004618   0.278717
    18  O   -0.000000   0.000000   0.000000   0.000000   0.000000  -0.000000
    19  H   -0.000000   0.000000  -0.000000  -0.000000   0.000000  -0.000000
    20  O   -0.000000  -0.000000  -0.000000   0.000011  -0.000008  -0.001130
    21  C   -0.000000  -0.000000   0.000000  -0.000009  -0.000007  -0.000033
    22  H    0.000000   0.000000   0.000000  -0.000001  -0.000001   0.000021
    23  H   -0.000000  -0.000000   0.000000   0.000001  -0.000001  -0.000015
    24  H    0.000000   0.000000  -0.000000  -0.000001   0.000000   0.000049
    25  C   -0.058286   0.015894  -0.077746   0.502926  -0.033462   0.001816
    26  C    0.407940  -0.004272   0.015198  -0.101926   0.011814  -0.012078
    27  C   -0.050338   0.022016  -0.004246   0.020362  -0.000065  -0.001020
    28  C    0.018989  -0.061096   0.014796  -0.002385  -0.000062   0.000130
    29  C   -0.004513   0.418588  -0.065553   0.019540   0.001116  -0.001120
    30  C    0.014561  -0.073624   0.453645  -0.106534  -0.022542   0.013283
    31  H    0.699664   0.000057  -0.000199  -0.030578   0.000089   0.008916
    32  H    0.000057   0.696594  -0.015496  -0.000445  -0.000027   0.000010
    33  H   -0.000199  -0.015496   0.684364  -0.018550   0.004594   0.000672
    34  C   -0.030578  -0.000445  -0.018550   5.292173   0.398177   0.182830
    35  H    0.000089  -0.000027   0.004594   0.398177   0.656665  -0.052333
    36  C    0.008916   0.000010   0.000672   0.182830  -0.052333   4.854563
    37  H    0.001488   0.000000  -0.000051  -0.014907   0.009177   0.348292
    38  C   -0.001850  -0.000000   0.000025  -0.045993  -0.007911   0.377030
    39  H    0.000153   0.000000  -0.000001   0.014132   0.000049  -0.037611
    40  H    0.000625  -0.000000  -0.000006  -0.014518   0.000069  -0.002274
    41  O   -0.000131   0.006062  -0.000112   0.000002  -0.000000  -0.000000
    42  O   -0.000007   0.000000  -0.000034   0.005762   0.008012  -0.050207
    43  H    0.000003   0.000000  -0.000005  -0.003191   0.001510   0.000458
    44  O    0.008276  -0.000074   0.000004  -0.000046   0.000001   0.000000
    45  C   -0.000783  -0.000030   0.000000   0.000020  -0.000000  -0.000001
    46  H   -0.000327  -0.000002   0.000000  -0.000000   0.000000  -0.000000
    47  H    0.000193   0.000002   0.000001   0.000000   0.000000   0.000000
    48  H    0.000150   0.000002   0.000000  -0.000001  -0.000000  -0.000000
              37         38         39         40         41         42
     1  C   -0.000039   0.000034  -0.000156   0.000002   0.000000   0.000002
     2  C    0.000099  -0.000816   0.000612   0.000019  -0.000000  -0.000057
     3  C   -0.001377   0.007493  -0.002362  -0.000171   0.000000   0.001444
     4  C   -0.000226  -0.004913   0.006838  -0.000405   0.000000  -0.000350
     5  C    0.010344  -0.002652  -0.000001   0.000060   0.000000   0.000011
     6  C   -0.001154   0.000064   0.000256  -0.000004   0.000000  -0.000001
     7  H   -0.000001  -0.000000   0.000017  -0.000001  -0.000000  -0.000002
     8  H    0.001460   0.000734  -0.000149  -0.000020   0.000000  -0.000001
     9  H    0.000072  -0.000004  -0.000004   0.000000  -0.000000   0.000000
    10  C   -0.000001  -0.000000  -0.000004   0.000000   0.000000   0.000000
    11  H    0.000000   0.000000  -0.000000   0.000000   0.000000   0.000000
    12  C    0.000000  -0.000000   0.000000   0.000000   0.000000   0.000000
    13  H    0.000000   0.000000  -0.000000   0.000000   0.000000   0.000000
    14  C   -0.000000  -0.000000   0.000000   0.000000   0.000000  -0.000000
    15  H    0.000000   0.000000   0.000000  -0.000000   0.000000   0.000000
    16  H   -0.000000  -0.000000  -0.000000   0.000000   0.000000  -0.000000
    17  O   -0.034391  -0.055797  -0.005690   0.004294  -0.000000  -0.004146
    18  O    0.000000   0.000000   0.000000   0.000000   0.000000  -0.000000
    19  H    0.000000  -0.000000  -0.000000   0.000000   0.000000   0.000000
    20  O   -0.000036   0.006273  -0.000143   0.000031  -0.000000  -0.013848
    21  C   -0.000005   0.000273  -0.000585   0.000008   0.000000   0.001535
    22  H   -0.000001  -0.000052  -0.000052   0.000003   0.000000   0.000818
    23  H   -0.000001   0.000077  -0.000008   0.000000  -0.000000  -0.000036
    24  H   -0.000002  -0.000349   0.000147  -0.000012  -0.000000   0.000044
    25  C   -0.020976  -0.008127  -0.000262   0.002437  -0.000321  -0.001698
    26  C    0.006811  -0.001044   0.000052   0.001871   0.006209   0.000112
    27  C    0.002034  -0.000096   0.000018  -0.000358  -0.113667   0.000005
    28  C   -0.000101   0.000001   0.000000  -0.000008   0.703834  -0.000000
    29  C    0.000054   0.000015  -0.000001  -0.000014  -0.083067  -0.000001
    30  C   -0.000546  -0.000357   0.000013  -0.000163   0.005426  -0.000066
    31  H    0.001488  -0.001850   0.000153   0.000625  -0.000131  -0.000007
    32  H    0.000000  -0.000000   0.000000  -0.000000   0.006062   0.000000
    33  H   -0.000051   0.000025  -0.000001  -0.000006  -0.000112  -0.000034
    34  C   -0.014907  -0.045993   0.014132  -0.014518   0.000002   0.005762
    35  H    0.009177  -0.007911   0.000049   0.000069  -0.000000   0.008012
    36  C    0.348292   0.377030  -0.037611  -0.002274  -0.000000  -0.050207
    37  H    0.693314  -0.027686  -0.003333   0.000616  -0.000000   0.004653
    38  C   -0.027686   4.522254   0.367127   0.351940  -0.000000   0.331340
    39  H   -0.003333   0.367127   0.704652  -0.032238   0.000000  -0.026057
    40  H    0.000616   0.351940  -0.032238   0.694322  -0.000000  -0.027133
    41  O   -0.000000  -0.000000   0.000000  -0.000000   7.714520  -0.000000
    42  O    0.004653   0.331340  -0.026057  -0.027133  -0.000000   7.780468
    43  H    0.000814  -0.052463  -0.003515   0.008180   0.000000   0.348311
    44  O   -0.000062   0.000001   0.000000  -0.000011  -0.001304  -0.000000
    45  C    0.000005  -0.000000   0.000000  -0.000002  -0.006543   0.000000
    46  H    0.000001  -0.000000  -0.000000   0.000000   0.000672   0.000000
    47  H   -0.000000   0.000000   0.000000  -0.000000   0.024056  -0.000000
    48  H   -0.000003   0.000000  -0.000000   0.000007  -0.000447  -0.000000
              43         44         45         46         47         48
     1  C   -0.000021   0.000000  -0.000000  -0.000000   0.000000   0.000000
     2  C    0.001315   0.000000   0.000000   0.000000   0.000000  -0.000000
     3  C   -0.002374   0.000000   0.000000  -0.000000   0.000000  -0.000000
     4  C   -0.007176  -0.000000  -0.000000   0.000000  -0.000000   0.000000
     5  C    0.000383   0.000000  -0.000000  -0.000000   0.000000   0.000000
     6  C   -0.000034   0.000000  -0.000000  -0.000000   0.000000   0.000000
     7  H   -0.000025   0.000000   0.000000   0.000000   0.000000  -0.000000
     8  H   -0.000027   0.000000  -0.000000  -0.000000   0.000000  -0.000000
     9  H    0.000001  -0.000000   0.000000   0.000000  -0.000000  -0.000000
    10  C    0.000001  -0.000000  -0.000000   0.000000  -0.000000  -0.000000
    11  H   -0.000000  -0.000000   0.000000   0.000000  -0.000000  -0.000000
    12  C   -0.000000   0.000000   0.000000  -0.000000   0.000000   0.000000
    13  H   -0.000000   0.000000  -0.000000  -0.000000   0.000000   0.000000
    14  C    0.000000   0.000000  -0.000000  -0.000000   0.000000   0.000000
    15  H   -0.000000   0.000000  -0.000000   0.000000   0.000000   0.000000
    16  H   -0.000000  -0.000000   0.000000   0.000000   0.000000  -0.000000
    17  O    0.012697  -0.000000   0.000000   0.000000  -0.000000  -0.000000
    18  O    0.000000   0.000000   0.000000   0.000000   0.000000   0.000000
    19  H    0.000000   0.000000   0.000000   0.000000   0.000000   0.000000
    20  O    0.042110  -0.000000  -0.000000   0.000000  -0.000000   0.000000
    21  C   -0.003203  -0.000000  -0.000000   0.000000  -0.000000   0.000000
    22  H   -0.002121  -0.000000  -0.000000  -0.000000  -0.000000   0.000000
    23  H    0.000589   0.000000  -0.000000  -0.000000   0.000000   0.000000
    24  H    0.000450  -0.000000  -0.000000   0.000000  -0.000000  -0.000000
    25  C    0.000042   0.004573  -0.000172   0.000009   0.000062  -0.000343
    26  C    0.000005  -0.084246   0.000871   0.000065  -0.000617   0.003170
    27  C    0.000001   0.396146  -0.050272   0.002381  -0.014528   0.009760
    28  C   -0.000000  -0.068421  -0.002772   0.000258   0.007334  -0.001504
    29  C   -0.000000   0.004921  -0.000321   0.000066   0.000375   0.000282
    30  C   -0.000015  -0.000250   0.000038  -0.000004  -0.000027  -0.000120
    31  H    0.000003   0.008276  -0.000783  -0.000327   0.000193   0.000150
    32  H    0.000000  -0.000074  -0.000030  -0.000002   0.000002   0.000002
    33  H   -0.000005   0.000004   0.000000   0.000000   0.000001   0.000000
    34  C   -0.003191  -0.000046   0.000020  -0.000000   0.000000  -0.000001
    35  H    0.001510   0.000001  -0.000000   0.000000   0.000000  -0.000000
    36  C    0.000458   0.000000  -0.000001  -0.000000   0.000000  -0.000000
    37  H    0.000814  -0.000062   0.000005   0.000001  -0.000000  -0.000003
    38  C   -0.052463   0.000001  -0.000000  -0.000000   0.000000   0.000000
    39  H   -0.003515   0.000000   0.000000  -0.000000   0.000000  -0.000000
    40  H    0.008180  -0.000011  -0.000002   0.000000  -0.000000   0.000007
    41  O    0.000000  -0.001304  -0.006543   0.000672   0.024056  -0.000447
    42  O    0.348311  -0.000000   0.000000   0.000000  -0.000000  -0.000000
    43  H    0.479625   0.000000   0.000000   0.000000   0.000000  -0.000000
    44  O    0.000000   7.870375   0.297227  -0.025184  -0.028123  -0.033892
    45  C    0.000000   0.297227   4.413556   0.391304   0.391965   0.379853
    46  H    0.000000  -0.025184   0.391304   0.643880  -0.022759  -0.024214
    47  H    0.000000  -0.028123   0.391965  -0.022759   0.643596  -0.035390
    48  H   -0.000000  -0.033892   0.379853  -0.024214  -0.035390   0.682195
 Mulliken charges:
               1
     1  C    0.122743
     2  C   -0.174754
     3  C    0.247953
     4  C    0.122539
     5  C   -0.033569
     6  C   -0.037743
     7  H   -0.015734
     8  H   -0.006873
     9  H   -0.015185
    10  C   -0.011292
    11  H   -0.016815
    12  C   -0.142050
    13  H    0.017532
    14  C    0.269034
    15  H    0.012534
    16  H    0.012263
    17  O   -0.360356
    18  O   -0.321628
    19  H    0.188809
    20  O   -0.364422
    21  C    0.177039
    22  H    0.049586
    23  H    0.043787
    24  H    0.040837
    25  C    0.089029
    26  C   -0.044208
    27  C    0.108837
    28  C    0.130222
    29  C   -0.059917
    30  C    0.046029
    31  H   -0.013926
    32  H   -0.004157
    33  H    0.008729
    34  C   -0.050519
    35  H    0.020568
    36  C    0.165065
    37  H    0.025665
    38  C    0.245429
    39  H    0.018105
    40  H    0.012852
    41  O   -0.255189
    42  O   -0.358875
    43  H    0.177675
    44  O   -0.339912
    45  C    0.186057
    46  H    0.033853
    47  H    0.033859
    48  H    0.020496
 Sum of Mulliken charges =  -0.00000
 Mulliken charges with hydrogens summed into heavy atoms:
               1
     1  C    0.122743
     2  C   -0.190488
     3  C    0.247953
     4  C    0.122539
     5  C   -0.040442
     6  C   -0.052928
    10  C   -0.028107
    12  C   -0.124518
    14  C    0.293831
    17  O   -0.360356
    18  O   -0.132819
    20  O   -0.364422
    21  C    0.311249
    25  C    0.089029
    26  C   -0.058134
    27  C    0.108837
    28  C    0.130222
    29  C   -0.064074
    30  C    0.054757
    34  C   -0.029951
    36  C    0.190730
    38  C    0.276386
    41  O   -0.255189
    42  O   -0.181201
    44  O   -0.339912
    45  C    0.274266
 Electronic spatial extent (au):  <R**2>=          28930.0045
 Charge=             -0.0000 electrons
 Dipole moment (field-independent basis, Debye):
    X=             -6.3849    Y=             -5.3561    Z=             -4.2166  Tot=              9.3399
 Quadrupole moment (field-independent basis, Debye-Ang):
   XX=           -123.0295   YY=            -94.0762   ZZ=           -167.1410
   XY=             39.3836   XZ=             -5.7801   YZ=              0.3677
 Traceless Quadrupole moment (field-independent basis, Debye-Ang):
   XX=              5.0528   YY=             34.0060   ZZ=            -39.0588
   XY=             39.3836   XZ=             -5.7801   YZ=              0.3677
 Octapole moment (field-independent basis, Debye-Ang**2):
  XXX=            997.5420  YYY=            626.2868  ZZZ=           -704.0428  XYY=              9.7528
  XXY=            160.8779  XXZ=           -334.2004  XZZ=            267.0646  YZZ=            423.9653
  YYZ=           -269.7318  XYZ=            -54.2313
 Hexadecapole moment (field-independent basis, Debye-Ang**3):
 XXXX=         -11063.1762 YYYY=          -8045.3043 ZZZZ=          -8980.7747 XXXY=          -4255.5366
 XXXZ=           -353.1078 YYYX=          -1461.9363 YYYZ=            177.4610 ZZZX=          -1816.3180
 ZZZY=           -809.1436 XXYY=          -1752.1478 XXZZ=          -3546.6106 YYZZ=          -4146.1678
 XXYZ=            328.1454 YYXZ=            301.5170 ZZXY=          -2025.5319
 N-N= 2.187095312127D+03 E-N=-7.230537915059D+03  KE= 1.213739892779D+03
 1\1\GINC-R7I0N26\FOpt\RB3LYP\def2SVP\C20H22O6\HMAYES\23-Feb-2020\0\\# 
 b3lyp/Def2SVP nosymm opt scf=(xqc,maxconventionalcycles=400) CPHF=Grid
 =Fine SCRF=(CPCM,Solvent=Water,Read) guess=mix EmpiricalDispersion=GD3
 BJ geom=connectivity\\obabel g_dimer_0.pdb -O g_dimer.pdb --confab --c
 onf10000 --original\\0,1\C,-4.7151548287,-5.7860958066,-0.8359415863\C
 ,-5.0535899976,-4.5002539827,-1.3050966742\C,-4.2791684278,-3.38249456
 19,-0.9824834673\C,-3.1286703986,-3.543180652,-0.1810926122\C,-2.79001
 71946,-4.8144093829,0.2856928627\C,-3.5695569521,-5.925647133,-0.03191
 22971\H,-5.9426305369,-4.3898923878,-1.9252268543\H,-1.892681903,-4.92
 09270645,0.8992554451\H,-3.2760803685,-6.9059320588,0.3461260595\C,-5.
 580197788,-6.9133918566,-1.214302114\H,-6.4387226558,-6.6609913146,-1.
 8429583141\C,-5.4244635308,-8.2018209846,-0.8708562393\H,-4.5857943067
 ,-8.5228991576,-0.2439270765\C,-6.3459700409,-9.3033873537,-1.29102390
 33\H,-5.7517155848,-10.0726877295,-1.8295765224\H,-6.7269439965,-9.810
 1699784,-0.3783177558\O,-2.3462140003,-2.4501509724,0.0869929556\O,-7.
 397068759,-8.8057733695,-2.087467163\H,-7.9609151428,-9.5486513893,-2.
 3380257234\O,-4.55802846,-2.112683339,-1.3910415175\C,-5.737271989,-1.
 8736020825,-2.1469696487\H,-5.7700160373,-0.7932391068,-2.332918187\H,
 -5.7070240538,-2.4081783138,-3.1098742142\H,-6.6383070743,-2.176295519
 ,-1.588977567\C,-0.5910329186,-0.5999849615,2.6260215183\C,-0.79900339
 33,-1.2310452909,3.9174416026\C,-0.0833696138,-0.8793341426,5.01867539
 82\C,0.9798723812,0.1631468763,4.9380612535\C,1.1454497895,0.810383633
 8,3.6299484789\C,0.4209934415,0.4456312543,2.5475128037\H,-1.543880697
 1,-2.0199041787,4.0292006386\H,1.9105162574,1.5881808496,3.5764261649\
 H,0.5778631296,0.9322341107,1.5816845286\C,-1.3049009082,-0.9157407295
 ,1.5095432657\H,-1.0963236322,-0.3737060333,0.5832356476\C,-2.42059491
 42,-1.9025405658,1.4159232571\H,-2.3040274865,-2.7113236328,2.15715748
 45\C,-3.7959685286,-1.2401826217,1.6338813869\H,-4.5647552609,-2.03813
 74929,1.6389578775\H,-3.8050501585,-0.7707723179,2.6300163694\O,1.6942
 857304,0.4460901834,5.9003974692\O,-4.0613942363,-0.2562030162,0.67018
 96972\H,-4.1196718761,-0.7289211444,-0.180738796\O,-0.2783526048,-1.56
 16803309,6.1717681483\C,-0.4547543907,-0.8334792141,7.389276191\H,-0.8
 170335518,-1.5600411501,8.128727183\H,0.4863139591,-0.3839746225,7.729
 5465816\H,-1.2139764891,-0.0429399648,7.2640679646\\Version=ES64L-G16R
 evB.01\HF=-1225.8316627\RMSD=6.080e-09\RMSF=1.162e-06\Dipole=-2.511994
 7,-2.1072658,-1.6589337\Quadrupole=3.7566185,25.2826366,-29.0392551,29
 .2807324,-4.2973966,0.2733676\PG=C01 [X(C20H22O6)]\\@

 Job cpu time:       0 days 19 hours  9 minutes 50.4 seconds.
 Elapsed time:       0 days  0 hours 34 minutes 22.8 seconds.
 File lengths (MBytes):  RWF=    550 Int=      0 D2E=      0 Chk=     26 Scr=      1
 Normal termination of Gaussian 16 at Sun Feb 23 13:03:48 2020.
