 Entering Gaussian System, Link 0=g16
 Initial command:
 /nopt/nrel/apps/gaussian/g16B/g16/l1.exe "/dev/shm/Gau-285366.inp" -scrdir="/dev/shm/"
 Default is to use a total of  36 processors:
                               36 via shared-memory
                                1 via Linda
 Entering Link 1 = /nopt/nrel/apps/gaussian/g16B/g16/l1.exe PID=    285367.
...
 
 ******************************************
 Gaussian 16:  ES64L-G16RevB.01 20-Dec-2017
                25-Sep-2019 
 ******************************************
 %RWF=/dev/shm/,5GB,/tmp/scratch/1439410/,-1
 %NoSave
 %OldChk=hexyl_acrylate_419.chk
 %Chk=/dev/shm/hexyl_acrylate_419.chk
 Copying data from "hexyl_acrylate_419.chk" to current chk file "/dev/shm/hexyl_acrylate_419.chk"
 IOpt=  2 FromEx=T IUOpen= 4 IOptOp= 5 NList=   0 IFRang= 0 IUIn= 4 IUOut= 2.
 Default route: CacheSize=180224 MaxDisk=256GB
 ----------------------------------------------------------------------
 # m062x/Def2TZVP nosymm scf=xqc opt=CalcAll CPHF=Grid=Fine SCRF=(Solve
 nt=EthylEthanoate,Read) geom=allcheck guess=read
 ----------------------------------------------------------------------
 1/4=180224,10=4,18=20,19=15,26=3,29=7,38=1,40=2/1,3;
 2/4=180224,9=110,12=2,15=1,40=1/2;
 3/4=180224,5=44,7=101,11=2,14=-4,25=1,30=1,70=2203,71=2,72=118,74=-55,116=-2,140=1/1,2,3;
 4/4=180224,5=1/1;
 5/4=180224,5=2,8=3,13=1,38=6,53=118/2,8;
 8/4=180224,6=4,10=90,11=11/1;
 11/4=180224,6=1,8=1,9=11,15=111,16=1,31=1/1,2,10;
 10/4=180224,6=1,31=1,60=4/2;
 6/4=180224,7=2,8=2,9=2,10=2,18=1,28=1/1;
 7/4=180224,10=1,25=1,30=1/1,2,3,16;
 1/4=180224,10=4,18=20,19=15,26=3/3(3);
 2/4=180224,9=110,15=1/2;
 7/4=180224,8=1,9=1,25=1,30=1,44=-1/16;
 99/4=180224/99;
 2/4=180224,9=110,15=1/2;
 3/4=180224,5=44,7=101,11=2,14=-2,25=1,30=1,70=2205,71=2,72=118,74=-55,140=1/1,2,3;
 4/4=180224,5=5,16=3,69=1/1;
 5/4=180224,5=2,8=3,13=1,38=5,53=118/2,8;
 8/4=180224,6=4,10=90,11=11/1;
 11/4=180224,6=1,8=1,9=11,15=111,16=1,31=1/1,2,10;
 10/4=180224,6=1,31=1,60=4/2;
 7/4=180224,10=1,25=1,30=1/1,2,3,16;
 1/4=180224,10=4,18=20,19=15,26=3/3(-8);
 2/4=180224,9=110,15=1/2;
 6/4=180224,7=2,8=2,9=2,10=2,18=1,19=2,28=1/1;
 7/4=180224,8=1,9=1,25=1,30=1,44=-1/16;
 99/4=180224/99;
 Structure from the checkpoint file:  "/dev/shm/hexyl_acrylate_419.chk"
 ----------------------------------------------------------------------
 obabel hexyl_acrylate_0.pdb -O hexyl_acrylate.pdb --confab --conf10000
 ----------------------------------------------------------------------
 Charge =  0 Multiplicity = 1
 Redundant internal coordinates found in file.  (old form).
 C,0,1.7287356336,2.7193331741,0.9368373435
 O,0,2.2428611924,2.4938532072,-0.1416916022
 O,0,0.4094979655,2.7871797108,1.1511702483
 C,0,2.4745901811,2.957117515,2.2004298196
 H,0,1.8859594455,3.1799437034,3.0802784167
 C,0,3.7966980465,2.8893891673,2.2228378686
 H,0,4.3486958586,2.661826322,1.3191649888
 H,0,4.3551152458,3.0575375889,3.1337139807
 C,0,-0.4892917795,2.6232763229,0.0405794897
 H,0,0.0926216772,2.5019140402,-0.870904197
 H,0,-1.0508062228,1.707840324,0.225622313
 C,0,-1.4090544385,3.8259733942,-0.0280246838
 H,0,-1.9676707069,3.8982095418,0.9077322236
 H,0,-2.1408118829,3.6344379999,-0.8166161048
 C,0,-0.6731857188,5.1399140801,-0.2875527244
 H,0,-0.0172127505,5.3507992676,0.5612646187
 H,0,-1.4092763424,5.9476896647,-0.3160306838
 C,0,0.1508895586,5.1657935067,-1.5752923703
 H,0,1.0091198153,4.4922702292,-1.4846990286
 H,0,0.5672897554,6.1698014883,-1.6991305643
 C,0,-0.6405334052,4.8051636339,-2.8287379847
 H,0,-1.5713818068,5.3814929025,-2.846528989
 H,0,-0.9324482769,3.7519099982,-2.7944556361
 C,0,0.1528934784,5.0629024458,-4.1036479008
 H,0,1.090328186,4.5029617498,-4.0935834962
 H,0,-0.4053758363,4.7666386692,-4.9922401086
 H,0,0.4007531278,6.1218303522,-4.1984952363
 Recover connectivity data from disk.

 GradGradGradGradGradGradGradGradGradGradGradGradGradGradGradGradGradGrad
 Berny optimization.
 Initialization pass.
                           ----------------------------
                           !    Initial Parameters    !
                           ! (Angstroms and Degrees)  !
 --------------------------                            --------------------------
 ! Name  Definition              Value          Derivative Info.                !
 --------------------------------------------------------------------------------
 ! R1    R(1,2)                  1.2159         calculate D2E/DX2 analytically  !
 ! R2    R(1,3)                  1.3383         calculate D2E/DX2 analytically  !
 ! R3    R(1,4)                  1.4864         calculate D2E/DX2 analytically  !
 ! R4    R(3,9)                  1.4381         calculate D2E/DX2 analytically  !
 ! R5    R(4,5)                  1.0818         calculate D2E/DX2 analytically  !
 ! R6    R(4,6)                  1.324          calculate D2E/DX2 analytically  !
 ! R7    R(6,7)                  1.0831         calculate D2E/DX2 analytically  !
 ! R8    R(6,8)                  1.0816         calculate D2E/DX2 analytically  !
 ! R9    R(9,10)                 1.0882         calculate D2E/DX2 analytically  !
 ! R10   R(9,11)                 1.0898         calculate D2E/DX2 analytically  !
 ! R11   R(9,12)                 1.5156         calculate D2E/DX2 analytically  !
 ! R12   R(12,13)                1.0922         calculate D2E/DX2 analytically  !
 ! R13   R(12,14)                1.0927         calculate D2E/DX2 analytically  !
 ! R14   R(12,15)                1.5282         calculate D2E/DX2 analytically  !
 ! R15   R(15,16)                1.0933         calculate D2E/DX2 analytically  !
 ! R16   R(15,17)                1.0932         calculate D2E/DX2 analytically  !
 ! R17   R(15,18)                1.5291         calculate D2E/DX2 analytically  !
 ! R18   R(18,19)                1.0947         calculate D2E/DX2 analytically  !
 ! R19   R(18,20)                1.094          calculate D2E/DX2 analytically  !
 ! R20   R(18,21)                1.5256         calculate D2E/DX2 analytically  !
 ! R21   R(21,22)                1.095          calculate D2E/DX2 analytically  !
 ! R22   R(21,23)                1.0935         calculate D2E/DX2 analytically  !
 ! R23   R(21,24)                1.5236         calculate D2E/DX2 analytically  !
 ! R24   R(24,25)                1.092          calculate D2E/DX2 analytically  !
 ! R25   R(24,26)                1.0904         calculate D2E/DX2 analytically  !
 ! R26   R(24,27)                1.0917         calculate D2E/DX2 analytically  !
 ! A1    A(2,1,3)              124.6315         calculate D2E/DX2 analytically  !
 ! A2    A(2,1,4)              124.8577         calculate D2E/DX2 analytically  !
 ! A3    A(3,1,4)              110.5108         calculate D2E/DX2 analytically  !
 ! A4    A(1,3,9)              119.1202         calculate D2E/DX2 analytically  !
 ! A5    A(1,4,5)              116.828          calculate D2E/DX2 analytically  !
 ! A6    A(1,4,6)              120.4806         calculate D2E/DX2 analytically  !
 ! A7    A(5,4,6)              122.691          calculate D2E/DX2 analytically  !
 ! A8    A(4,6,7)              120.3667         calculate D2E/DX2 analytically  !
 ! A9    A(4,6,8)              121.4565         calculate D2E/DX2 analytically  !
 ! A10   A(7,6,8)              118.1768         calculate D2E/DX2 analytically  !
 ! A11   A(3,9,10)             108.9874         calculate D2E/DX2 analytically  !
 ! A12   A(3,9,11)             106.6572         calculate D2E/DX2 analytically  !
 ! A13   A(3,9,12)             108.8923         calculate D2E/DX2 analytically  !
 ! A14   A(10,9,11)            108.9101         calculate D2E/DX2 analytically  !
 ! A15   A(10,9,12)            112.0305         calculate D2E/DX2 analytically  !
 ! A16   A(11,9,12)            111.1979         calculate D2E/DX2 analytically  !
 ! A17   A(9,12,13)            108.9098         calculate D2E/DX2 analytically  !
 ! A18   A(9,12,14)            107.4553         calculate D2E/DX2 analytically  !
 ! A19   A(9,12,15)            113.4378         calculate D2E/DX2 analytically  !
 ! A20   A(13,12,14)           106.7019         calculate D2E/DX2 analytically  !
 ! A21   A(13,12,15)           109.5678         calculate D2E/DX2 analytically  !
 ! A22   A(14,12,15)           110.5251         calculate D2E/DX2 analytically  !
 ! A23   A(12,15,16)           108.8396         calculate D2E/DX2 analytically  !
 ! A24   A(12,15,17)           108.3913         calculate D2E/DX2 analytically  !
 ! A25   A(12,15,18)           114.6515         calculate D2E/DX2 analytically  !
 ! A26   A(16,15,17)           106.3613         calculate D2E/DX2 analytically  !
 ! A27   A(16,15,18)           109.1006         calculate D2E/DX2 analytically  !
 ! A28   A(17,15,18)           109.1738         calculate D2E/DX2 analytically  !
 ! A29   A(15,18,19)           110.0237         calculate D2E/DX2 analytically  !
 ! A30   A(15,18,20)           108.4217         calculate D2E/DX2 analytically  !
 ! A31   A(15,18,21)           114.1011         calculate D2E/DX2 analytically  !
 ! A32   A(19,18,20)           105.9989         calculate D2E/DX2 analytically  !
 ! A33   A(19,18,21)           109.2231         calculate D2E/DX2 analytically  !
 ! A34   A(20,18,21)           108.7472         calculate D2E/DX2 analytically  !
 ! A35   A(18,21,22)           109.2646         calculate D2E/DX2 analytically  !
 ! A36   A(18,21,23)           109.9018         calculate D2E/DX2 analytically  !
 ! A37   A(18,21,24)           112.1701         calculate D2E/DX2 analytically  !
 ! A38   A(22,21,23)           106.2925         calculate D2E/DX2 analytically  !
 ! A39   A(22,21,24)           109.8812         calculate D2E/DX2 analytically  !
 ! A40   A(23,21,24)           109.1591         calculate D2E/DX2 analytically  !
 ! A41   A(21,24,25)           110.6465         calculate D2E/DX2 analytically  !
 ! A42   A(21,24,26)           111.6734         calculate D2E/DX2 analytically  !
 ! A43   A(21,24,27)           110.7951         calculate D2E/DX2 analytically  !
 ! A44   A(25,24,26)           107.9211         calculate D2E/DX2 analytically  !
 ! A45   A(25,24,27)           107.6548         calculate D2E/DX2 analytically  !
 ! A46   A(26,24,27)           107.9981         calculate D2E/DX2 analytically  !
 ! D1    D(2,1,3,9)             -1.8445         calculate D2E/DX2 analytically  !
 ! D2    D(4,1,3,9)            178.1904         calculate D2E/DX2 analytically  !
 ! D3    D(2,1,4,5)            177.9296         calculate D2E/DX2 analytically  !
 ! D4    D(2,1,4,6)             -2.2815         calculate D2E/DX2 analytically  !
 ! D5    D(3,1,4,5)             -2.1054         calculate D2E/DX2 analytically  !
 ! D6    D(3,1,4,6)            177.6835         calculate D2E/DX2 analytically  !
 ! D7    D(1,3,9,10)            -2.4808         calculate D2E/DX2 analytically  !
 ! D8    D(1,3,9,11)           114.951          calculate D2E/DX2 analytically  !
 ! D9    D(1,3,9,12)          -124.9621         calculate D2E/DX2 analytically  !
 ! D10   D(1,4,6,7)              0.1287         calculate D2E/DX2 analytically  !
 ! D11   D(1,4,6,8)           -179.8716         calculate D2E/DX2 analytically  !
 ! D12   D(5,4,6,7)            179.9049         calculate D2E/DX2 analytically  !
 ! D13   D(5,4,6,8)             -0.0954         calculate D2E/DX2 analytically  !
 ! D14   D(3,9,12,13)          -59.4863         calculate D2E/DX2 analytically  !
 ! D15   D(3,9,12,14)         -174.711          calculate D2E/DX2 analytically  !
 ! D16   D(3,9,12,15)           62.8153         calculate D2E/DX2 analytically  !
 ! D17   D(10,9,12,13)         179.8863         calculate D2E/DX2 analytically  !
 ! D18   D(10,9,12,14)          64.6616         calculate D2E/DX2 analytically  !
 ! D19   D(10,9,12,15)         -57.8121         calculate D2E/DX2 analytically  !
 ! D20   D(11,9,12,13)          57.7512         calculate D2E/DX2 analytically  !
 ! D21   D(11,9,12,14)         -57.4735         calculate D2E/DX2 analytically  !
 ! D22   D(11,9,12,15)        -179.9472         calculate D2E/DX2 analytically  !
 ! D23   D(9,12,15,16)         -64.4413         calculate D2E/DX2 analytically  !
 ! D24   D(9,12,15,17)        -179.7252         calculate D2E/DX2 analytically  !
 ! D25   D(9,12,15,18)          58.0388         calculate D2E/DX2 analytically  !
 ! D26   D(13,12,15,16)         57.4945         calculate D2E/DX2 analytically  !
 ! D27   D(13,12,15,17)        -57.7894         calculate D2E/DX2 analytically  !
 ! D28   D(13,12,15,18)        179.9746         calculate D2E/DX2 analytically  !
 ! D29   D(14,12,15,16)        174.8015         calculate D2E/DX2 analytically  !
 ! D30   D(14,12,15,17)         59.5176         calculate D2E/DX2 analytically  !
 ! D31   D(14,12,15,18)        -62.7184         calculate D2E/DX2 analytically  !
 ! D32   D(12,15,18,19)        -68.8316         calculate D2E/DX2 analytically  !
 ! D33   D(12,15,18,20)        175.664          calculate D2E/DX2 analytically  !
 ! D34   D(12,15,18,21)         54.3248         calculate D2E/DX2 analytically  !
 ! D35   D(16,15,18,19)         53.5072         calculate D2E/DX2 analytically  !
 ! D36   D(16,15,18,20)        -61.9972         calculate D2E/DX2 analytically  !
 ! D37   D(16,15,18,21)        176.6636         calculate D2E/DX2 analytically  !
 ! D38   D(17,15,18,19)        169.3579         calculate D2E/DX2 analytically  !
 ! D39   D(17,15,18,20)         53.8535         calculate D2E/DX2 analytically  !
 ! D40   D(17,15,18,21)        -67.4857         calculate D2E/DX2 analytically  !
 ! D41   D(15,18,21,22)         48.5613         calculate D2E/DX2 analytically  !
 ! D42   D(15,18,21,23)        -67.7077         calculate D2E/DX2 analytically  !
 ! D43   D(15,18,21,24)        170.6627         calculate D2E/DX2 analytically  !
 ! D44   D(19,18,21,22)        172.1511         calculate D2E/DX2 analytically  !
 ! D45   D(19,18,21,23)         55.882          calculate D2E/DX2 analytically  !
 ! D46   D(19,18,21,24)        -65.7475         calculate D2E/DX2 analytically  !
 ! D47   D(20,18,21,22)        -72.5974         calculate D2E/DX2 analytically  !
 ! D48   D(20,18,21,23)        171.1335         calculate D2E/DX2 analytically  !
 ! D49   D(20,18,21,24)         49.504          calculate D2E/DX2 analytically  !
 ! D50   D(18,21,24,25)         57.5677         calculate D2E/DX2 analytically  !
 ! D51   D(18,21,24,26)        177.8052         calculate D2E/DX2 analytically  !
 ! D52   D(18,21,24,27)        -61.7583         calculate D2E/DX2 analytically  !
 ! D53   D(22,21,24,25)        179.3173         calculate D2E/DX2 analytically  !
 ! D54   D(22,21,24,26)        -60.4452         calculate D2E/DX2 analytically  !
 ! D55   D(22,21,24,27)         59.9912         calculate D2E/DX2 analytically  !
 ! D56   D(23,21,24,25)        -64.4861         calculate D2E/DX2 analytically  !
 ! D57   D(23,21,24,26)         55.7515         calculate D2E/DX2 analytically  !
 ! D58   D(23,21,24,27)        176.1879         calculate D2E/DX2 analytically  !
 --------------------------------------------------------------------------------
 Trust Radius=3.00D-01 FncErr=1.00D-07 GrdErr=1.00D-06 EigMax=2.50D+02 EigMin=1.00D-04
 Number of steps in this run=    140 maximum allowed number of steps=    162.
 GradGradGradGradGradGradGradGradGradGradGradGradGradGradGradGradGradGrad

                          Input orientation:                          
 ---------------------------------------------------------------------
 Center     Atomic      Atomic             Coordinates (Angstroms)
 Number     Number       Type             X           Y           Z
 ---------------------------------------------------------------------
      1          6           0        1.728736    2.719333    0.936837
      2          8           0        2.242861    2.493853   -0.141692
      3          8           0        0.409498    2.787180    1.151170
      4          6           0        2.474590    2.957118    2.200430
      5          1           0        1.885959    3.179944    3.080278
      6          6           0        3.796698    2.889389    2.222838
      7          1           0        4.348696    2.661826    1.319165
      8          1           0        4.355115    3.057538    3.133714
      9          6           0       -0.489292    2.623276    0.040579
     10          1           0        0.092622    2.501914   -0.870904
     11          1           0       -1.050806    1.707840    0.225622
     12          6           0       -1.409054    3.825973   -0.028025
     13          1           0       -1.967671    3.898210    0.907732
     14          1           0       -2.140812    3.634438   -0.816616
     15          6           0       -0.673186    5.139914   -0.287553
     16          1           0       -0.017213    5.350799    0.561265
     17          1           0       -1.409276    5.947690   -0.316031
     18          6           0        0.150890    5.165794   -1.575292
     19          1           0        1.009120    4.492270   -1.484699
     20          1           0        0.567290    6.169801   -1.699131
     21          6           0       -0.640533    4.805164   -2.828738
     22          1           0       -1.571382    5.381493   -2.846529
     23          1           0       -0.932448    3.751910   -2.794456
     24          6           0        0.152893    5.062902   -4.103648
     25          1           0        1.090328    4.502962   -4.093583
     26          1           0       -0.405376    4.766639   -4.992240
     27          1           0        0.400753    6.121830   -4.198495
 ---------------------------------------------------------------------
                    Distance matrix (angstroms):
                    1          2          3          4          5
     1  C    0.000000
     2  O    1.215891   0.000000
     3  O    1.338256   2.262466   0.000000
     4  C    1.486441   2.398717   2.322591   0.000000
     5  H    2.198004   3.313486   2.460825   1.081791   0.000000
     6  C    2.441144   2.856896   3.554159   1.324031   2.114367
     7  H    2.648334   2.568435   3.944771   2.091912   3.071650
     8  H    3.440715   3.937974   4.423965   2.101780   2.472765
     9  C    2.394191   2.741283   1.438089   3.682526   3.897623
    10  H    2.447870   2.270539   2.066536   3.913320   4.391768
    11  H    3.042170   3.406021   2.038161   4.229536   4.352096
    12  C    3.464295   3.888953   2.403482   4.561098   4.575589
    13  H    3.879951   4.560930   2.635257   4.721271   4.481777
    14  H    4.345735   4.579634   3.330782   5.555472   5.622032
    15  C    3.623199   3.940335   2.962682   4.567620   4.661866
    16  H    3.180252   3.710017   2.664998   3.824350   3.831463
    17  H    4.673230   5.029661   3.930578   5.510038   5.482145
    18  C    3.845200   3.683860   3.627434   4.953172   5.350552
    19  H    3.086258   2.705450   3.196042   4.252584   4.830121
    20  H    4.494776   4.329636   4.426200   5.400528   5.789723
    21  C    4.913622   4.569063   4.584157   6.197725   6.628799
    22  H    5.682581   5.495731   5.161002   6.907914   7.206044
    23  H    4.697942   4.324633   4.277790   6.098236   6.540877
    24  C    5.777723   5.163824   5.732179   7.040313   7.626129
    25  H    5.375317   4.580644   5.560115   6.627248   7.338099
    26  H    6.625696   5.975494   6.505672   7.956323   8.540104
    27  H    6.301759   5.745715   6.303879   7.433872   7.990061
                    6          7          8          9         10
     6  C    0.000000
     7  H    1.083103   0.000000
     8  H    1.081572   1.857207   0.000000
     9  C    4.816926   5.004237   5.764056   0.000000
    10  H    4.841648   4.789169   5.874907   1.088189   0.000000
    11  H    5.374312   5.591113   6.285115   1.089753   1.772104
    12  C    5.748342   6.026761   6.619119   1.515635   2.172236
    13  H    5.997930   6.449373   6.755690   2.136121   3.059084
    14  H    6.711736   6.900815   7.624631   2.117723   2.504752
    15  C    5.598820   5.825955   6.428465   2.544593   2.808167
    16  H    4.833765   5.183256   5.567207   2.816621   3.190504
    17  H    6.549903   6.828251   7.313134   3.467747   3.799599
    18  C    5.735829   5.680608   6.655449   3.079816   2.756050
    19  H    4.907713   4.729159   5.880806   2.839868   2.275573
    20  H    6.047480   5.976205   6.884054   4.089107   3.790075
    21  C    6.991254   6.833111   7.972549   3.607837   3.110561
    22  H    7.792647   7.732846   8.734268   4.136916   3.868330
    23  H    6.948525   6.782377   7.973937   3.083444   2.512630
    24  C    7.617473   7.264766   8.605787   4.851680   4.124673
    25  H    7.058699   6.580622   8.061136   4.808297   3.922406
    26  H    8.557969   8.177119   9.571543   5.470861   4.728889
    27  H    7.950763   7.615934   8.876270   5.567927   4.926622
                   11         12         13         14         15
    11  H    0.000000
    12  C    2.163138   0.000000
    13  H    2.470553   1.092205   0.000000
    14  H    2.446661   1.092717   1.752978   0.000000
    15  C    3.490713   1.528168   2.155511   2.168016   0.000000
    16  H    3.801595   2.146993   2.456490   3.058451   1.093281
    17  H    4.289314   2.141174   2.451483   2.477269   1.093225
    18  C    4.079805   2.573437   3.501497   2.858765   1.529066
    19  H    3.862841   2.900589   3.864960   3.332309   2.163967
    20  H    5.121719   3.491713   4.287410   3.813229   2.142895
    21  C    4.369308   3.064871   4.067563   2.769489   2.563347
    22  H    4.817140   3.223346   4.056064   2.738065   2.722770
    23  H    3.648712   2.808163   3.846984   2.320731   2.877210
    24  C    5.607844   4.536560   5.564821   4.255135   3.905243
    25  H    5.572495   4.820165   5.893237   4.683280   4.242825
    26  H    6.082673   5.151277   6.164788   4.661486   4.727065
    27  H    6.415851   5.093053   6.052064   4.907523   4.172886
                   16         17         18         19         20
    16  H    0.000000
    17  H    1.750362   0.000000
    18  C    2.151130   2.152027   0.000000
    19  H    2.444667   3.054942   1.094715   0.000000
    20  H    2.474226   2.422625   1.093964   1.747943   0.000000
    21  C    3.489751   2.865315   1.525625   2.150744   2.144082
    22  H    3.745590   2.598130   2.151462   3.050293   2.551837
    23  H    3.828180   3.345356   2.158482   2.456274   3.048795
    24  C    4.676882   4.191571   2.530449   2.813830   2.679301
    25  H    4.859330   4.754489   2.768335   2.610170   2.964006
    26  H    5.597618   4.926422   3.484866   3.791955   3.709382
    27  H    4.839886   4.287198   2.803147   3.223394   2.505366
                   21         22         23         24         25
    21  C    0.000000
    22  H    1.094966   0.000000
    23  H    1.093496   1.751139   0.000000
    24  C    1.523598   2.157539   2.147243   0.000000
    25  H    2.164958   3.067843   2.518618   1.091979   0.000000
    26  H    2.176586   2.518272   2.477446   1.090428   1.764721
    27  H    2.166593   2.503044   3.060274   1.091677   1.762741
                   26         27
    26  H    0.000000
    27  H    1.765338   0.000000
 Symmetry turned off by external request.
 Stoichiometry    C9H16O2
 Framework group  C1[X(C9H16O2)]
 Deg. of freedom    75
 Full point group                 C1      NOp   1
 Rotational constants (GHZ):           1.7465420           0.5333428           0.4683248
 Standard basis: def2TZVP (5D, 7F)
   437 basis functions,   689 primitive gaussians,   492 cartesian basis functions
    43 alpha electrons       43 beta electrons
       nuclear repulsion energy       630.7573480975 Hartrees.
 NAtoms=   27 NActive=   27 NUniq=   27 SFac= 1.00D+00 NAtFMM=   60 NAOKFM=F Big=F
 Integral buffers will be    131072 words long.
 Raffenetti 2 integral format.
 Two-electron integral symmetry is turned off.
 Force inversion solution in PCM.
 Using the following non-standard input for PCM:
 PDENS=7.0
 --- end of non-standard input.
 Force inversion solution in PCM.
 ------------------------------------------------------------------------------
 Polarizable Continuum Model (PCM)
 =================================
 Model                : PCM.
 Atomic radii         : UFF (Universal Force Field).
 Polarization charges : Total charges.
 Charge compensation  : None.
 Solution method      : Matrix inversion.
 Cavity type          : Scaled VdW (van der Waals Surface) (Alpha=1.100).
 Cavity algorithm     : GePol (No added spheres)
                        Default sphere list used, NSphG=   27.
                        Lebedev-Laikov grids with approx.  7.0 points / Ang**2.
                        Smoothing algorithm: York/Karplus (Gamma=1.0000).
                        Polarization charges: spherical gaussians, with
                                              point-specific exponents (IZeta= 3).
                        Self-potential: point-specific (ISelfS= 7).
                        Self-field    : sphere-specific E.n sum rule (ISelfD= 2).
 1st derivatives      : Analytical E(r).r(x)/FMM algorithm (CHGder, D1EAlg=3).
                        Cavity 1st derivative terms included.
 2nd derivatives      : Analytical E(r).r(xy)/FMM algorithm (CHGder, D2EAlg=3).
                        Cavity 2nd derivative terms included.
 Solvent              : EthylEthanoate, Eps=   5.986700 Eps(inf)=   1.883207
 ------------------------------------------------------------------------------
 One-electron integrals computed using PRISM.
   1 Symmetry operations used in ECPInt.
 ECPInt:  NShTT=   17205 NPrTT=   50376 LenC2=   16080 LenP2D=   35765.
 LDataN:  DoStor=T MaxTD1= 6 Len=  172
 NBasis=   437 RedAO= T EigKep=  1.08D-04  NBF=   437
 NBsUse=   437 1.00D-06 EigRej= -1.00D+00 NBFU=   437
 Initial guess from the checkpoint file:  "/dev/shm/hexyl_acrylate_419.chk"
 B after Tr=     0.000000    0.000000    0.000000
         Rot=    1.000000    0.000000    0.000000    0.000000 Ang=   0.00 deg.
 Requested convergence on RMS density matrix=1.00D-08 within  32 cycles.
 Requested convergence on MAX density matrix=1.00D-06.
 Requested convergence on             energy=1.00D-06.
 No special actions if energy rises.
 Inv3:  Mode=1 IEnd=    27072048.
 Iteration    1 A*A^-1 deviation from unit magnitude is 3.11D-15 for    968.
 Iteration    1 A*A^-1 deviation from orthogonality  is 1.41D-15 for   2786   2119.
 Iteration    1 A^-1*A deviation from unit magnitude is 3.66D-15 for    968.
 Iteration    1 A^-1*A deviation from orthogonality  is 2.50D-15 for   2092   2053.
 Error on total polarization charges =  0.01247
 SCF Done:  E(RM062X) =  -503.003021005     A.U. after    1 cycles
            NFock=  1  Conv=0.28D-08     -V/T= 2.0050
 QCSCF skips out because SCF is already converged.
 DoSCS=F DFT=T ScalE2(SS,OS)=  1.000000  1.000000
 Range of M.O.s used for correlation:     1   437
 NBasis=   437 NAE=    43 NBE=    43 NFC=     0 NFV=     0
 NROrb=    437 NOA=    43 NOB=    43 NVA=   394 NVB=   394

 **** Warning!!: The largest alpha MO coefficient is  0.16577314D+02

   1 Symmetry operations used in ECPInt.
 ECPInt:  NShTT=   17205 NPrTT=   50376 LenC2=   16080 LenP2D=   35765.
 LDataN:  DoStor=T MaxTD1= 7 Len=  274
 Number of processors reduced to  30 by ecpmxn.
 Symmetrizing basis deriv contribution to polar:
 IMax=3 JMax=2 DiffMx= 0.00D+00
 G2DrvN: will do    28 centers at a time, making    1 passes.
 Calling FoFCou, ICntrl=  3107 FMM=F I1Cent=   0 AccDes= 0.00D+00.
 NEqPCM:  Using equilibrium solvation (IEInf=0, Eps=   5.9867, EpsInf=   1.8832)
 G2PCM: DoFxE=T DoFxN=T DoGrad=T DoDP/DQ/DG/TGxP=FFFF NFrqRd=   0 IEInf=0 SqF1=F DoCFld=F IF1Alg=4.
 End of G2Drv F.D. properties file   721 does not exist.
 End of G2Drv F.D. properties file   722 does not exist.
 End of G2Drv F.D. properties file   788 does not exist.
          IDoAtm=111111111111111111111111111
 NEqPCM:  Using equilibrium solvation (IEInf=0, Eps=   5.9867, EpsInf=   1.8832)
          Differentiating once with respect to electric field.
                with respect to dipole field.
          Differentiating once with respect to nuclear coordinates.
 CalDSu exits because no D1Ps are significant.
          There are    84 degrees of freedom in the 1st order CPHF.  IDoFFX=6 NUNeed=     3.
     81 vectors produced by pass  0 Test12= 2.02D-14 1.19D-09 XBig12= 6.52D+01 3.99D+00.
 AX will form    81 AO Fock derivatives at one time.
     81 vectors produced by pass  1 Test12= 2.02D-14 1.19D-09 XBig12= 4.56D+00 4.13D-01.
     81 vectors produced by pass  2 Test12= 2.02D-14 1.19D-09 XBig12= 1.18D-01 5.52D-02.
     81 vectors produced by pass  3 Test12= 2.02D-14 1.19D-09 XBig12= 1.30D-03 3.83D-03.
     81 vectors produced by pass  4 Test12= 2.02D-14 1.19D-09 XBig12= 6.21D-06 2.18D-04.
     81 vectors produced by pass  5 Test12= 2.02D-14 1.19D-09 XBig12= 2.85D-08 1.53D-05.
     48 vectors produced by pass  6 Test12= 2.02D-14 1.19D-09 XBig12= 1.29D-10 7.47D-07.
      6 vectors produced by pass  7 Test12= 2.02D-14 1.19D-09 XBig12= 4.40D-13 7.07D-08.
      3 vectors produced by pass  8 Test12= 2.02D-14 1.19D-09 XBig12= 1.54D-15 6.78D-09.
 InvSVY:  IOpt=1 It=  1 EMax= 3.55D-15
 Solved reduced A of dimension   543 with    84 vectors.
 Isotropic polarizability for W=    0.000000      136.31 Bohr**3.
 End of Minotr F.D. properties file   721 does not exist.
 End of Minotr F.D. properties file   722 does not exist.
 End of Minotr F.D. properties file   788 does not exist.

 **********************************************************************

            Population analysis using the SCF Density.

 **********************************************************************

 Alpha  occ. eigenvalues --  -19.67647 -19.61941 -10.68053 -10.59014 -10.55775
 Alpha  occ. eigenvalues --  -10.55647 -10.53346 -10.52712 -10.52487 -10.52226
 Alpha  occ. eigenvalues --  -10.51735  -1.23827  -1.14480  -0.91888  -0.89901
 Alpha  occ. eigenvalues --   -0.86822  -0.81705  -0.76001  -0.71531  -0.68097
 Alpha  occ. eigenvalues --   -0.64853  -0.63287  -0.60293  -0.58126  -0.56167
 Alpha  occ. eigenvalues --   -0.53674  -0.52632  -0.51174  -0.49873  -0.49323
 Alpha  occ. eigenvalues --   -0.47345  -0.45660  -0.44936  -0.44282  -0.42456
 Alpha  occ. eigenvalues --   -0.41567  -0.40601  -0.38009  -0.37635  -0.37478
 Alpha  occ. eigenvalues --   -0.36673  -0.36352  -0.35159
 Alpha virt. eigenvalues --   -0.01785   0.06702   0.08302   0.09208   0.09826
 Alpha virt. eigenvalues --    0.11005   0.11499   0.11855   0.12542   0.12873
 Alpha virt. eigenvalues --    0.13139   0.14893   0.15369   0.16062   0.16278
 Alpha virt. eigenvalues --    0.16935   0.17802   0.18098   0.18891   0.19805
 Alpha virt. eigenvalues --    0.21255   0.21588   0.21827   0.23111   0.23216
 Alpha virt. eigenvalues --    0.24891   0.25240   0.25377   0.25863   0.26622
 Alpha virt. eigenvalues --    0.27632   0.28355   0.29464   0.30613   0.30862
 Alpha virt. eigenvalues --    0.33249   0.33631   0.34572   0.35373   0.35626
 Alpha virt. eigenvalues --    0.38044   0.39128   0.39197   0.40476   0.40889
 Alpha virt. eigenvalues --    0.42639   0.43418   0.43741   0.44610   0.44810
 Alpha virt. eigenvalues --    0.45081   0.45507   0.46245   0.46568   0.47813
 Alpha virt. eigenvalues --    0.48579   0.49395   0.49815   0.50677   0.50910
 Alpha virt. eigenvalues --    0.51055   0.51352   0.51727   0.52372   0.52987
 Alpha virt. eigenvalues --    0.53756   0.54447   0.55286   0.57334   0.58094
 Alpha virt. eigenvalues --    0.58720   0.60170   0.60677   0.61986   0.62841
 Alpha virt. eigenvalues --    0.65062   0.66056   0.66426   0.67522   0.68392
 Alpha virt. eigenvalues --    0.70145   0.71050   0.72353   0.75888   0.76516
 Alpha virt. eigenvalues --    0.77950   0.79436   0.81573   0.81798   0.83904
 Alpha virt. eigenvalues --    0.84387   0.86156   0.87682   0.88033   0.88480
 Alpha virt. eigenvalues --    0.89175   0.91684   0.92488   0.93340   0.94688
 Alpha virt. eigenvalues --    0.96162   0.97523   0.99107   1.00686   1.01022
 Alpha virt. eigenvalues --    1.03325   1.05283   1.05695   1.07845   1.09284
 Alpha virt. eigenvalues --    1.10780   1.11792   1.13947   1.14570   1.17622
 Alpha virt. eigenvalues --    1.18869   1.19532   1.20414   1.21840   1.22897
 Alpha virt. eigenvalues --    1.23629   1.24134   1.25829   1.25962   1.28240
 Alpha virt. eigenvalues --    1.29139   1.30115   1.31593   1.32574   1.36450
 Alpha virt. eigenvalues --    1.37263   1.41928   1.44743   1.46979   1.48375
 Alpha virt. eigenvalues --    1.52702   1.54891   1.56154   1.57480   1.58084
 Alpha virt. eigenvalues --    1.58850   1.59910   1.60862   1.61578   1.61803
 Alpha virt. eigenvalues --    1.62157   1.63171   1.63447   1.65313   1.66337
 Alpha virt. eigenvalues --    1.67332   1.67710   1.68423   1.69560   1.70557
 Alpha virt. eigenvalues --    1.71233   1.75164   1.75799   1.78431   1.79272
 Alpha virt. eigenvalues --    1.80262   1.80561   1.81657   1.84323   1.84559
 Alpha virt. eigenvalues --    1.85786   1.86232   1.87563   1.87937   1.89755
 Alpha virt. eigenvalues --    1.91074   1.93844   1.94659   1.96396   1.98062
 Alpha virt. eigenvalues --    2.00039   2.01131   2.01789   2.03551   2.04920
 Alpha virt. eigenvalues --    2.07376   2.08828   2.10413   2.11631   2.12060
 Alpha virt. eigenvalues --    2.13280   2.15291   2.17002   2.19830   2.20643
 Alpha virt. eigenvalues --    2.22610   2.24760   2.28346   2.30288   2.30835
 Alpha virt. eigenvalues --    2.32139   2.33467   2.34443   2.36096   2.37291
 Alpha virt. eigenvalues --    2.38613   2.40167   2.42247   2.43291   2.43673
 Alpha virt. eigenvalues --    2.44987   2.46431   2.48434   2.49043   2.49798
 Alpha virt. eigenvalues --    2.51594   2.52639   2.54167   2.56101   2.57101
 Alpha virt. eigenvalues --    2.57933   2.58819   2.60179   2.60616   2.61792
 Alpha virt. eigenvalues --    2.62995   2.63158   2.64152   2.65689   2.66183
 Alpha virt. eigenvalues --    2.67042   2.68405   2.68715   2.69570   2.70253
 Alpha virt. eigenvalues --    2.71503   2.72609   2.73172   2.74602   2.74880
 Alpha virt. eigenvalues --    2.77334   2.78928   2.80449   2.80716   2.81907
 Alpha virt. eigenvalues --    2.82663   2.83334   2.85315   2.87024   2.87862
 Alpha virt. eigenvalues --    2.89669   2.95110   2.95721   2.97257   2.99117
 Alpha virt. eigenvalues --    2.99931   3.01291   3.04201   3.05456   3.06085
 Alpha virt. eigenvalues --    3.08139   3.08674   3.10375   3.11800   3.12507
 Alpha virt. eigenvalues --    3.13119   3.13802   3.14726   3.16110   3.18226
 Alpha virt. eigenvalues --    3.18476   3.19047   3.20748   3.21810   3.23592
 Alpha virt. eigenvalues --    3.24046   3.25288   3.25894   3.26550   3.28123
 Alpha virt. eigenvalues --    3.30674   3.31094   3.32687   3.34202   3.34749
 Alpha virt. eigenvalues --    3.35557   3.35982   3.37060   3.37747   3.38265
 Alpha virt. eigenvalues --    3.39971   3.40865   3.41575   3.42584   3.43929
 Alpha virt. eigenvalues --    3.44172   3.45216   3.46230   3.47455   3.49482
 Alpha virt. eigenvalues --    3.51042   3.52778   3.55598   3.56407   3.57687
 Alpha virt. eigenvalues --    3.58828   3.60076   3.61052   3.64822   3.66728
 Alpha virt. eigenvalues --    3.68621   3.71732   3.72814   3.75498   3.77774
 Alpha virt. eigenvalues --    3.78391   3.80563   3.81978   3.84713   3.88307
 Alpha virt. eigenvalues --    3.90043   3.91762   3.95897   3.96833   3.98403
 Alpha virt. eigenvalues --    3.98924   4.01528   4.03125   4.05176   4.07583
 Alpha virt. eigenvalues --    4.08278   4.10026   4.12026   4.16621   4.17333
 Alpha virt. eigenvalues --    4.21662   4.31045   4.32438   4.32889   4.34572
 Alpha virt. eigenvalues --    4.37142   4.39019   4.40545   4.42663   4.46236
 Alpha virt. eigenvalues --    4.50849   4.52469   4.53389   4.56786   4.58788
 Alpha virt. eigenvalues --    4.61195   4.62434   4.67015   4.68381   4.71207
 Alpha virt. eigenvalues --    4.73181   4.74522   4.80430   4.83771   4.88383
 Alpha virt. eigenvalues --    4.89263   4.95480   4.97411   5.01865   5.18825
 Alpha virt. eigenvalues --    5.22453   5.32549   5.44120   5.49599   5.63442
 Alpha virt. eigenvalues --    5.71402   5.82595   5.99971   6.10410   6.15506
 Alpha virt. eigenvalues --    6.18740   6.37342   6.39487   6.50543   6.61405
 Alpha virt. eigenvalues --    6.67577   6.78457   6.84675   6.92269   7.02414
 Alpha virt. eigenvalues --    7.10165   7.28503   7.40283  22.24286  22.43621
 Alpha virt. eigenvalues --   22.53059  22.61799  22.63689  22.66946  22.69061
 Alpha virt. eigenvalues --   22.80510  23.41530  44.05209  44.42645
          Condensed to atoms (all electrons):
               1          2          3          4          5          6
     1  C    4.370099   0.642801   0.345877   0.349008  -0.025169  -0.059327
     2  O    0.642801   7.937500  -0.084365  -0.118116   0.003358   0.019528
     3  O    0.345877  -0.084365   8.010740  -0.078540   0.007715   0.009507
     4  C    0.349008  -0.118116  -0.078540   5.249533   0.396575   0.494631
     5  H   -0.025169   0.003358   0.007715   0.396575   0.479700  -0.025853
     6  C   -0.059327   0.019528   0.009507   0.494631  -0.025853   4.983956
     7  H   -0.005178   0.009631   0.000626  -0.050147   0.003662   0.421233
     8  H    0.006544   0.000375  -0.000139  -0.051908  -0.005833   0.424725
     9  C   -0.039144  -0.022624   0.149319  -0.003379   0.000529  -0.000389
    10  H   -0.020426   0.017880  -0.037676   0.003022  -0.000040  -0.000206
    11  H    0.000041   0.001038  -0.029358   0.000710  -0.000027   0.000034
    12  C    0.001412   0.001944  -0.049581  -0.000319  -0.000130   0.000043
    13  H   -0.001129  -0.000028   0.000924  -0.000203   0.000067   0.000020
    14  H    0.000005   0.000168   0.004689   0.000088   0.000005  -0.000003
    15  C    0.005679  -0.001741   0.028497   0.001772  -0.000194  -0.000219
    16  H   -0.001981  -0.000300   0.004022   0.000066   0.000198   0.000077
    17  H   -0.000004  -0.000059   0.000509  -0.000024  -0.000007   0.000000
    18  C   -0.001216  -0.007485  -0.009286  -0.000072   0.000083   0.000140
    19  H    0.002027   0.007026  -0.000619   0.000493  -0.000041  -0.000172
    20  H    0.000096   0.000160  -0.000072   0.000006  -0.000002  -0.000004
    21  C    0.000085   0.000742   0.000198  -0.000065  -0.000000   0.000000
    22  H    0.000012  -0.000015  -0.000002   0.000001   0.000000   0.000000
    23  H   -0.000050  -0.000137  -0.000059  -0.000021  -0.000000   0.000001
    24  C    0.000001  -0.000030  -0.000013  -0.000003   0.000000   0.000000
    25  H    0.000012   0.000048   0.000001   0.000004   0.000000  -0.000000
    26  H    0.000000   0.000002  -0.000000  -0.000000   0.000000  -0.000000
    27  H   -0.000000   0.000002  -0.000001   0.000000  -0.000000  -0.000000
               7          8          9         10         11         12
     1  C   -0.005178   0.006544  -0.039144  -0.020426   0.000041   0.001412
     2  O    0.009631   0.000375  -0.022624   0.017880   0.001038   0.001944
     3  O    0.000626  -0.000139   0.149319  -0.037676  -0.029358  -0.049581
     4  C   -0.050147  -0.051908  -0.003379   0.003022   0.000710  -0.000319
     5  H    0.003662  -0.005833   0.000529  -0.000040  -0.000027  -0.000130
     6  C    0.421233   0.424725  -0.000389  -0.000206   0.000034   0.000043
     7  H    0.476168  -0.019048   0.000045  -0.000053   0.000002  -0.000005
     8  H   -0.019048   0.483298   0.000017  -0.000002  -0.000001  -0.000002
     9  C    0.000045   0.000017   5.131774   0.434796   0.434420   0.201777
    10  H   -0.000053  -0.000002   0.434796   0.485253  -0.020955  -0.032123
    11  H    0.000002  -0.000001   0.434420  -0.020955   0.508708  -0.056960
    12  C   -0.000005  -0.000002   0.201777  -0.032123  -0.056960   5.336625
    13  H    0.000000  -0.000000  -0.026988   0.004870  -0.005076   0.427545
    14  H   -0.000000   0.000000  -0.055184   0.001296  -0.001117   0.419319
    15  C    0.000002   0.000004  -0.076954  -0.019941   0.013153   0.175462
    16  H   -0.000003  -0.000002  -0.009835   0.002173  -0.000469  -0.036387
    17  H   -0.000000   0.000000   0.008151  -0.000724  -0.000120  -0.056599
    18  C    0.000004  -0.000000   0.061034  -0.000526  -0.001442  -0.074091
    19  H    0.000005   0.000002   0.010509  -0.010236   0.000460  -0.021989
    20  H   -0.000000  -0.000000  -0.002241   0.000582   0.000017   0.013926
    21  C   -0.000000  -0.000000  -0.016911   0.000676   0.000208   0.031606
    22  H    0.000000   0.000000   0.001663  -0.000176   0.000012  -0.011756
    23  H   -0.000000  -0.000000  -0.004664   0.001558  -0.000121   0.019056
    24  C    0.000000   0.000000   0.000972   0.000004  -0.000016  -0.002000
    25  H    0.000000   0.000000  -0.000153   0.000149  -0.000003  -0.000072
    26  H   -0.000000  -0.000000  -0.000050   0.000029  -0.000002   0.000165
    27  H   -0.000000  -0.000000   0.000022  -0.000008   0.000001   0.000072
              13         14         15         16         17         18
     1  C   -0.001129   0.000005   0.005679  -0.001981  -0.000004  -0.001216
     2  O   -0.000028   0.000168  -0.001741  -0.000300  -0.000059  -0.007485
     3  O    0.000924   0.004689   0.028497   0.004022   0.000509  -0.009286
     4  C   -0.000203   0.000088   0.001772   0.000066  -0.000024  -0.000072
     5  H    0.000067   0.000005  -0.000194   0.000198  -0.000007   0.000083
     6  C    0.000020  -0.000003  -0.000219   0.000077   0.000000   0.000140
     7  H    0.000000  -0.000000   0.000002  -0.000003  -0.000000   0.000004
     8  H   -0.000000   0.000000   0.000004  -0.000002   0.000000  -0.000000
     9  C   -0.026988  -0.055184  -0.076954  -0.009835   0.008151   0.061034
    10  H    0.004870   0.001296  -0.019941   0.002173  -0.000724  -0.000526
    11  H   -0.005076  -0.001117   0.013153  -0.000469  -0.000120  -0.001442
    12  C    0.427545   0.419319   0.175462  -0.036387  -0.056599  -0.074091
    13  H    0.511868  -0.014390  -0.056460  -0.001639  -0.006372   0.010284
    14  H   -0.014390   0.517907  -0.021909   0.005215  -0.002274  -0.011827
    15  C   -0.056460  -0.021909   5.327415   0.440800   0.432283   0.174018
    16  H   -0.001639   0.005215   0.440800   0.518860  -0.015712  -0.063757
    17  H   -0.006372  -0.002274   0.432283  -0.015712   0.518736  -0.030450
    18  C    0.010284  -0.011827   0.174018  -0.063757  -0.030450   5.368483
    19  H   -0.000793   0.001862  -0.019353  -0.003148   0.004559   0.417249
    20  H   -0.000126  -0.000805  -0.049915  -0.006060  -0.003807   0.433786
    21  C   -0.000306  -0.002424  -0.042538   0.009599  -0.007930   0.199969
    22  H   -0.000322   0.002605   0.015222   0.000161   0.000528  -0.066805
    23  H    0.000584  -0.011275  -0.023230  -0.000673   0.001380  -0.031908
    24  C    0.000055   0.000517   0.011207  -0.000616  -0.000193  -0.054649
    25  H   -0.000002   0.000039   0.000463   0.000006  -0.000034  -0.005053
    26  H   -0.000002  -0.000012  -0.000843   0.000017   0.000016   0.012860
    27  H    0.000002  -0.000073  -0.000971  -0.000034   0.000162  -0.007709
              19         20         21         22         23         24
     1  C    0.002027   0.000096   0.000085   0.000012  -0.000050   0.000001
     2  O    0.007026   0.000160   0.000742  -0.000015  -0.000137  -0.000030
     3  O   -0.000619  -0.000072   0.000198  -0.000002  -0.000059  -0.000013
     4  C    0.000493   0.000006  -0.000065   0.000001  -0.000021  -0.000003
     5  H   -0.000041  -0.000002  -0.000000   0.000000  -0.000000   0.000000
     6  C   -0.000172  -0.000004   0.000000   0.000000   0.000001   0.000000
     7  H    0.000005  -0.000000  -0.000000   0.000000  -0.000000   0.000000
     8  H    0.000002  -0.000000  -0.000000   0.000000  -0.000000   0.000000
     9  C    0.010509  -0.002241  -0.016911   0.001663  -0.004664   0.000972
    10  H   -0.010236   0.000582   0.000676  -0.000176   0.001558   0.000004
    11  H    0.000460   0.000017   0.000208   0.000012  -0.000121  -0.000016
    12  C   -0.021989   0.013926   0.031606  -0.011756   0.019056  -0.002000
    13  H   -0.000793  -0.000126  -0.000306  -0.000322   0.000584   0.000055
    14  H    0.001862  -0.000805  -0.002424   0.002605  -0.011275   0.000517
    15  C   -0.019353  -0.049915  -0.042538   0.015222  -0.023230   0.011207
    16  H   -0.003148  -0.006060   0.009599   0.000161  -0.000673  -0.000616
    17  H    0.004559  -0.003807  -0.007930   0.000528   0.001380  -0.000193
    18  C    0.417249   0.433786   0.199969  -0.066805  -0.031908  -0.054649
    19  H    0.521779  -0.022129  -0.053697   0.007104  -0.005620  -0.001320
    20  H   -0.022129   0.528994  -0.040602  -0.002003   0.005940  -0.006130
    21  C   -0.053697  -0.040602   5.211419   0.431698   0.415352   0.257319
    22  H    0.007104  -0.002003   0.431698   0.550960  -0.033808  -0.033391
    23  H   -0.005620   0.005940   0.415352  -0.033808   0.570258  -0.033244
    24  C   -0.001320  -0.006130   0.257319  -0.033391  -0.033244   5.040756
    25  H    0.002043   0.000313  -0.042433   0.007406  -0.005537   0.416478
    26  H   -0.000288   0.000074  -0.051948  -0.004345  -0.004647   0.423121
    27  H    0.000315   0.002615  -0.045397  -0.006621   0.007766   0.423281
              25         26         27
     1  C    0.000012   0.000000  -0.000000
     2  O    0.000048   0.000002   0.000002
     3  O    0.000001  -0.000000  -0.000001
     4  C    0.000004  -0.000000   0.000000
     5  H    0.000000   0.000000  -0.000000
     6  C   -0.000000  -0.000000  -0.000000
     7  H    0.000000  -0.000000  -0.000000
     8  H    0.000000  -0.000000  -0.000000
     9  C   -0.000153  -0.000050   0.000022
    10  H    0.000149   0.000029  -0.000008
    11  H   -0.000003  -0.000002   0.000001
    12  C   -0.000072   0.000165   0.000072
    13  H   -0.000002  -0.000002   0.000002
    14  H    0.000039  -0.000012  -0.000073
    15  C    0.000463  -0.000843  -0.000971
    16  H    0.000006   0.000017  -0.000034
    17  H   -0.000034   0.000016   0.000162
    18  C   -0.005053   0.012860  -0.007709
    19  H    0.002043  -0.000288   0.000315
    20  H    0.000313   0.000074   0.002615
    21  C   -0.042433  -0.051948  -0.045397
    22  H    0.007406  -0.004345  -0.006621
    23  H   -0.005537  -0.004647   0.007766
    24  C    0.416478   0.423121   0.423281
    25  H    0.539949  -0.025005  -0.031477
    26  H   -0.025005   0.531390  -0.024371
    27  H   -0.031477  -0.024371   0.541532
 Mulliken charges:
               1
     1  C    0.429929
     2  O   -0.407304
     3  O   -0.272913
     4  C   -0.193113
     5  H    0.165405
     6  C   -0.267721
     7  H    0.163057
     8  H    0.161970
     9  C   -0.176511
    10  H    0.190804
    11  H    0.156864
    12  C   -0.286935
    13  H    0.157620
    14  H    0.167578
    15  C   -0.311708
    16  H    0.159422
    17  H    0.157987
    18  C   -0.311633
    19  H    0.163971
    20  H    0.147390
    21  C   -0.254616
    22  H    0.141872
    23  H    0.133101
    24  C   -0.442107
    25  H    0.142859
    26  H    0.143839
    27  H    0.140893
 Sum of Mulliken charges =  -0.00000
 Mulliken charges with hydrogens summed into heavy atoms:
               1
     1  C    0.429929
     2  O   -0.407304
     3  O   -0.272913
     4  C   -0.027708
     6  C    0.057306
     9  C    0.171156
    12  C    0.038263
    15  C    0.005700
    18  C   -0.000271
    21  C    0.020357
    24  C   -0.014516
 APT charges:
               1
     1  C    1.584404
     2  O   -0.945870
     3  O   -1.125507
     4  C   -0.274402
     5  H    0.067813
     6  C   -0.028935
     7  H    0.090065
     8  H    0.067118
     9  C    0.534014
    10  H    0.027169
    11  H   -0.038836
    12  C    0.059090
    13  H   -0.029964
    14  H   -0.015802
    15  C    0.096005
    16  H   -0.038564
    17  H   -0.042123
    18  C    0.072936
    19  H   -0.019815
    20  H   -0.045131
    21  C    0.105740
    22  H   -0.049938
    23  H   -0.041294
    24  C    0.069289
    25  H   -0.019385
    26  H   -0.032719
    27  H   -0.025362
 Sum of APT charges =   0.00000
 APT charges with hydrogens summed into heavy atoms:
               1
     1  C    1.584404
     2  O   -0.945870
     3  O   -1.125507
     4  C   -0.206589
     6  C    0.128248
     9  C    0.522348
    12  C    0.013325
    15  C    0.015318
    18  C    0.007990
    21  C    0.014509
    24  C   -0.008176
 Electronic spatial extent (au):  <R**2>=           6977.0525
 Charge=             -0.0000 electrons
 Dipole moment (field-independent basis, Debye):
    X=             -1.2893    Y=              0.6297    Z=              1.6421  Tot=              2.1806
 Quadrupole moment (field-independent basis, Debye-Ang):
   XX=            -65.6806   YY=            -65.7243   ZZ=            -65.4776
   XY=             -2.4318   XZ=              8.3753   YZ=              4.9623
 Traceless Quadrupole moment (field-independent basis, Debye-Ang):
   XX=             -0.0531   YY=             -0.0968   ZZ=              0.1499
   XY=             -2.4318   XZ=              8.3753   YZ=              4.9623
 Octapole moment (field-independent basis, Debye-Ang**2):
  XXX=           -107.3115  YYY=           -764.9574  ZZZ=             93.6194  XYY=            -54.2097
  XXY=           -247.5081  XXZ=             53.8536  XZZ=            -28.6119  YZZ=           -248.5532
  YYZ=             36.0356  XYZ=             26.2830
 Hexadecapole moment (field-independent basis, Debye-Ang**3):
 XXXX=          -1170.3479 YYYY=          -6415.3693 ZZZZ=          -1745.4392 XXXY=           -228.1423
 XXXZ=           -197.8257 YYYX=           -363.1270 YYYZ=            613.7845 ZZZX=           -242.2932
 ZZZY=            693.5460 XXYY=          -1276.0868 XXZZ=           -446.0925 YYZZ=          -1354.9966
 XXYZ=            292.8068 YYXZ=            -30.0031 ZZXY=            -52.2102
 N-N= 6.307573480975D+02 E-N=-2.433254168441D+03  KE= 5.005076358163D+02
  Exact polarizability: 156.133  -2.283 112.999   9.112  -1.946 139.787
 Approx polarizability: 148.083  -1.257 113.544   1.326   2.661 130.122
   1 Symmetry operations used in ECPInt.
 ECPInt:  NShTT=   17205 NPrTT=   50376 LenC2=   16080 LenP2D=   35765.
 LDataN:  DoStor=T MaxTD1= 8 Len=  415
 D2PCM: PCM CHGder 2nd derivatives, FixD1E=F FixD2E=F DoIter=F DoCFld=F I1PDM=0
 Calling FoFJK, ICntrl=    100127 FMM=F ISym2X=0 I1Cent= 0 IOpClX= 0 NMat=1 NMatS=1 NMatT=0.
 -------------------------------------------------------------------
 Center     Atomic                   Forces (Hartrees/Bohr)
 Number     Number              X              Y              Z
 -------------------------------------------------------------------
      1        6           0.003977375   -0.002253451   -0.011531474
      2        8          -0.007442089    0.002880023    0.014352043
      3        8           0.003695919   -0.000165572   -0.001221111
      4        6          -0.000579846   -0.000338983   -0.001271827
      5        1          -0.000116890   -0.000164324   -0.000125152
      6        6           0.000419902    0.000120230   -0.000135322
      7        1          -0.000026188    0.000002648    0.000025038
      8        1          -0.000022213    0.000004964    0.000019319
      9        6           0.000020288   -0.000011635   -0.000371716
     10        1          -0.000003451   -0.000106336   -0.000050058
     11        1           0.000016672    0.000034544    0.000179825
     12        6           0.000195447   -0.000037861    0.000140797
     13        1          -0.000025477   -0.000108589    0.000002483
     14        1           0.000010876    0.000083236   -0.000013733
     15        6           0.000163282   -0.000158733    0.000161498
     16        1          -0.000132608    0.000326537    0.000020616
     17        1          -0.000196098   -0.000188399   -0.000221847
     18        6           0.000058030    0.000036440    0.000031657
     19        1          -0.000026894   -0.000094148   -0.000191313
     20        1           0.000044166    0.000008376    0.000218485
     21        6          -0.000031229    0.000133935   -0.000020112
     22        1           0.000059563    0.000099373   -0.000128029
     23        1          -0.000111527    0.000031884    0.000120465
     24        6           0.000056832   -0.000136061    0.000007340
     25        1          -0.000031818   -0.000049331   -0.000026542
     26        1          -0.000026333    0.000060412   -0.000003615
     27        1           0.000054308   -0.000009179    0.000032285
 -------------------------------------------------------------------
 Cartesian Forces:  Max     0.014352043 RMS     0.002335586
 FormGI is forming the generalized inverse of G from B-inverse, IUseBI=4.

 GradGradGradGradGradGradGradGradGradGradGradGradGradGradGradGradGradGrad
 Berny optimization.
 Internal  Forces:  Max     0.016411004 RMS     0.001497225
 Search for a local minimum.
 Step number   1 out of a maximum of  140
 All quantities printed in internal units (Hartrees-Bohrs-Radians)
 Mixed Optimization -- RFO/linear search
 Second derivative matrix not updated -- analytic derivatives used.
 ITU=  0
     Eigenvalues ---   -0.00064   0.00227   0.00293   0.00359   0.00376
     Eigenvalues ---    0.00424   0.00559   0.01675   0.02254   0.03154
     Eigenvalues ---    0.03242   0.03500   0.03681   0.03772   0.03829
     Eigenvalues ---    0.03851   0.03991   0.04177   0.04482   0.04513
     Eigenvalues ---    0.04671   0.04704   0.06489   0.06886   0.07080
     Eigenvalues ---    0.07132   0.07173   0.07408   0.09532   0.09765
     Eigenvalues ---    0.10017   0.10442   0.10573   0.11743   0.12021
     Eigenvalues ---    0.12468   0.12867   0.13461   0.13467   0.15698
     Eigenvalues ---    0.17578   0.18640   0.20924   0.22243   0.22912
     Eigenvalues ---    0.23618   0.24244   0.24388   0.27907   0.28605
     Eigenvalues ---    0.29479   0.30633   0.31838   0.32983   0.33032
     Eigenvalues ---    0.33273   0.33530   0.33808   0.33850   0.33876
     Eigenvalues ---    0.33975   0.34110   0.34222   0.34426   0.34814
     Eigenvalues ---    0.34986   0.36136   0.36611   0.36760   0.36901
     Eigenvalues ---    0.37147   0.38777   0.50843   0.65353   0.82242
 RFO step:  Lambda=-7.75546633D-04 EMin=-6.44112430D-04
 Linear search not attempted -- first point.
 Iteration  1 RMS(Cart)=  0.21174973 RMS(Int)=  0.02282354
 Iteration  2 RMS(Cart)=  0.07598826 RMS(Int)=  0.00318390
 Iteration  3 RMS(Cart)=  0.00473114 RMS(Int)=  0.00001069
 Iteration  4 RMS(Cart)=  0.00001540 RMS(Int)=  0.00000820
 Iteration  5 RMS(Cart)=  0.00000000 RMS(Int)=  0.00000820
 Variable       Old X    -DE/DX   Delta X   Delta X   Delta X     New X
                                 (Linear)    (Quad)   (Total)
    R1        2.29770  -0.01641   0.00000  -0.02007  -0.02007   2.27763
    R2        2.52894  -0.00396   0.00000  -0.00392  -0.00392   2.52502
...
   D57        0.97305   0.00004   0.00000   0.01984   0.01983   0.99288
   D58        3.07506   0.00004   0.00000   0.01911   0.01911   3.09417
         Item               Value     Threshold  Converged?
 Maximum Force            0.016411     0.000450     NO 
 RMS     Force            0.001497     0.000300     NO 
 Maximum Displacement     0.797799     0.001800     NO 
 RMS     Displacement     0.217659     0.001200     NO 
 Predicted change in Energy=-5.868952D-04
 GradGradGradGradGradGradGradGradGradGradGradGradGradGradGradGradGradGrad

                          Input orientation:                          
 ---------------------------------------------------------------------
 Center     Atomic      Atomic             Coordinates (Angstroms)
 Number     Number       Type             X           Y           Z
 ---------------------------------------------------------------------
      1          6           0        1.725979    2.646042    0.864654
      2          8           0        2.136557    2.071676   -0.112182
      3          8           0        0.447630    2.981482    1.061353
      4          6           0        2.564481    3.080959    2.010914
      5          1           0        2.059463    3.593085    2.818858
      6          6           0        3.866733    2.840379    2.020030
      7          1           0        4.334222    2.322811    1.191173
      8          1           0        4.492197    3.150689    2.846027
      9          6           0       -0.513578    2.672565    0.038011
     10          1           0        0.008483    2.547221   -0.908159
     11          1           0       -0.986472    1.724784    0.299034
     12          6           0       -1.526511    3.796911   -0.019113
     13          1           0       -2.098388    3.822008    0.910859
     14          1           0       -2.232854    3.551402   -0.816216
     15          6           0       -0.892903    5.167167   -0.263166
     16          1           0       -0.352057    5.468812    0.635878
     17          1           0       -1.693092    5.898098   -0.406380
     18          6           0        0.059381    5.220506   -1.456564
     19          1           0        0.933563    4.585204   -1.270921
     20          1           0        0.444976    6.239795   -1.549948
     21          6           0       -0.578793    4.812055   -2.779863
     22          1           0       -1.498028    5.388158   -2.926710
     23          1           0       -0.878666    3.761163   -2.740613
     24          6           0        0.359930    5.021982   -3.961288
     25          1           0        1.278575    4.446420   -3.830241
     26          1           0       -0.099591    4.711840   -4.900224
     27          1           0        0.637761    6.073786   -4.053202
 ---------------------------------------------------------------------
                    Distance matrix (angstroms):
                    1          2          3          4          5
     1  C    0.000000
     2  O    1.205271   0.000000
     3  O    1.336183   2.248868   0.000000
     4  C    1.485312   2.389416   2.322201   0.000000
     5  H    2.197047   3.303275   2.461887   1.081707   0.000000
...
    26  H    0.000000
    27  H    1.765228   0.000000
 Symmetry turned off by external request.
 Stoichiometry    C9H16O2
 Framework group  C1[X(C9H16O2)]
 Deg. of freedom    75
 Full point group                 C1      NOp   1
 Rotational constants (GHZ):           1.6022303           0.5540329           0.4833528
 Standard basis: def2TZVP (5D, 7F)
   437 basis functions,   689 primitive gaussians,   492 cartesian basis functions
    43 alpha electrons       43 beta electrons
       nuclear repulsion energy       631.8303378582 Hartrees.
 NAtoms=   27 NActive=   27 NUniq=   27 SFac= 1.00D+00 NAtFMM=   60 NAOKFM=F Big=F
 Integral buffers will be    131072 words long.
 Raffenetti 2 integral format.
 Two-electron integral symmetry is turned off.
 Force inversion solution in PCM.
 ------------------------------------------------------------------------------
 Polarizable Continuum Model (PCM)
 =================================
 Model                : PCM.
 Atomic radii         : UFF (Universal Force Field).
 Polarization charges : Total charges.
 Charge compensation  : None.
 Solution method      : Matrix inversion.
 Cavity type          : Scaled VdW (van der Waals Surface) (Alpha=1.100).
 Cavity algorithm     : GePol (No added spheres)
                        Default sphere list used, NSphG=   27.
                        Lebedev-Laikov grids with approx.  7.0 points / Ang**2.
                        Smoothing algorithm: York/Karplus (Gamma=1.0000).
                        Polarization charges: spherical gaussians, with
                                              point-specific exponents (IZeta= 3).
                        Self-potential: point-specific (ISelfS= 7).
                        Self-field    : sphere-specific E.n sum rule (ISelfD= 2).
 1st derivatives      : Analytical E(r).r(x)/FMM algorithm (CHGder, D1EAlg=3).
                        Cavity 1st derivative terms included.
 2nd derivatives      : Analytical E(r).r(xy)/FMM algorithm (CHGder, D2EAlg=3).
                        Cavity 2nd derivative terms included.
 Solvent              : EthylEthanoate, Eps=   5.986700 Eps(inf)=   1.883207
 ------------------------------------------------------------------------------
 One-electron integrals computed using PRISM.
   1 Symmetry operations used in ECPInt.
 ECPInt:  NShTT=   17205 NPrTT=   50376 LenC2=   16122 LenP2D=   35877.
 LDataN:  DoStor=T MaxTD1= 6 Len=  172
 NBasis=   437 RedAO= T EigKep=  9.16D-05  NBF=   437
 NBsUse=   437 1.00D-06 EigRej= -1.00D+00 NBFU=   437
 Initial guess from the checkpoint file:  "/dev/shm/hexyl_acrylate_419.chk"
 B after Tr=    -0.148640    0.001109    0.017016
         Rot=    0.999927    0.001669   -0.006326    0.010175 Ang=   1.39 deg.
 ExpMin= 9.52D-02 ExpMax= 2.70D+04 ExpMxC= 9.22D+02 IAcc=3 IRadAn=         5 AccDes= 0.00D+00
 Harris functional with IExCor= 1009 and IRadAn=       5 diagonalized for initial guess.
 HarFok:  IExCor= 1009 AccDes= 0.00D+00 IRadAn=         5 IDoV= 1 UseB2=F ITyADJ=14
 ICtDFT=  3500011 ScaDFX=  1.000000  1.000000  1.000000  1.000000
 FoFCou: FMM=F IPFlag=           0 FMFlag=      100000 FMFlg1=           0
         NFxFlg=           0 DoJE=T BraDBF=F KetDBF=T FulRan=T
         wScrn=  0.000000 ICntrl=       500 IOpCl=  0 I1Cent=   200000004 NGrid=           0
         NMat0=    1 NMatS0=      1 NMatT0=    0 NMatD0=    1 NMtDS0=    0 NMtDT0=    0
 Symmetry not used in FoFCou.
 Requested convergence on RMS density matrix=1.00D-08 within  32 cycles.
 Requested convergence on MAX density matrix=1.00D-06.
 Requested convergence on             energy=1.00D-06.
 No special actions if energy rises.
 Inv3:  Mode=1 IEnd=    27633675.
 Iteration    1 A*A^-1 deviation from unit magnitude is 3.11D-15 for   2544.
 Iteration    1 A*A^-1 deviation from orthogonality  is 1.44D-15 for   2688   2383.
 Iteration    1 A^-1*A deviation from unit magnitude is 3.33D-15 for   2544.
 Iteration    1 A^-1*A deviation from orthogonality  is 4.96D-14 for   2883   2831.
 Error on total polarization charges =  0.01249
 SCF Done:  E(RM062X) =  -503.003504162     A.U. after   14 cycles
            NFock= 14  Conv=0.46D-08     -V/T= 2.0049
 QCSCF skips out because SCF is already converged.
 DoSCS=F DFT=T ScalE2(SS,OS)=  1.000000  1.000000
 Range of M.O.s used for correlation:     1   437
 NBasis=   437 NAE=    43 NBE=    43 NFC=     0 NFV=     0
 NROrb=    437 NOA=    43 NOB=    43 NVA=   394 NVB=   394

 **** Warning!!: The largest alpha MO coefficient is  0.15870215D+02

   1 Symmetry operations used in ECPInt.
 ECPInt:  NShTT=   17205 NPrTT=   50376 LenC2=   16122 LenP2D=   35877.
 LDataN:  DoStor=T MaxTD1= 7 Len=  274
 Number of processors reduced to  30 by ecpmxn.
 Symmetrizing basis deriv contribution to polar:
 IMax=3 JMax=2 DiffMx= 0.00D+00
 G2DrvN: will do    28 centers at a time, making    1 passes.
 Calling FoFCou, ICntrl=  3107 FMM=F I1Cent=   0 AccDes= 0.00D+00.
 NEqPCM:  Using equilibrium solvation (IEInf=0, Eps=   5.9867, EpsInf=   1.8832)
 G2PCM: DoFxE=T DoFxN=T DoGrad=T DoDP/DQ/DG/TGxP=FFFF NFrqRd=   0 IEInf=0 SqF1=F DoCFld=F IF1Alg=4.
 End of G2Drv F.D. properties file   721 does not exist.
 End of G2Drv F.D. properties file   722 does not exist.
 End of G2Drv F.D. properties file   788 does not exist.
          IDoAtm=111111111111111111111111111
 NEqPCM:  Using equilibrium solvation (IEInf=0, Eps=   5.9867, EpsInf=   1.8832)
          Differentiating once with respect to electric field.
                with respect to dipole field.
          Differentiating once with respect to nuclear coordinates.
 CalDSu exits because no D1Ps are significant.
          There are    84 degrees of freedom in the 1st order CPHF.  IDoFFX=6 NUNeed=     3.
     81 vectors produced by pass  0 Test12= 2.02D-14 1.19D-09 XBig12= 6.43D+01 4.09D+00.
 AX will form    81 AO Fock derivatives at one time.
     81 vectors produced by pass  1 Test12= 2.02D-14 1.19D-09 XBig12= 4.05D+00 4.43D-01.
     81 vectors produced by pass  2 Test12= 2.02D-14 1.19D-09 XBig12= 1.11D-01 5.78D-02.
     81 vectors produced by pass  3 Test12= 2.02D-14 1.19D-09 XBig12= 1.21D-03 3.35D-03.
     81 vectors produced by pass  4 Test12= 2.02D-14 1.19D-09 XBig12= 5.55D-06 2.02D-04.
     81 vectors produced by pass  5 Test12= 2.02D-14 1.19D-09 XBig12= 2.07D-08 1.31D-05.
     49 vectors produced by pass  6 Test12= 2.02D-14 1.19D-09 XBig12= 8.34D-11 6.92D-07.
      7 vectors produced by pass  7 Test12= 2.02D-14 1.19D-09 XBig12= 2.91D-13 6.15D-08.
      3 vectors produced by pass  8 Test12= 2.02D-14 1.19D-09 XBig12= 1.12D-15 5.97D-09.
 InvSVY:  IOpt=1 It=  1 EMax= 2.30D-15
 Solved reduced A of dimension   545 with    84 vectors.
 Isotropic polarizability for W=    0.000000      135.99 Bohr**3.
 End of Minotr F.D. properties file   721 does not exist.
 End of Minotr F.D. properties file   722 does not exist.
 End of Minotr F.D. properties file   788 does not exist.
   1 Symmetry operations used in ECPInt.
 ECPInt:  NShTT=   17205 NPrTT=   50376 LenC2=   16122 LenP2D=   35877.
 LDataN:  DoStor=T MaxTD1= 8 Len=  415
 D2PCM: PCM CHGder 2nd derivatives, FixD1E=F FixD2E=F DoIter=F DoCFld=F I1PDM=0
 Calling FoFJK, ICntrl=    100127 FMM=F ISym2X=0 I1Cent= 0 IOpClX= 0 NMat=1 NMatS=1 NMatT=0.
 -------------------------------------------------------------------
 Center     Atomic                   Forces (Hartrees/Bohr)
 Number     Number              X              Y              Z
 -------------------------------------------------------------------
      1        6          -0.000774977   -0.000024640    0.000570883
      2        8          -0.000619713   -0.000257319   -0.000685992
      3        8           0.000120216    0.000231832    0.000402886
      4        6           0.000137036   -0.000011835    0.000103468
      5        1          -0.000031101    0.000027633    0.000009900
      6        6           0.000011607   -0.000016076   -0.000072025
      7        1          -0.000073410    0.000048747    0.000036761
      8        1          -0.000010757    0.000003031    0.000019508
      9        6           0.000487925   -0.000357755    0.000639291
     10        1           0.000348776    0.000054792   -0.000390813
     11        1           0.000414381   -0.000054119    0.000041103
     12        6          -0.000030162   -0.000144311   -0.000291252
     13        1           0.000096811   -0.000312250   -0.000014569
     14        1          -0.000043573    0.000182525    0.000070564
     15        6           0.000311904   -0.000164317   -0.000059424
     16        1           0.000054308    0.000217909    0.000148848
     17        1           0.000049232    0.000010575   -0.000115089
     18        6           0.000262091   -0.000132275   -0.000239731
     19        1          -0.000313220    0.000412908    0.000123921
     20        1          -0.000035324    0.000034076    0.000012208
     21        6          -0.000258736    0.000243698   -0.000142791
     22        1           0.000054026    0.000029179   -0.000144556
     23        1          -0.000145332    0.000071340   -0.000004245
     24        6          -0.000065568   -0.000053845    0.000000608
     25        1           0.000002867   -0.000025178   -0.000025112
     26        1           0.000023772    0.000002563   -0.000000870
     27        1           0.000026922   -0.000016888    0.000006519
 -------------------------------------------------------------------
 Cartesian Forces:  Max     0.000774977 RMS     0.000234692
 FormGI is forming the generalized inverse of G from B-inverse, IUseBI=4.

 GradGradGradGradGradGradGradGradGradGradGradGradGradGradGradGradGradGrad
 Berny optimization.
 Using GEDIIS/GDIIS optimizer.
 Internal  Forces:  Max     0.002835416 RMS     0.000377644
 Search for a local minimum.
...
 Step number   7 out of a maximum of  140
 All quantities printed in internal units (Hartrees-Bohrs-Radians)
 Mixed Optimization -- En-DIIS/RFO-DIIS
 Swapping is turned off.
 Second derivative matrix not updated -- analytic derivatives used.
 DE= -6.26D-08 DEPred=-6.27D-08 R= 9.98D-01
 Trust test= 9.98D-01 RLast= 3.50D-03 DXMaxT set to 8.49D-01
 ITU=  0  1  1  1  1  1  0
     Eigenvalues ---    0.00185   0.00253   0.00275   0.00305   0.00338
     Eigenvalues ---    0.00416   0.00553   0.02002   0.02284   0.03119
     Eigenvalues ---    0.03247   0.03490   0.03676   0.03766   0.03812
     Eigenvalues ---    0.03851   0.03930   0.04194   0.04473   0.04517
     Eigenvalues ---    0.04663   0.04771   0.06059   0.06869   0.07035
     Eigenvalues ---    0.07107   0.07197   0.07372   0.09439   0.09667
     Eigenvalues ---    0.10074   0.10463   0.10544   0.11808   0.12009
     Eigenvalues ---    0.12500   0.12816   0.13403   0.13477   0.15690
     Eigenvalues ---    0.17349   0.18540   0.21059   0.21766   0.22805
     Eigenvalues ---    0.23878   0.24194   0.24341   0.26884   0.28653
     Eigenvalues ---    0.29653   0.30917   0.31889   0.32987   0.33058
     Eigenvalues ---    0.33321   0.33563   0.33711   0.33787   0.33864
     Eigenvalues ---    0.33945   0.34089   0.34150   0.34399   0.34604
     Eigenvalues ---    0.34983   0.36119   0.36314   0.36672   0.36859
     Eigenvalues ---    0.36947   0.38396   0.48759   0.65362   0.88072
 En-DIIS/RFO-DIIS/Sim-DIIS IScMMF=       -3 using points:     7    6    5    4    3    2
 RFO step:  Lambda=-4.18216195D-08.
 DIIS inversion failure, remove point   6.
 DIIS inversion failure, remove point   5.
 DIIS inversion failure, remove point   4.
 RFO-DIIS uses    3 points instead of    6
 DidBck=F Rises=F RFO-DIIS coefs:    2.29143   -1.33065    0.03922    0.00000    0.00000
                  RFO-DIIS coefs:    0.00000
 Iteration  1 RMS(Cart)=  0.00120649 RMS(Int)=  0.00000084
 Iteration  2 RMS(Cart)=  0.00000131 RMS(Int)=  0.00000000
 Iteration  3 RMS(Cart)=  0.00000000 RMS(Int)=  0.00000000
 Variable       Old X    -DE/DX   Delta X   Delta X   Delta X     New X
                                 (Linear)    (Quad)   (Total)
    R1        2.27887   0.00000   0.00001   0.00000   0.00001   2.27888
    R2        2.52193  -0.00001  -0.00000  -0.00000  -0.00000   2.52193
...
   D57        0.99866   0.00000  -0.00006   0.00000  -0.00006   0.99860
   D58        3.10001   0.00000  -0.00006   0.00000  -0.00006   3.09995
         Item               Value     Threshold  Converged?
 Maximum Force            0.000042     0.000450     YES
 RMS     Force            0.000005     0.000300     YES
 Maximum Displacement     0.005768     0.001800     NO
 RMS     Displacement     0.001206     0.001200     NO 
 Predicted change in Energy=-2.090768D-08
 GradGradGradGradGradGradGradGradGradGradGradGradGradGradGradGradGradGrad

                          Input orientation:                          
 ---------------------------------------------------------------------
 Center     Atomic      Atomic             Coordinates (Angstroms)
 Number     Number       Type             X           Y           Z
 ---------------------------------------------------------------------
      1          6           0        1.838820    2.489608    1.114181
      2          8           0        2.077906    1.504404    0.461126
      3          8           0        0.733973    3.222982    0.964205
      4          6           0        2.712805    3.047198    2.177030
      5          1           0        2.365103    3.942243    2.675345
      6          6           0        3.858614    2.457841    2.482394
      7          1           0        4.169688    1.561967    1.959119
      8          1           0        4.507493    2.850045    3.253683
      9          6           0       -0.192917    2.781730   -0.040771
     10          1           0        0.332847    2.725600   -0.995507
     11          1           0       -0.531297    1.776804    0.213948
     12          6           0       -1.341781    3.764403   -0.079867
     13          1           0       -1.873741    3.726445    0.873228
     14          1           0       -2.041320    3.413342   -0.842206
     15          6           0       -0.916163    5.205036   -0.368252
     16          1           0       -0.357213    5.587442    0.488200
     17          1           0       -1.817583    5.818191   -0.451411
     18          6           0       -0.074975    5.379993   -1.631464
     19          1           0        0.889595    4.875219   -1.511871
     20          1           0        0.156970    6.442383   -1.750084
     21          6           0       -0.750352    4.879125   -2.903782
     22          1           0       -1.742739    5.333941   -2.985130
     23          1           0       -0.912197    3.799507   -2.840242
     24          6           0        0.066057    5.191241   -4.151640
     25          1           0        1.054862    4.731916   -4.090898
     26          1           0       -0.420818    4.820359   -5.054015
     27          1           0        0.207365    6.268034   -4.263320
 ---------------------------------------------------------------------
                    Distance matrix (angstroms):
                    1          2          3          4          5
     1  C    0.000000
     2  O    1.205931   0.000000
     3  O    1.334547   2.238918   0.000000
     4  C    1.484723   2.393248   2.327578   0.000000
     5  H    2.196441   3.305799   2.471016   1.081813   0.000000
...
                   26         27
    26  H    0.000000
    27  H    1.765099   0.000000
 Symmetry turned off by external request.
 Stoichiometry    C9H16O2
 Framework group  C1[X(C9H16O2)]
 Deg. of freedom    75
 Full point group                 C1      NOp   1
 Rotational constants (GHZ):           1.8965322           0.4514495           0.4251498
 Standard basis: def2TZVP (5D, 7F)
   437 basis functions,   689 primitive gaussians,   492 cartesian basis functions
    43 alpha electrons       43 beta electrons
       nuclear repulsion energy       620.3695146857 Hartrees.
 NAtoms=   27 NActive=   27 NUniq=   27 SFac= 1.00D+00 NAtFMM=   60 NAOKFM=F Big=F
 Integral buffers will be    131072 words long.
 Raffenetti 2 integral format.
 Two-electron integral symmetry is turned off.
 Force inversion solution in PCM.
 ------------------------------------------------------------------------------
 Polarizable Continuum Model (PCM)
 =================================
 Model                : PCM.
 Atomic radii         : UFF (Universal Force Field).
 Polarization charges : Total charges.
 Charge compensation  : None.
 Solution method      : Matrix inversion.
 Cavity type          : Scaled VdW (van der Waals Surface) (Alpha=1.100).
 Cavity algorithm     : GePol (No added spheres)
                        Default sphere list used, NSphG=   27.
                        Lebedev-Laikov grids with approx.  7.0 points / Ang**2.
                        Smoothing algorithm: York/Karplus (Gamma=1.0000).
                        Polarization charges: spherical gaussians, with
                                              point-specific exponents (IZeta= 3).
                        Self-potential: point-specific (ISelfS= 7).
                        Self-field    : sphere-specific E.n sum rule (ISelfD= 2).
 1st derivatives      : Analytical E(r).r(x)/FMM algorithm (CHGder, D1EAlg=3).
                        Cavity 1st derivative terms included.
 2nd derivatives      : Analytical E(r).r(xy)/FMM algorithm (CHGder, D2EAlg=3).
                        Cavity 2nd derivative terms included.
 Solvent              : EthylEthanoate, Eps=   5.986700 Eps(inf)=   1.883207
 ------------------------------------------------------------------------------
 One-electron integrals computed using PRISM.
   1 Symmetry operations used in ECPInt.
 ECPInt:  NShTT=   17205 NPrTT=   50376 LenC2=   15865 LenP2D=   35120.
 LDataN:  DoStor=T MaxTD1= 6 Len=  172
 NBasis=   437 RedAO= T EigKep=  1.09D-04  NBF=   437
 NBsUse=   437 1.00D-06 EigRej= -1.00D+00 NBFU=   437
 Initial guess from the checkpoint file:  "/dev/shm/hexyl_acrylate_419.chk"
 B after Tr=    -0.000277    0.000069    0.000444
         Rot=    1.000000    0.000023   -0.000007    0.000032 Ang=   0.00 deg.
 Requested convergence on RMS density matrix=1.00D-08 within  32 cycles.
 Requested convergence on MAX density matrix=1.00D-06.
 Requested convergence on             energy=1.00D-06.
 No special actions if energy rises.
 Inv3:  Mode=1 IEnd=    27108108.
 Iteration    1 A*A^-1 deviation from unit magnitude is 3.55D-15 for    127.
 Iteration    1 A*A^-1 deviation from orthogonality  is 1.60D-15 for   2906   2468.
 Iteration    1 A^-1*A deviation from unit magnitude is 3.77D-15 for    626.
 Iteration    1 A^-1*A deviation from orthogonality  is 2.89D-15 for   2830    962.
 Error on total polarization charges =  0.01277
 SCF Done:  E(RM062X) =  -503.004423226     A.U. after    7 cycles
            NFock=  7  Conv=0.43D-08     -V/T= 2.0049
 QCSCF skips out because SCF is already converged.
 DoSCS=F DFT=T ScalE2(SS,OS)=  1.000000  1.000000
 Range of M.O.s used for correlation:     1   437
 NBasis=   437 NAE=    43 NBE=    43 NFC=     0 NFV=     0
 NROrb=    437 NOA=    43 NOB=    43 NVA=   394 NVB=   394

 **** Warning!!: The largest alpha MO coefficient is  0.15274754D+02

   1 Symmetry operations used in ECPInt.
 ECPInt:  NShTT=   17205 NPrTT=   50376 LenC2=   15865 LenP2D=   35120.
 LDataN:  DoStor=T MaxTD1= 7 Len=  274
 Number of processors reduced to  30 by ecpmxn.
 Symmetrizing basis deriv contribution to polar:
 IMax=3 JMax=2 DiffMx= 0.00D+00
 G2DrvN: will do    28 centers at a time, making    1 passes.
 Calling FoFCou, ICntrl=  3107 FMM=F I1Cent=   0 AccDes= 0.00D+00.
 NEqPCM:  Using equilibrium solvation (IEInf=0, Eps=   5.9867, EpsInf=   1.8832)
 G2PCM: DoFxE=T DoFxN=T DoGrad=T DoDP/DQ/DG/TGxP=FFFF NFrqRd=   0 IEInf=0 SqF1=F DoCFld=F IF1Alg=4.
 End of G2Drv F.D. properties file   721 does not exist.
 End of G2Drv F.D. properties file   722 does not exist.
 End of G2Drv F.D. properties file   788 does not exist.
          IDoAtm=111111111111111111111111111
 NEqPCM:  Using equilibrium solvation (IEInf=0, Eps=   5.9867, EpsInf=   1.8832)
          Differentiating once with respect to electric field.
                with respect to dipole field.
          Differentiating once with respect to nuclear coordinates.
 CalDSu exits because no D1Ps are significant.
          There are    84 degrees of freedom in the 1st order CPHF.  IDoFFX=6 NUNeed=     3.
     81 vectors produced by pass  0 Test12= 2.02D-14 1.19D-09 XBig12= 5.88D+01 3.73D+00.
 AX will form    81 AO Fock derivatives at one time.
     81 vectors produced by pass  1 Test12= 2.02D-14 1.19D-09 XBig12= 4.13D+00 3.62D-01.
     81 vectors produced by pass  2 Test12= 2.02D-14 1.19D-09 XBig12= 9.01D-02 5.34D-02.
     81 vectors produced by pass  3 Test12= 2.02D-14 1.19D-09 XBig12= 9.44D-04 3.47D-03.
     81 vectors produced by pass  4 Test12= 2.02D-14 1.19D-09 XBig12= 7.31D-06 2.22D-04.
     81 vectors produced by pass  5 Test12= 2.02D-14 1.19D-09 XBig12= 3.78D-08 1.82D-05.
     47 vectors produced by pass  6 Test12= 2.02D-14 1.19D-09 XBig12= 1.49D-10 9.41D-07.
      7 vectors produced by pass  7 Test12= 2.02D-14 1.19D-09 XBig12= 5.33D-13 6.03D-08.
      3 vectors produced by pass  8 Test12= 2.02D-14 1.19D-09 XBig12= 2.18D-15 5.77D-09.
 InvSVY:  IOpt=1 It=  1 EMax= 1.56D-15
 Solved reduced A of dimension   543 with    84 vectors.
 Isotropic polarizability for W=    0.000000      136.12 Bohr**3.
 End of Minotr F.D. properties file   721 does not exist.
 End of Minotr F.D. properties file   722 does not exist.
 End of Minotr F.D. properties file   788 does not exist.
   1 Symmetry operations used in ECPInt.
 ECPInt:  NShTT=   17205 NPrTT=   50376 LenC2=   15865 LenP2D=   35120.
 LDataN:  DoStor=T MaxTD1= 8 Len=  415
 D2PCM: PCM CHGder 2nd derivatives, FixD1E=F FixD2E=F DoIter=F DoCFld=F I1PDM=0
[...]
 9,-0.29396996,0.02832716,-0.00247925,-0.01514104,0.00164589,0.05640920
 ,0.31881540,0.00044242,-0.00028030,0.00005216,-0.00015551,0.00014849,0
 .00003026,-0.00041330,0.00019330,-0.00014064,-0.00006808,0.00003734,-0
 .00000124,0.00000296,0.00000276,-0.00000925,-0.00000933,-0.00002867,-0
 .00002346,0.00000576,0.00000047,0.00000107,-0.00000823,0.00000464,-0.0
 0000456,0.00062621,-0.00060536,0.00006809,-0.00015077,-0.00011674,-0.0
 0001088,-0.00010631,0.00006958,-0.00001508,0.00286896,-0.00094976,-0.0
 0439382,0.00064173,0.00152290,-0.00037152,0.00019778,0.00010675,0.0000
 4519,0.00595893,0.02817636,-0.00472087,-0.00089195,-0.00000339,0.00078
 024,-0.00027854,-0.00048755,0.00119229,0.00527693,0.02801229,-0.048161
 21,0.00061135,0.00352853,-0.00106599,-0.00667759,-0.02908987,0.0587681
 5,-0.00020114,0.00006041,-0.00002857,0.00011210,-0.00009173,-0.0000216
 7,0.00034999,0.00002580,-0.00020379,0.00002386,-0.00000650,0.00002028,
 -0.00001109,-0.00000009,0.00000191,0.00000980,0.00000715,0.00000364,-0
 .00000122,-0.00000300,0.00000103,0.00000298,-0.00000124,0.00000238,-0.
 00093459,-0.00000915,-0.00008787,0.00010327,-0.00010515,-0.00001356,0.
 00014199,-0.00006889,-0.00000566,-0.00003600,0.00038179,0.00074213,0.0
 0013742,-0.00023314,0.00020816,0.00028904,-0.00019796,0.00061141,0.010
 94554,0.00838777,0.01505999,-0.00238234,-0.00040987,0.00513615,0.00065
 012,0.00005989,0.00097837,-0.10751362,-0.01968968,-0.04546729,-0.01524
 128,-0.01104865,-0.02507189,-0.00377638,-0.00250095,-0.00532336,0.5542
 5484,-0.00005000,0.00008638,0.00000358,-0.00000240,-0.00006749,-0.0000
 7483,-0.00026431,-0.00021803,-0.00022553,-0.00001887,0.00000665,0.0000
 0261,-0.00000345,0.,-0.00001403,-0.00001018,-0.00001000,-0.00000869,0.
 00000482,0.00000191,-0.00000103,-0.00000200,0.00000106,-0.00000138,0.0
 0035627,-0.00002152,0.00028890,0.00035584,-0.00017349,0.00055849,0.000
 03530,-0.00003313,-0.00000471,0.00144135,0.00133335,0.00099078,-0.0002
 4583,-0.00042956,-0.00025981,-0.00063638,0.00016128,-0.00045821,0.0043
 5627,0.00178323,0.00300427,-0.00092314,0.00069735,0.00203479,-0.000430
 49,-0.00021253,-0.00058195,-0.01994248,-0.09419875,-0.03077898,0.00704
 001,0.00530275,0.01343808,-0.01674935,-0.01217371,-0.02871749,-0.02092
 615,0.58285172,0.00002434,0.00001452,-0.00003433,-0.00000682,0.0000170
 7,0.00003145,-0.00020114,0.00006971,-0.00010201,0.00000277,-0.00000742
 ,0.00000409,0.00000512,0.00000237,-0.00000683,-0.00000770,-0.00000018,
 0.00000472,0.00000025,0.00000215,-0.00000162,0.00000119,0.00000084,-0.
 00000133,-0.00002043,-0.00028445,-0.00016392,-0.00007168,0.00018626,0.
 00003526,-0.00001832,-0.00003089,0.00008773,0.00022482,0.00007335,0.00
 042103,-0.00030042,-0.00060997,0.00021809,-0.00012634,0.00014588,-0.00
 087503,-0.01086014,-0.00810537,-0.02824039,0.00238099,0.00082579,-0.00
 264472,-0.00090003,-0.00006560,0.00199687,-0.04746018,-0.03392732,-0.1
 5292901,-0.00278016,-0.00235436,-0.00546458,0.00040856,0.00013534,-0.0
 0014940,0.00059661,-0.00966244,0.46461327,0.00009130,-0.00007432,0.000
 07738,-0.00001694,0.00003258,-0.00002104,-0.00001195,0.00002670,-0.000
 02824,-0.00001122,0.00001244,-0.00001189,-0.00000316,-0.00000293,0.000
 00553,0.00000727,-0.00000291,-0.00000752,0.00000045,-0.00000333,0.0000
 0305,-0.00000283,-0.00000133,0.00000077,0.00000296,-0.00001844,0.00015
 453,0.00002737,-0.00008498,-0.00001458,0.00001319,0.00000682,-0.000047
 79,0.00020276,0.00010828,-0.00023267,-0.00000316,0.00006793,-0.0000525
 2,-0.00014365,0.00016443,-0.00030931,0.00088581,-0.00011679,0.00110660
 ,0.00026839,-0.00023483,0.00007665,0.00049290,0.00000558,-0.00066612,-
 0.01525166,0.00674782,-0.00260073,-0.00045741,-0.00163151,-0.00240001,
 0.00026656,-0.00025392,0.00037925,-0.25495206,0.09849983,-0.01767263,0
 .27981823,-0.00010199,0.00004346,-0.00003452,0.00002095,-0.00002235,0.
 00002668,0.00005514,0.00001312,0.00021419,0.00001794,-0.00000147,-0.00
 000173,0.00000090,0.00000137,0.00000207,0.00000139,0.00000536,0.000006
 67,-0.00000148,0.00000098,-0.00000144,0.00000162,-0.00000054,0.0000011
 5,0.00013323,-0.00011727,-0.00026131,-0.00019567,0.00017296,-0.0000819
 2,-0.00001981,-0.00001586,0.00005101,0.00020212,0.00006633,-0.00004484
 ,-0.00005101,0.00002555,0.00000744,-0.00003099,-0.00017611,-0.00005970
 ,-0.00004146,0.00048291,0.00056558,-0.00010867,-0.00007932,0.00017051,
 0.00018916,-0.00008922,0.00024929,-0.01075062,0.00482349,-0.00156459,-
 0.00141445,0.00036085,-0.00200587,0.00004181,0.00060026,0.00074618,0.0
 9955172,-0.09694204,0.00847888,-0.10777986,0.10003073,0.00015996,-0.00
 013470,0.00003576,-0.00003208,0.00006133,0.00001710,-0.00002268,0.0001
 3018,-0.00014586,-0.00001478,0.00000921,-0.00000304,-0.00000209,-0.000
 00171,0.00000606,0.00000428,-0.00000551,-0.00000631,0.00000030,-0.0000
 0126,0.00000147,-0.00000230,0.00000040,-0.00000021,-0.00019867,-0.0001
 1736,0.00015847,0.00005116,-0.00016801,0.00000665,0.00004371,-0.000007
 18,-0.00004878,-0.00000801,0.00005071,0.00000740,0.00007976,0.00003271
 ,0.00002228,0.00005860,0.00013593,0.00003055,-0.00102418,0.00077781,0.
 00162629,0.00017116,-0.00021477,0.00032585,0.00065343,-0.00038151,-0.0
 0018473,-0.02600050,0.01259678,-0.00511525,-0.00264893,-0.00219878,-0.
 00450707,0.00076695,-0.00010974,0.00101562,-0.01836119,0.00877169,-0.0
 4723777,0.01963833,-0.00872917,0.05651008,-0.00013412,0.00004204,-0.00
 009731,0.00002816,-0.00002113,0.00005509,0.00004456,0.00002623,0.00024
 696,0.00002469,-0.00000500,-0.00000005,0.00000220,0.00000176,0.0000039
 5,0.00000021,0.00000933,0.00000995,-0.00000299,0.00000153,-0.00000211,
 0.00000244,-0.00000045,0.00000178,0.00020724,-0.00012363,-0.00045541,-
 0.00032331,0.00025154,-0.00024658,-0.00005356,0.00000312,0.00009812,0.
 00017189,0.00005263,0.00030669,-0.00002593,0.00011377,-0.00000013,-0.0
 0023905,-0.00004095,0.00099813,0.00007358,0.00046612,0.00041222,-0.000
 01064,-0.00002648,0.00000751,0.00003572,0.00002550,0.00000442,-0.00317
 017,-0.01626079,0.00033343,0.00045753,-0.00002283,0.00082021,-0.000819
 29,-0.00148183,-0.00270915,-0.05327522,-0.03284838,0.00124393,0.004276
 82,0.02900246,-0.00162986,0.05620546,-0.00021299,0.00014061,-0.0000550
 6,0.00006113,-0.00005829,0.00001475,0.00038375,-0.00005992,0.00028301,
 0.00003782,-0.00001670,0.00000111,-0.00000026,-0.00000076,0.00000872,0
 .00000747,0.00001715,0.00001299,-0.00000482,-0.00000101,0.00000012,0.0
 0000442,-0.00000233,0.00000300,-0.00018346,0.00021297,0.00008402,-0.00
 005946,0.00019064,-0.00010004,-0.00004468,-0.00002614,0.00007425,-0.00
 070880,-0.00047643,0.00017894,0.00028488,0.00019812,0.00027053,0.00041
 589,0.00036135,0.00085928,-0.00049468,-0.00041138,0.00019563,0.0000987
 5,0.00016415,-0.00019514,-0.00001277,0.00004989,0.00000612,-0.00166726
 ,-0.01097325,-0.00035731,-0.00014963,0.00067478,-0.00005695,-0.0010819
 7,0.00075808,-0.00198624,-0.03356561,-0.30175499,0.01466023,-0.0013435
 3,-0.01374568,0.00079463,0.04001822,0.32836107,-0.00035973,0.00026213,
 -0.00002490,0.00011655,-0.00013946,-0.00001029,0.00041547,-0.00014008,
 0.00044679,0.00006852,-0.00003047,-0.00000362,-0.00000130,-0.00000010,
 0.00000462,0.00000848,0.00002404,0.00002180,-0.00000387,-0.00000038,-0
 .00000152,0.00000629,-0.00000422,0.00000430,-0.00007787,0.00006823,-0.
 00075423,-0.00045986,0.00030215,0.00010748,-0.00003028,-0.00001935,0.0
 0011771,0.00072028,0.00038034,-0.00078991,0.00000288,0.00006161,0.0002
 2053,0.00081925,0.00039749,-0.00165117,0.00010894,-0.00027352,0.001217
 64,-0.00007036,0.00030377,0.00014355,0.00000072,0.00001791,-0.00009898
 ,-0.00377581,-0.02909348,0.00117777,0.00039346,0.00086355,0.00123420,-
 0.00260659,-0.00189419,-0.00463936,0.00103076,0.01448601,-0.04662943,0
 .00035120,0.00251094,-0.00091843,-0.00335620,-0.01707784,0.05695087,0.
 00033032,-0.00025056,-0.00001693,-0.00011318,0.00013580,0.00008707,-0.
 00025829,0.00016537,-0.00012547,-0.00003017,0.00000944,-0.00000582,0.0
 0000621,0.00000122,0.00000350,-0.00000781,-0.00001142,-0.00000564,0.00
 000053,0.00000452,-0.00000240,-0.00000270,0.00000289,-0.00000275,0.000
 12873,-0.00006230,0.00014693,0.00006790,-0.00008594,-0.00003827,-0.000
 04054,0.00004744,-0.00004747,-0.00006287,-0.00035159,-0.00005710,0.000
 06564,0.00015772,-0.00002744,0.00001413,0.00015587,0.00004057,-0.00227
 080,-0.00120944,-0.00288736,0.00071055,-0.00009498,-0.00117483,0.00033
 074,-0.00020794,0.00002943,0.00960132,0.00416469,-0.01129973,0.0006906
 1,-0.00012007,-0.00100295,0.00042329,0.00030126,-0.00039760,-0.1175175
 7,-0.01473307,0.05724362,-0.01591143,-0.00769446,0.02666998,-0.0032271
 4,-0.00084728,0.00436410,0.54399704,-0.00002961,0.00003845,0.00001726,
 0.00001171,-0.00000450,-0.00000160,0.00013059,0.00004410,0.00013816,0.
 00001099,-0.00000403,-0.00000579,0.00000091,-0.00000139,0.00000546,0.0
 0000611,0.00000575,0.00000392,-0.00000143,-0.00000214,0.00000127,0.000
 00057,-0.00000122,0.00000092,-0.00008026,0.00006418,-0.00017362,-0.000
 16992,0.00003904,-0.00000326,-0.00003837,0.00002734,0.00001460,-0.0004
 9551,-0.00042086,0.00014307,0.00018457,0.00016083,0.00019903,0.0004403
 7,0.00019905,0.00026273,-0.00192929,-0.00117607,-0.00244990,0.00030759
 ,0.00025261,-0.00095747,-0.00014578,0.00009277,0.00021482,0.00729558,0
 .00178773,-0.00972523,-0.00011156,0.00013545,0.00051506,0.00052920,0.0
 0076478,-0.00118595,-0.01516534,-0.08412085,0.02313343,0.00726538,0.00
 306518,-0.01251146,-0.01860016,-0.00585484,0.02893928,-0.00851068,0.56
 815934,0.00001967,-0.00000424,0.00000076,-0.00000928,0.00001680,0.0000
 1372,0.00003752,0.00001415,0.00007005,0.00000430,-0.00000299,-0.000003
 95,0.00000162,-0.00000038,0.00000314,0.00000177,0.00000262,0.00000216,
 -0.00000092,-0.00000015,0.00000012,0.00000056,-0.00000058,0.00000023,0
 .00006563,0.00001451,-0.00009284,-0.00009284,0.00004453,0.00001151,-0.
 00004538,0.00003054,0.00001881,-0.00034754,-0.00051276,0.00006888,0.00
 011508,0.00016734,0.00005532,0.00017053,0.00014492,0.00012561,-0.00329
 438,-0.00175733,-0.00295532,0.00084943,0.00011643,-0.00111861,0.000043
 76,-0.00010114,-0.00006080,0.01625565,0.00493456,-0.03142980,0.0007384
 6,0.00058476,0.00157388,0.00100027,0.00085918,0.00177304,0.05483657,0.
 02143037,-0.15918058,-0.00048416,-0.00035568,0.00069388,0.00216275,0.0
 0091343,-0.00387741,0.04539005,0.01945490,0.51868364,-0.00008941,0.000
 09366,0.00004178,0.00003374,-0.00005028,-0.00005098,0.00010634,-0.0000
 6614,0.00002535,0.00000645,-0.00000323,-0.00000084,-0.00000280,-0.0000
 0162,-0.00000119,0.00000354,0.00000269,-0.00000015,0.00000052,-0.00000
 234,0.00000177,0.00000015,-0.00000123,0.00000069,-0.00007465,0.0000481
 6,0.00002328,-0.00003364,0.00000189,0.00004761,0.00001152,-0.00001132,
 0.00000592,-0.00004094,0.00000180,-0.00001365,0.00001236,-0.00002188,0
 .00002905,0.00003712,0.00005339,-0.00002283,0.00035222,-0.00027838,0.0
 0006480,-0.00001041,-0.00002141,0.00010508,0.00006473,-0.00001804,-0.0
 0021439,0.00074267,-0.00012397,-0.00115652,0.00051455,0.00019304,0.000
 67593,-0.00002711,0.00000103,0.00015634,-0.01729513,0.00761928,-0.0007
 0625,-0.00076735,-0.00140635,0.00340300,0.00045223,-0.00035921,-0.0003
 8606,-0.26273413,0.10261942,-0.01675929,0.28652493,0.00003989,0.000008
 60,0.00002218,-0.00001356,-0.00000714,-0.00001846,-0.00004116,-0.00001
 057,-0.00005440,-0.00000937,-0.00000283,0.00000151,0.00000139,0.000000
 60,-0.00000467,-0.00000484,-0.00000445,-0.00000157,0.00000186,0.000001
 70,-0.00000065,-0.00000037,0.00000110,-0.00000209,-0.00001285,0.000019
 89,0.00008366,0.00004271,0.00000060,-0.00004892,0.00000481,-0.00000314
 ,-0.00000919,0.00000482,0.00001465,0.00000942,0.00000437,-0.00001366,-
 0.00000410,-0.00001754,0.00000152,-0.00000291,-0.00016557,-0.00001005,
 -0.00009125,0.00003545,-0.00000700,-0.00003807,-0.00000028,-0.00002908
 ,0.00003697,0.00004240,0.00004819,-0.00025549,0.00015719,-0.00000734,-
 0.00025322,0.00009017,-0.00007483,0.00003654,-0.00769989,0.00319062,-0
 .00049614,-0.00108724,0.00085710,0.00151887,-0.00008605,0.00050325,-0.
 00076362,0.10309372,-0.09625084,0.00714355,-0.11240488,0.09953831,-0.0
 0002640,0.00001385,-0.00003728,0.00000142,-0.00000952,0.00001945,-0.00
 000562,-0.00000686,0.00002961,0.00000491,-0.00000437,0.00000448,0.0000
 0189,0.00000139,-0.00000180,-0.00000418,0.00000120,0.00000349,-0.00000
 050,0.00000184,-0.00000153,0.00000099,0.00000081,-0.00000033,0.0000520
 9,-0.00002444,-0.00007835,-0.00000993,0.00003081,0.00002517,-0.0000112
 9,0.,0.00002028,0.00000424,0.00002918,0.00005182,-0.00002243,-0.000015
 22,-0.00000905,-0.00002210,-0.00005306,0.00002926,0.00002060,0.0000887
 9,-0.00004241,-0.00007457,0.00004058,-0.00000389,-0.00018597,0.0000736
 8,0.00003050,0.00094135,-0.00042362,0.00197549,-0.00050648,0.00026684,
 -0.00025515,-0.00012689,-0.00009533,-0.00001909,0.02588586,-0.01276667
 ,0.00072826,0.00311745,0.00121511,-0.00443613,-0.00088515,-0.00001928,
 0.00114960,-0.01761391,0.00748049,-0.04753135,0.01497329,-0.00925073,0
 .05102514,-0.00005183,0.00002367,0.00000532,0.00001982,-0.00001153,-0.
 00001286,0.00003966,-0.00002002,0.00001429,0.00000474,0.00000188,-0.00
 000089,-0.00000206,-0.00000075,0.00000167,0.00000426,0.00000221,-0.000
 00021,-0.00000041,-0.00000172,0.00000095,0.00000022,-0.00000103,0.0000
 0118,-0.00003056,0.00000809,-0.00000781,-0.00000745,-0.00000051,0.0000
 0971,0.00001186,-0.00000893,0.00000273,0.00004458,0.00007926,-0.000028
 93,-0.00002133,-0.00002527,-0.00000170,-0.00001094,-0.00002644,-0.0000
 2814,0.00078603,0.00021727,0.00093959,-0.00019944,-0.00002991,0.000338
 33,0.00001593,0.00002486,-0.00009520,-0.00201638,-0.00110686,0.0023729
 3,0.00026748,-0.00014190,0.00028247,-0.00019143,0.00003347,-0.00004076
 ,0.00923289,0.00768655,0.01665754,0.00073913,0.00041571,-0.00083383,0.
 00059874,0.00012553,-0.00089830,-0.10346451,-0.04283675,-0.10263454,-0
 .01247927,-0.01122686,-0.02327878,0.10907389,-0.00000035,0.00000399,0.
 00000324,-0.00000057,-0.00000457,-0.00000475,-0.00000344,-0.00000615,-
 0.00000790,-0.00000142,0.00000048,-0.00000160,-0.00000059,-0.00000052,
 0.00000033,0.00000048,-0.00000024,-0.00000059,0.00000025,-0.00000023,0
 .00000037,-0.00000017,-0.00000026,0.00000005,0.00000681,-0.00000608,0.
 00000289,0.00001010,0.00001040,-0.00000379,0.00000139,-0.00000281,0.00
 000447,0.00008363,0.00002881,-0.00011695,0.00000033,0.00002026,-0.0000
 1562,-0.00001943,-0.00001761,-0.00000831,0.00003824,0.00059845,0.00035
 938,-0.00008045,-0.00000750,0.00011815,-0.00001959,-0.00000356,0.00004
 747,-0.00094937,0.00000801,0.00090757,-0.00025640,-0.00004755,-0.00022
 358,0.00017314,0.00044857,0.00022817,0.00441990,0.00155938,0.00712856,
 0.00005108,0.00001356,-0.00044986,0.00057901,0.00038377,-0.00026167,-0
 .04267103,-0.07938231,-0.07718536,0.00598568,0.00483306,0.01265117,0.0
 4745172,0.08127260,0.00023620,-0.00017838,0.00003100,-0.00007617,0.000
 10538,0.00002976,-0.00019608,0.00013961,-0.00009420,-0.00002827,0.0000
 1519,-0.00001096,0.00000177,-0.00000171,0.00000535,0.00000090,-0.00000
 853,-0.00000947,0.00000068,-0.00000060,0.00000145,-0.00000356,0.000000
 51,-0.00000107,0.00010615,-0.00003602,0.00009260,0.00001384,-0.0000694
 5,-0.00001187,-0.00002716,0.00004164,-0.00004982,-0.00004348,-0.000196
 37,-0.00003011,0.00004482,0.00011307,-0.00003842,-0.00000565,0.0000281
 4,0.00006347,-0.00149218,-0.00073050,-0.00091607,0.00035889,0.00005095
 ,-0.00062168,0.00009989,-0.00003262,0.00000700,0.00516261,0.00215925,-
 0.00325342,-0.00002146,0.00014010,0.00022087,0.00010028,-0.00001628,0.
 00026521,-0.01353841,-0.00942494,-0.02052290,0.00014955,-0.00042355,0.
 00099371,-0.00042872,0.00044757,0.00092809,-0.10116478,-0.07634470,-0.
 22824338,-0.00055072,0.00002725,-0.00129835,0.10910339,0.08327839,0.24
 927026,-0.00008430,0.00008098,0.00000382,0.00002810,-0.00004111,-0.000
 01951,0.00010362,-0.00004133,0.00006611,0.00001074,-0.00000826,0.00000
 291,0.00000011,0.00000036,-0.00000212,-0.00000011,0.00000354,0.0000039
 5,-0.00000007,0.00000007,-0.00000024,0.00000141,-0.00000027,-0.0000000
 8,-0.00005439,0.00002675,-0.00006504,-0.00006129,0.00003072,0.00001493
 ,-0.00000265,-0.00000549,0.00001992,-0.00010037,-0.00006183,-0.0000358
 2,0.00004443,0.00001615,0.00006100,0.00010643,0.00004602,0.00003696,-0
 .00008794,0.00004278,-0.00013273,-0.00000075,0.00002562,0.00000203,-0.
 00004816,0.00000537,0.00001264,0.00016648,0.00015604,-0.00113856,0.000
 01174,0.00007904,0.00004358,0.00032528,0.00038485,0.00006184,-0.003116
 21,-0.01960906,0.00234251,0.00043968,-0.00003732,-0.00092154,-0.001300
 03,-0.00070143,0.00361932,-0.05072586,-0.03068834,0.00197470,0.0046917
 9,0.02925169,-0.00222990,-0.00236362,-0.01479891,0.00219767,0.05201593
 ,-0.00009575,0.00003223,-0.00004639,0.00003043,-0.00001383,0.00002358,
 0.00010278,-0.00002801,0.00008578,0.00001980,-0.00000597,0.00000366,-0
 .00000047,0.00000070,0.00000274,0.00000200,0.00000758,0.00000586,-0.00
 000253,0.00000005,-0.00000085,0.00000211,-0.00000087,0.00000207,-0.000
 02759,0.00001294,-0.00011102,-0.00003099,0.00003216,-0.00000544,0.0000
 0049,-0.00000482,0.00001822,-0.00002123,-0.00002818,-0.00018454,0.0000
 1679,0.00004357,0.00001565,0.00006723,0.00001744,0.00001841,0.00007205
 ,0.00037512,0.00010584,-0.00002941,-0.00001151,0.00008691,-0.00002839,
 -0.00001603,0.00001012,0.00028459,0.00064045,-0.00071740,-0.00004882,-
 0.00003587,0.00003137,0.00031422,0.00025874,0.00063699,-0.00117141,-0.
 00661962,0.00066977,-0.00035298,0.00062665,0.00015076,-0.00107558,0.00
 136588,0.00108091,-0.03138916,-0.30761754,0.02404802,-0.00184978,-0.01
 259828,0.00077336,-0.00063177,-0.00970195,0.00091662,0.03584336,0.3332
 6897,0.00008186,-0.00005551,0.00001198,-0.00002706,0.00002601,0.000000
 41,-0.00011266,0.00002355,-0.00008916,-0.00001472,0.00000638,0.0000007
 0,0.00000058,0.00000045,-0.00000230,-0.00000271,-0.00000600,-0.0000048
 2,0.00000129,0.00000050,-0.00000009,-0.00000162,0.00000114,-0.00000112
 ,0.00005732,-0.00002705,0.00009114,0.00006904,-0.00004529,0.00001015,0
 .00000829,0.00000096,-0.00002134,0.00008452,0.00008849,-0.00000168,-0.
 00007167,-0.00004565,-0.00008523,-0.00015350,-0.00010609,-0.00003482,0
 .00017837,-0.00015503,0.00014539,-0.00001026,-0.00003125,0.00001213,0.
 00001019,0.00000386,-0.00001337,0.00010011,0.00154924,0.00183635,-0.00
 004136,-0.00003621,-0.00006040,-0.00017609,-0.00070071,-0.00026494,0.0
 0300801,0.02797110,-0.00395693,-0.00051111,-0.00068138,0.00115242,0.00
 310554,0.00103953,-0.00432570,0.00189516,0.02283462,-0.04860070,0.0003
 0899,0.00241553,-0.00137785,-0.00186814,-0.02645020,0.00319295,-0.0059
 1838,-0.02762098,0.05238686\\0.00000028,0.00000007,-0.00000021,0.00000
 072,0.00000018,-0.00000033,0.00000005,-0.00000035,-0.00000008,0.000000
 12,0.00000012,-0.00000006,-0.00000023,-0.00000010,0.00000013,0.0000002
 0,0.00000028,-0.00000001,0.00000037,0.00000050,-0.00000014,0.,0.000000
 32,0.00000007,0.00000019,-0.00000025,-0.00000026,0.00000033,0.00000005
 ,-0.00000023,0.00000051,-0.00000036,-0.00000046,-0.00000003,-0.0000005
 5,-0.00000020,-0.00000004,-0.00000088,-0.00000021,0.00000016,-0.000000
 60,-0.00000028,-0.00000032,-0.00000041,0.00000010,-0.00000049,-0.00000
 041,0.00000025,-0.00000049,-0.00000062,0.00000018,-0.00000027,0.000000
 06,0.00000022,-0.00000019,0.00000028,0.00000018,-0.00000056,0.00000012
 ,0.00000043,-0.00000006,0.00000010,0.00000011,-0.00000019,-0.00000014,
 0.00000009,0.00000020,0.00000007,-0.00000013,-0.00000005,0.00000054,0.
 00000018,0.00000004,0.00000080,0.00000018,0.00000009,0.00000058,0.0000
 0009,-0.00000034,0.00000060,0.00000040\\\@


 I DO NOT KNOW WHAT I MAY APPEAR TO THE WORLD; BUT TO MYSELF
 I SEEM TO HAVE BEEN ONLY LIKE A BOY PLAYING ON THE SEASHORE,
 AND DIVERTING MYSELF IN NOW AND THEN FINDING A SMOOTHER PEBBLE
 OR A PRETTIER SHELL THAN ORDINARY, WHILST THE GREAT OCEAN OF
 TRUTH LAY ALL UNDISCOVERED BEFORE ME.
                                          -- NEWTON (1642-1726)
 Job cpu time:       1 days 20 hours 43 minutes 10.0 seconds.
 Elapsed time:       0 days  1 hours 14 minutes 45.0 seconds.
 File lengths (MBytes):  RWF=    656 Int=      0 D2E=      0 Chk=     26 Scr=      1
 Normal termination of Gaussian 16 at Wed Sep 25 12:56:19 2019.
