 Entering Gaussian System, Link 0=g16
 Initial command:
 /nopt/nrel/apps/gaussian/g16B/g16/l1.exe "/dev/shm/Gau-214416.inp" -scrdir="/dev/shm/"
 Default is to use a total of  36 processors:
                               36 via shared-memory
                                1 via Linda
 Entering Link 1 = /nopt/nrel/apps/gaussian/g16B/g16/l1.exe PID=    214417.
  
 Copyright (c) 1988-2017, Gaussian, Inc.  All Rights Reserved.
  
 This is part of the Gaussian(R) 16 program.  It is based on
 the Gaussian(R) 09 system (copyright 2009, Gaussian, Inc.),
...

 Cite this work as:
 Gaussian 16, Revision B.01,
 M. J. Frisch, G. W. Trucks, H. B. Schlegel, G. E. Scuseria, 
 M. A. Robb, J. R. Cheeseman, G. Scalmani, V. Barone, 
 G. A. Petersson, H. Nakatsuji, X. Li, M. Caricato, A. V. Marenich, 
 J. Bloino, B. G. Janesko, R. Gomperts, B. Mennucci, H. P. Hratchian, 
 J. V. Ortiz, A. F. Izmaylov, J. L. Sonnenberg, D. Williams-Young, 
 F. Ding, F. Lipparini, F. Egidi, J. Goings, B. Peng, A. Petrone, 
 T. Henderson, D. Ranasinghe, V. G. Zakrzewski, J. Gao, N. Rega, 
 G. Zheng, W. Liang, M. Hada, M. Ehara, K. Toyota, R. Fukuda, 
 J. Hasegawa, M. Ishida, T. Nakajima, Y. Honda, O. Kitao, H. Nakai, 
 T. Vreven, K. Throssell, J. A. Montgomery, Jr., J. E. Peralta, 
 F. Ogliaro, M. J. Bearpark, J. J. Heyd, E. N. Brothers, K. N. Kudin, 
 V. N. Staroverov, T. A. Keith, R. Kobayashi, J. Normand, 
 K. Raghavachari, A. P. Rendell, J. C. Burant, S. S. Iyengar, 
 J. Tomasi, M. Cossi, J. M. Millam, M. Klene, C. Adamo, R. Cammi, 
 J. W. Ochterski, R. L. Martin, K. Morokuma, O. Farkas, 
 J. B. Foresman, and D. J. Fox, Gaussian, Inc., Wallingford CT, 2016.
 
 ******************************************
 Gaussian 16:  ES64L-G16RevB.01 20-Dec-2017
                24-Sep-2019 
 ******************************************
 %RWF=/dev/shm/,5GB,/tmp/scratch/1436864/,-1
 %NoSave
 %Chk=/dev/shm/hexyl_acrylate_239.chk
 Default route: CacheSize=180224 MaxDisk=256GB
 ----------------------------------------------------------------------
 # m062x/Def2TZVP nosymm scf=xqc opt freq=NoRaman CPHF=Grid=Fine SCRF=(
 Solvent=EthylEthanoate,Read) geom=connectivity
 ----------------------------------------------------------------------
 1/4=180224,18=20,19=15,26=3,38=1,40=2,57=2/1,3;
 2/4=180224,9=110,12=2,15=1,17=6,18=5,40=1/2;
 3/4=180224,5=44,7=101,11=2,25=1,30=1,70=2203,71=1,72=118,74=-55/1,2,3;
 4/4=180224/1;
 5/4=180224,5=2,8=3,13=1,38=5,53=118/2,8;
 6/4=180224,7=2,8=2,9=2,10=2,28=1/1;
 7/4=180224,30=1/1,2,3,16;
 1/4=180224,18=20,19=15,26=3/3(2);
 2/4=180224,9=110,15=1/2;
 99/4=180224/99;
 2/4=180224,9=110,15=1/2;
 3/4=180224,5=44,7=101,11=2,25=1,30=1,70=2205,71=1,72=118,74=-55/1,2,3;
 4/4=180224,5=5,16=3,69=1/1;
 5/4=180224,5=2,8=3,13=1,38=5,53=118/2,8;
 7/4=180224,30=1/1,2,3,16;
 1/4=180224,18=20,19=15,26=3/3(-5);
 2/4=180224,9=110,15=1/2;
 6/4=180224,7=2,8=2,9=2,10=2,19=2,28=1/1;
 99/4=180224,9=1/99;
 ----------------------------------------------------------------------
 obabel hexyl_acrylate_0.pdb -O hexyl_acrylate.pdb --confab --conf10000
 ----------------------------------------------------------------------
 Symbolic Z-matrix:
 Charge =  0 Multiplicity = 1
 C                     1.408     2.269     0.994 
 O                     2.046     3.103     0.397 
 O                     0.091     2.349     1.183 
 C                     2.02      1.056     1.587 
 H                     1.315     0.408     2.09 
 C                     3.314     0.775     1.517 
 H                     4.006     1.434     1.009 
 H                     3.712    -0.125     1.966 
 C                    -0.72      2.392    -0.001 
 H                    -0.071     2.301    -0.875 
 H                    -1.397     1.535     0.006 
 C                    -1.476     3.699    -0.003 
 H                    -2.125     3.739     0.876 
 H                    -2.123     3.737    -0.883 
 C                    -0.529     4.893    -0.003 
 H                     0.127     4.839    -0.878 
 H                     0.123     4.842     0.876 
 C                    -1.264     6.227    -0.007 
 H                    -1.919     6.282     0.868 
 H                    -1.917     6.278    -0.885 
 C                    -0.325     7.427    -0.009 
 H                     0.328     7.369    -0.885 
 H                     0.328     7.373     0.866 
 C                    -1.072     8.754    -0.012 
 H                    -1.71      8.842     0.87 
 H                    -0.385     9.601    -0.013 
 H                    -1.71      8.838    -0.893 
 

 GradGradGradGradGradGradGradGradGradGradGradGradGradGradGradGradGradGrad
 Berny optimization.
 Initialization pass.
                           ----------------------------
                           !    Initial Parameters    !
                           ! (Angstroms and Degrees)  !
 --------------------------                            --------------------------
 ! Name  Definition              Value          Derivative Info.                !
 --------------------------------------------------------------------------------
 ! R1    R(1,2)                  1.2079         estimate D2E/DX2                !
 ! R2    R(1,3)                  1.3329         estimate D2E/DX2                !
 ! R3    R(1,4)                  1.4824         estimate D2E/DX2                !
 ! R4    R(3,9)                  1.4358         estimate D2E/DX2                !
 ! R5    R(4,5)                  1.0816         estimate D2E/DX2                !
 ! R6    R(4,6)                  1.326          estimate D2E/DX2                !
 ! R7    R(6,7)                  1.0822         estimate D2E/DX2                !
 ! R8    R(6,8)                  1.0817         estimate D2E/DX2                !
 ! R9    R(9,10)                 1.0924         estimate D2E/DX2                !
 ! R10   R(9,11)                 1.0922         estimate D2E/DX2                !
 ! R11   R(9,12)                 1.5099         estimate D2E/DX2                !
 ! R12   R(12,13)                1.0934         estimate D2E/DX2                !
 ! R13   R(12,14)                1.0929         estimate D2E/DX2                !
 ! R14   R(12,15)                1.524          estimate D2E/DX2                !
 ! R15   R(15,16)                1.0949         estimate D2E/DX2                !
 ! R16   R(15,17)                1.0956         estimate D2E/DX2                !
 ! R17   R(15,18)                1.5231         estimate D2E/DX2                !
 ! R18   R(18,19)                1.0944         estimate D2E/DX2                !
 ! R19   R(18,20)                1.0954         estimate D2E/DX2                !
 ! R20   R(18,21)                1.5237         estimate D2E/DX2                !
 ! R21   R(21,22)                1.0941         estimate D2E/DX2                !
 ! R22   R(21,23)                1.0931         estimate D2E/DX2                !
 ! R23   R(21,24)                1.5228         estimate D2E/DX2                !
 ! R24   R(24,25)                1.0921         estimate D2E/DX2                !
 ! R25   R(24,26)                1.0906         estimate D2E/DX2                !
 ! R26   R(24,27)                1.091          estimate D2E/DX2                !
 ! A1    A(2,1,3)              123.4037         estimate D2E/DX2                !
 ! A2    A(2,1,4)              122.999          estimate D2E/DX2                !
 ! A3    A(3,1,4)              113.5973         estimate D2E/DX2                !
 ! A4    A(1,3,9)              116.2945         estimate D2E/DX2                !
 ! A5    A(1,4,5)              114.0261         estimate D2E/DX2                !
 ! A6    A(1,4,6)              123.7215         estimate D2E/DX2                !
 ! A7    A(5,4,6)              122.2524         estimate D2E/DX2                !
 ! A8    A(4,6,7)              121.314          estimate D2E/DX2                !
 ! A9    A(4,6,8)              120.8958         estimate D2E/DX2                !
 ! A10   A(7,6,8)              117.7901         estimate D2E/DX2                !
 ! A11   A(3,9,10)             108.7656         estimate D2E/DX2                !
 ! A12   A(3,9,11)             108.7446         estimate D2E/DX2                !
 ! A13   A(3,9,12)             108.0495         estimate D2E/DX2                !
 ! A14   A(10,9,11)            107.9403         estimate D2E/DX2                !
 ! A15   A(10,9,12)            111.6239         estimate D2E/DX2                !
 ! A16   A(11,9,12)            111.6464         estimate D2E/DX2                !
 ! A17   A(9,12,13)            109.1358         estimate D2E/DX2                !
 ! A18   A(9,12,14)            109.1216         estimate D2E/DX2                !
 ! A19   A(9,12,15)            111.5348         estimate D2E/DX2                !
 ! A20   A(13,12,14)           107.1368         estimate D2E/DX2                !
 ! A21   A(13,12,15)           109.8887         estimate D2E/DX2                !
 ! A22   A(14,12,15)           109.9153         estimate D2E/DX2                !
 ! A23   A(12,15,16)           109.4911         estimate D2E/DX2                !
 ! A24   A(12,15,17)           109.4712         estimate D2E/DX2                !
 ! A25   A(12,15,18)           112.7272         estimate D2E/DX2                !
 ! A26   A(16,15,17)           106.398          estimate D2E/DX2                !
 ! A27   A(16,15,18)           109.282          estimate D2E/DX2                !
 ! A28   A(17,15,18)           109.2724         estimate D2E/DX2                !
 ! A29   A(15,18,19)           109.3138         estimate D2E/DX2                !
 ! A30   A(15,18,20)           109.3027         estimate D2E/DX2                !
 ! A31   A(15,18,21)           113.1033         estimate D2E/DX2                !
 ! A32   A(19,18,20)           106.3633         estimate D2E/DX2                !
 ! A33   A(19,18,21)           109.2873         estimate D2E/DX2                !
 ! A34   A(20,18,21)           109.2475         estimate D2E/DX2                !
 ! A35   A(18,21,22)           109.0924         estimate D2E/DX2                !
 ! A36   A(18,21,23)           109.1579         estimate D2E/DX2                !
 ! A37   A(18,21,24)           112.5807         estimate D2E/DX2                !
 ! A38   A(22,21,23)           106.3633         estimate D2E/DX2                !
 ! A39   A(22,21,24)           109.7172         estimate D2E/DX2                !
 ! A40   A(23,21,24)           109.7341         estimate D2E/DX2                !
 ! A41   A(21,24,25)           110.8053         estimate D2E/DX2                !
 ! A42   A(21,24,26)           111.5784         estimate D2E/DX2                !
 ! A43   A(21,24,27)           110.827          estimate D2E/DX2                !
 ! A44   A(25,24,26)           107.8281         estimate D2E/DX2                !
 ! A45   A(25,24,27)           107.7179         estimate D2E/DX2                !
 ! A46   A(26,24,27)           107.9293         estimate D2E/DX2                !
 ! D1    D(2,1,3,9)             60.0381         estimate D2E/DX2                !
 ! D2    D(4,1,3,9)           -119.9571         estimate D2E/DX2                !
 ! D3    D(2,1,4,5)            179.9143         estimate D2E/DX2                !
 ! D4    D(2,1,4,6)             -0.0615         estimate D2E/DX2                !
 ! D5    D(3,1,4,5)             -0.0905         estimate D2E/DX2                !
 ! D6    D(3,1,4,6)            179.9337         estimate D2E/DX2                !
 ! D7    D(1,3,9,10)             2.6448         estimate D2E/DX2                !
 ! D8    D(1,3,9,11)           119.9569         estimate D2E/DX2                !
 ! D9    D(1,3,9,12)          -118.6916         estimate D2E/DX2                !
 ! D10   D(1,4,6,7)             -0.0769         estimate D2E/DX2                !
 ! D11   D(1,4,6,8)           -179.9432         estimate D2E/DX2                !
 ! D12   D(5,4,6,7)            179.9492         estimate D2E/DX2                !
 ! D13   D(5,4,6,8)              0.083          estimate D2E/DX2                !
 ! D14   D(3,9,12,13)          -61.5332         estimate D2E/DX2                !
 ! D15   D(3,9,12,14)         -178.3026         estimate D2E/DX2                !
 ! D16   D(3,9,12,15)           60.0701         estimate D2E/DX2                !
 ! D17   D(10,9,12,13)         178.9195         estimate D2E/DX2                !
 ! D18   D(10,9,12,14)          62.1501         estimate D2E/DX2                !
 ! D19   D(10,9,12,15)         -59.4772         estimate D2E/DX2                !
 ! D20   D(11,9,12,13)          58.0018         estimate D2E/DX2                !
 ! D21   D(11,9,12,14)         -58.7677         estimate D2E/DX2                !
 ! D22   D(11,9,12,15)         179.6051         estimate D2E/DX2                !
 ! D23   D(9,12,15,16)          58.0457         estimate D2E/DX2                !
 ! D24   D(9,12,15,17)         -58.2352         estimate D2E/DX2                !
 ! D25   D(9,12,15,18)         179.9184         estimate D2E/DX2                !
 ! D26   D(13,12,15,16)        179.2117         estimate D2E/DX2                !
 ! D27   D(13,12,15,17)         62.9307         estimate D2E/DX2                !
 ! D28   D(13,12,15,18)        -58.9156         estimate D2E/DX2                !
 ! D29   D(14,12,15,16)        -63.1206         estimate D2E/DX2                !
 ! D30   D(14,12,15,17)       -179.4015         estimate D2E/DX2                !
 ! D31   D(14,12,15,18)         58.7522         estimate D2E/DX2                !
 ! D32   D(12,15,18,19)         58.073          estimate D2E/DX2                !
 ! D33   D(12,15,18,20)        -57.9708         estimate D2E/DX2                !
 ! D34   D(12,15,18,21)       -179.9194         estimate D2E/DX2                !
 ! D35   D(16,15,18,19)       -179.9361         estimate D2E/DX2                !
 ! D36   D(16,15,18,20)         64.02           estimate D2E/DX2                !
 ! D37   D(16,15,18,21)        -57.9285         estimate D2E/DX2                !
 ! D38   D(17,15,18,19)        -63.8856         estimate D2E/DX2                !
 ! D39   D(17,15,18,20)       -179.9295         estimate D2E/DX2                !
 ! D40   D(17,15,18,21)         58.122          estimate D2E/DX2                !
 ! D41   D(15,18,21,22)         57.9944         estimate D2E/DX2                !
 ! D42   D(15,18,21,23)        -57.8454         estimate D2E/DX2                !
 ! D43   D(15,18,21,24)       -179.9595         estimate D2E/DX2                !
 ! D44   D(19,18,21,22)       -179.9832         estimate D2E/DX2                !
 ! D45   D(19,18,21,23)         64.177          estimate D2E/DX2                !
 ! D46   D(19,18,21,24)        -57.937          estimate D2E/DX2                !
 ! D47   D(20,18,21,22)        -63.9851         estimate D2E/DX2                !
 ! D48   D(20,18,21,23)       -179.8249         estimate D2E/DX2                !
 ! D49   D(20,18,21,24)         58.061          estimate D2E/DX2                !
 ! D50   D(18,21,24,25)         59.8133         estimate D2E/DX2                !
 ! D51   D(18,21,24,26)        179.9773         estimate D2E/DX2                !
 ! D52   D(18,21,24,27)        -59.7156         estimate D2E/DX2                !
 ! D53   D(22,21,24,25)       -178.4945         estimate D2E/DX2                !
 ! D54   D(22,21,24,26)        -58.3305         estimate D2E/DX2                !
 ! D55   D(22,21,24,27)         61.9766         estimate D2E/DX2                !
 ! D56   D(23,21,24,25)        -61.9746         estimate D2E/DX2                !
 ! D57   D(23,21,24,26)         58.1895         estimate D2E/DX2                !
 ! D58   D(23,21,24,27)        178.4965         estimate D2E/DX2                !
 --------------------------------------------------------------------------------
 Trust Radius=3.00D-01 FncErr=1.00D-07 GrdErr=1.00D-06 EigMax=2.50D+02 EigMin=1.00D-04
 Number of steps in this run=    140 maximum allowed number of steps=    162.
 GradGradGradGradGradGradGradGradGradGradGradGradGradGradGradGradGradGrad

                          Input orientation:                          
 ---------------------------------------------------------------------
 Center     Atomic      Atomic             Coordinates (Angstroms)
 Number     Number       Type             X           Y           Z
 ---------------------------------------------------------------------
      1          6           0        1.408000    2.269000    0.994000
      2          8           0        2.046000    3.103000    0.397000
      3          8           0        0.091000    2.349000    1.183000
      4          6           0        2.020000    1.056000    1.587000
      5          1           0        1.315000    0.408000    2.090000
      6          6           0        3.314000    0.775000    1.517000
      7          1           0        4.006000    1.434000    1.009000
      8          1           0        3.712000   -0.125000    1.966000
      9          6           0       -0.720000    2.392000   -0.001000
     10          1           0       -0.071000    2.301000   -0.875000
     11          1           0       -1.397000    1.535000    0.006000
     12          6           0       -1.476000    3.699000   -0.003000
     13          1           0       -2.125000    3.739000    0.876000
     14          1           0       -2.123000    3.737000   -0.883000
     15          6           0       -0.529000    4.893000   -0.003000
     16          1           0        0.127000    4.839000   -0.878000
     17          1           0        0.123000    4.842000    0.876000
     18          6           0       -1.264000    6.227000   -0.007000
     19          1           0       -1.919000    6.282000    0.868000
     20          1           0       -1.917000    6.278000   -0.885000
     21          6           0       -0.325000    7.427000   -0.009000
     22          1           0        0.328000    7.369000   -0.885000
     23          1           0        0.328000    7.373000    0.866000
     24          6           0       -1.072000    8.754000   -0.012000
     25          1           0       -1.710000    8.842000    0.870000
     26          1           0       -0.385000    9.601000   -0.013000
     27          1           0       -1.710000    8.838000   -0.893000
 ---------------------------------------------------------------------
                    Distance matrix (angstroms):
                    1          2          3          4          5
     1  C    0.000000
     2  O    1.207894   0.000000
     3  O    1.332895   2.237931   0.000000
     4  C    1.482418   2.367907   2.357139   0.000000
     5  H    2.161755   3.265522   2.467449   1.081637   0.000000
     6  C    2.477580   2.877813   3.602327   1.326008   2.111639
...    27  H    1.764141   0.000000
 Symmetry turned off by external request.
 Stoichiometry    C9H16O2
 Framework group  C1[X(C9H16O2)]
 Deg. of freedom    75
 Full point group                 C1      NOp   1
 Rotational constants (GHZ):           2.3561170           0.3999003           0.3549989
 Standard basis: def2TZVP (5D, 7F)
   437 basis functions,   689 primitive gaussians,   492 cartesian basis functions
    43 alpha electrons       43 beta electrons
       nuclear repulsion energy       611.1643267932 Hartrees.
 NAtoms=   27 NActive=   27 NUniq=   27 SFac= 1.00D+00 NAtFMM=   60 NAOKFM=F Big=F
 Integral buffers will be    131072 words long.
 Raffenetti 2 integral format.
 Two-electron integral symmetry is turned off.
 Using the following non-standard input for PCM:
 PDENS=7.0
 --- end of non-standard input.
 ------------------------------------------------------------------------------
 Polarizable Continuum Model (PCM)
 =================================
 Model                : PCM.
 Atomic radii         : UFF (Universal Force Field).
 Polarization charges : Total charges.
 Charge compensation  : None.
 Solution method      : On-the-fly selection.
 Cavity type          : Scaled VdW (van der Waals Surface) (Alpha=1.100).
 Cavity algorithm     : GePol (No added spheres)
                        Default sphere list used, NSphG=   27.
                        Lebedev-Laikov grids with approx.  7.0 points / Ang**2.
                        Smoothing algorithm: York/Karplus (Gamma=1.0000).
                        Polarization charges: spherical gaussians, with
                                              point-specific exponents (IZeta= 3).
                        Self-potential: point-specific (ISelfS= 7).
                        Self-field    : sphere-specific E.n sum rule (ISelfD= 2).
 1st derivatives      : Analytical E(r).r(x)/FMM algorithm (CHGder, D1EAlg=3).
                        Cavity 1st derivative terms included.
 Solvent              : EthylEthanoate, Eps=   5.986700 Eps(inf)=   1.883207
 ------------------------------------------------------------------------------
 One-electron integrals computed using PRISM.
   1 Symmetry operations used in ECPInt.
 ECPInt:  NShTT=   17205 NPrTT=   50376 LenC2=   15542 LenP2D=   34291.
 LDataN:  DoStor=T MaxTD1= 6 Len=  172
 NBasis=   437 RedAO= T EigKep=  7.74D-05  NBF=   437
 NBsUse=   437 1.00D-06 EigRej= -1.00D+00 NBFU=   437
 ExpMin= 9.52D-02 ExpMax= 2.70D+04 ExpMxC= 9.22D+02 IAcc=3 IRadAn=         5 AccDes= 0.00D+00
 Harris functional with IExCor= 1009 and IRadAn=       5 diagonalized for initial guess.
 HarFok:  IExCor= 1009 AccDes= 0.00D+00 IRadAn=         5 IDoV= 1 UseB2=F ITyADJ=14
 ICtDFT=  3500011 ScaDFX=  1.000000  1.000000  1.000000  1.000000
 FoFCou: FMM=F IPFlag=           0 FMFlag=      100000 FMFlg1=           0
         NFxFlg=           0 DoJE=T BraDBF=F KetDBF=T FulRan=T
         wScrn=  0.000000 ICntrl=       500 IOpCl=  0 I1Cent=   200000004 NGrid=           0
         NMat0=    1 NMatS0=      1 NMatT0=    0 NMatD0=    1 NMtDS0=    0 NMtDT0=    0
 Symmetry not used in FoFCou.
 Requested convergence on RMS density matrix=1.00D-08 within  32 cycles.
 Requested convergence on MAX density matrix=1.00D-06.
 Requested convergence on             energy=1.00D-06.
 No special actions if energy rises.
 Inv3:  Mode=1 IEnd=    28867212.
 Iteration    1 A*A^-1 deviation from unit magnitude is 3.11D-15 for    517.
 Iteration    1 A*A^-1 deviation from orthogonality  is 1.89D-15 for   2656    762.
 Iteration    1 A^-1*A deviation from unit magnitude is 3.22D-15 for   1268.
 Iteration    1 A^-1*A deviation from orthogonality  is 2.22D-15 for   2635    760.
 Error on total polarization charges =  0.01273
 SCF Done:  E(RM062X) =  -502.987307507     A.U. after   13 cycles
            NFock= 13  Conv=0.29D-08     -V/T= 2.0047
 QCSCF skips out because SCF is already converged.

 **********************************************************************

            Population analysis using the SCF Density.

 **********************************************************************

 Alpha  occ. eigenvalues --  -19.66025 -19.62334 -10.67892 -10.59650 -10.56011
 Alpha  occ. eigenvalues --  -10.55560 -10.53035 -10.52189 -10.52049 -10.51980
... Alpha virt. eigenvalues --   22.49255  22.56190  22.61629  22.62449  22.69066
 Alpha virt. eigenvalues --   22.79460  23.43967  44.06312  44.36616
          Condensed to atoms (all electrons):
               1          2          3          4          5          6
     1  C    4.385595   0.661879   0.321830   0.374291  -0.030742  -0.066606
     2  O    0.661879   7.875416  -0.086858  -0.124225   0.004410   0.019843
...
    26  H   -0.024672   0.529262  -0.024622
    27  H   -0.032309  -0.024622   0.546644
 Mulliken charges:
               1
     1  C    0.399748
     2  O   -0.360449
     3  O   -0.308148
     4  C   -0.178162
     5  H    0.159190
     6  C   -0.263273
     7  H    0.163294
     8  H    0.161595
     9  C   -0.142225
    10  H    0.174380
    11  H    0.151742
    12  C   -0.244172
    13  H    0.151297
    14  H    0.145323
    15  C   -0.308660
    16  H    0.143441
    17  H    0.147702
    18  C   -0.276506
    19  H    0.137438
    20  H    0.136615
    21  C   -0.234631
    22  H    0.131506
    23  H    0.132851
    24  C   -0.441368
    25  H    0.138787
    26  H    0.144335
    27  H    0.138351
 Sum of Mulliken charges =  -0.00000
 Mulliken charges with hydrogens summed into heavy atoms:
               1
     1  C    0.399748
     2  O   -0.360449
     3  O   -0.308148
     4  C   -0.018972
     6  C    0.061615
     9  C    0.183896
    12  C    0.052449
    15  C   -0.017517
    18  C   -0.002453
    21  C    0.029727
    24  C   -0.019896
 Electronic spatial extent (au):  <R**2>=           8226.0760
 Charge=             -0.0000 electrons
 Dipole moment (field-independent basis, Debye):
    X=             -1.0625    Y=             -2.6141    Z=             -0.0348  Tot=              2.8219
 Quadrupole moment (field-independent basis, Debye-Ang):
   XX=            -66.8433   YY=            -81.1949   ZZ=            -68.1878
   XY=             -8.8412   XZ=              3.3963   YZ=             -3.2254
 Traceless Quadrupole moment (field-independent basis, Debye-Ang):
   XX=              5.2321   YY=             -9.1196   ZZ=              3.8875
   XY=             -8.8412   XZ=              3.3963   YZ=             -3.2254
 Octapole moment (field-independent basis, Debye-Ang**2):
  XXX=            -29.6864  YYY=           -909.7433  ZZZ=            -99.4730  XYY=            -40.6511
  XXY=           -301.0871  XXZ=            -21.9425  XZZ=            -13.0777  YZZ=           -282.6151
  YYZ=            -39.5115  XYZ=             -1.3287
 Hexadecapole moment (field-independent basis, Debye-Ang**3):
 XXXX=          -1073.0442 YYYY=         -10285.1579 ZZZZ=           -389.6784 XXXY=            352.0578
 XXXZ=           -155.7788 YYYX=            367.0907 YYYZ=           -153.6349 ZZZX=           -196.0619
 ZZZY=           -152.1258 XXYY=          -1926.3277 XXZZ=           -243.1255 YYZZ=          -1684.4205
 XXYZ=            -53.4439 YYXZ=            -68.7703 ZZXY=            112.1292
 N-N= 6.111643267932D+02 E-N=-2.394311010798D+03  KE= 5.006108322355D+02
   1 Symmetry operations used in ECPInt.
 ECPInt:  NShTT=   17205 NPrTT=   50376 LenC2=   15542 LenP2D=   34291.
 LDataN:  DoStor=T MaxTD1= 7 Len=  274
 D1PCM: PCM CHGder 1st derivatives, ID1Alg=3 FixD1E=F DoIter=F DoCFld=F I1PDM=0.
 Calling FoFJK, ICntrl=      2127 FMM=F ISym2X=0 I1Cent= 0 IOpClX= 0 NMat=1 NMatS=1 NMatT=0.
 -------------------------------------------------------------------
 Center     Atomic                   Forces (Hartrees/Bohr)
 Number     Number              X              Y              Z
 -------------------------------------------------------------------
      1        6           0.026635525    0.006538917   -0.005342755
      2        8          -0.006139169   -0.004832247   -0.001156752
      3        8          -0.008683121   -0.016334664    0.003086353
      4        6          -0.005321416   -0.001984539    0.008462956
      5        1           0.001622643   -0.002650561    0.001175628
      6        6          -0.001750467    0.001839490   -0.000981085
      7        1          -0.000300000    0.001284234   -0.000225834
      8        1          -0.000134700   -0.000353860   -0.000519125
      9        6          -0.004871767    0.008584258   -0.004344497
     10        1          -0.000287650    0.002369735    0.000035612
     11        1           0.002184079    0.000013809    0.004222337
     12        6           0.001262046    0.003575909   -0.003074540
     13        1          -0.000083830   -0.000628537    0.000109884
     14        1          -0.000473203   -0.000845850   -0.000394137
     15        6          -0.001466947    0.004018874    0.000903898
     16        1           0.000126332   -0.000720166    0.000763726
     17        1          -0.001141481   -0.000259262   -0.002445668
     18        6          -0.000038105   -0.000575970   -0.000819300
     19        1          -0.000599963    0.000299973    0.000570384
     20        1          -0.000348185    0.000535701   -0.000033457
     21        6          -0.000433693   -0.000221121   -0.000481564
     22        1          -0.000013391   -0.000008397    0.000168587
     23        1           0.000289464   -0.000115944    0.000324422
     24        6           0.000442345    0.000412900    0.000656088
     25        1          -0.000020512   -0.000059740   -0.000140858
     26        1          -0.000075447    0.000044692   -0.000081499
     27        1          -0.000379391    0.000072364   -0.000438806
 -------------------------------------------------------------------
 Cartesian Forces:  Max     0.026635525 RMS     0.004333333

 GradGradGradGradGradGradGradGradGradGradGradGradGradGradGradGradGradGrad
 Berny optimization.
 FormGI is forming the generalized inverse of G from B-inverse, IUseBI=4.
 Internal  Forces:  Max     0.016067215 RMS     0.003273717
 Search for a local minimum.
 Step number   1 out of a maximum of  140
 All quantities printed in internal units (Hartrees-Bohrs-Radians)
 Mixed Optimization -- RFO/linear search
 Second derivative matrix not updated -- first step.
 ITU=  0
     Eigenvalues ---    0.00449   0.00452   0.00461   0.00464   0.00635
     Eigenvalues ---    0.00999   0.01219   0.01529   0.02112   0.02579
...
     Eigenvalues ---    0.34570   0.34698   0.34745   0.35727   0.35794
     Eigenvalues ---    0.35797   0.40172   0.58827   0.60459   1.00954
 RFO step:  Lambda=-1.07557470D-02 EMin= 4.49042075D-03
 Linear search not attempted -- first point.
 Iteration  1 RMS(Cart)=  0.20944953 RMS(Int)=  0.01306530
 Iteration  2 RMS(Cart)=  0.04426375 RMS(Int)=  0.00115229
 Iteration  3 RMS(Cart)=  0.00197259 RMS(Int)=  0.00020622
 Iteration  4 RMS(Cart)=  0.00000368 RMS(Int)=  0.00020621
 Iteration  5 RMS(Cart)=  0.00000000 RMS(Int)=  0.00020621
 Variable       Old X    -DE/DX   Delta X   Delta X   Delta X     New X
                                 (Linear)    (Quad)   (Total)
    R1        2.28259  -0.00601   0.00000  -0.00589  -0.00589   2.27670
    R2        2.51881   0.01423   0.00000   0.02376   0.02376   2.54257
...
   D58        3.11535   0.00002   0.00000   0.00018   0.00017   3.11553
         Item               Value     Threshold  Converged?
 Maximum Force            0.016067     0.000450     NO 
 RMS     Force            0.003274     0.000300     NO 
 Maximum Displacement     0.944928     0.001800     NO 
 RMS     Displacement     0.213204     0.001200     NO 
 Predicted change in Energy=-6.518669D-03
 GradGradGradGradGradGradGradGradGradGradGradGradGradGradGradGradGradGrad

                          Input orientation:                          
 ---------------------------------------------------------------------
 Center     Atomic      Atomic             Coordinates (Angstroms)
 Number     Number       Type             X           Y           Z
 ---------------------------------------------------------------------
      1          6           0        1.545752    2.000747    0.857905
      2          8           0        2.221001    2.602965    0.062378
      3          8           0        0.246917    2.276342    1.075531
      4          6           0        2.058646    0.910579    1.727443
      5          1           0        1.340896    0.461459    2.403030
      6          6           0        3.316711    0.503948    1.662498
      7          1           0        4.015775    0.968569    0.977806
      8          1           0        3.675608   -0.304770    2.284807
      9          6           0       -0.614657    2.461047   -0.070302
     10          1           0       -0.016677    2.394100   -0.981349
     11          1           0       -1.304745    1.617393   -0.047502
     12          6           0       -1.376371    3.775004   -0.006567
     13          1           0       -1.982352    3.779585    0.903698
     14          1           0       -2.072783    3.801631   -0.849541
     15          6           0       -0.493886    5.017703   -0.046033
     16          1           0        0.116907    4.999299   -0.953687
     17          1           0        0.206160    4.993336    0.791256
     18          6           0       -1.300653    6.310529    0.000734
     19          1           0       -1.910647    6.326112    0.910709
     20          1           0       -2.003015    6.335439   -0.839988
     21          6           0       -0.428803    7.559515   -0.039102
     22          1           0        0.179075    7.542590   -0.948434
     23          1           0        0.272442    7.533421    0.799917
     24          6           0       -1.243417    8.846006    0.010700
     25          1           0       -1.837726    8.893379    0.925529
     26          1           0       -0.603456    9.728584   -0.018436
     27          1           0       -1.931704    8.902486   -0.835001
 ---------------------------------------------------------------------
                    Distance matrix (angstroms):
                    1          2          3          4          5
     1  C    0.000000
     2  O    1.204778   0.000000
     3  O    1.345468   2.242804   0.000000
     4  C    1.485808   2.379700   2.360648   0.000000
     5  H    2.190613   3.292307   2.500568   1.083186   0.000000
     6  C    2.454399   2.857768   3.592985   1.323742   2.110460
...
    26  H    0.000000
    27  H    1.764500   0.000000
 Symmetry turned off by external request.
 Stoichiometry    C9H16O2
 Framework group  C1[X(C9H16O2)]
 Deg. of freedom    75
 Full point group                 C1      NOp   1
 Rotational constants (GHZ):           2.5273570           0.3562251           0.3281927
 Standard basis: def2TZVP (5D, 7F)
   437 basis functions,   689 primitive gaussians,   492 cartesian basis functions
    43 alpha electrons       43 beta electrons
       nuclear repulsion energy       600.2422852788 Hartrees.
 NAtoms=   27 NActive=   27 NUniq=   27 SFac= 1.00D+00 NAtFMM=   60 NAOKFM=F Big=F
 Integral buffers will be    131072 words long.
 Raffenetti 2 integral format.
 Two-electron integral symmetry is turned off.
 ------------------------------------------------------------------------------
 Polarizable Continuum Model (PCM)
 =================================
 Model                : PCM.
 Atomic radii         : UFF (Universal Force Field).
 Polarization charges : Total charges.
 Charge compensation  : None.
 Solution method      : On-the-fly selection.
 Cavity type          : Scaled VdW (van der Waals Surface) (Alpha=1.100).
 Cavity algorithm     : GePol (No added spheres)
                        Default sphere list used, NSphG=   27.
                        Lebedev-Laikov grids with approx.  7.0 points / Ang**2.
                        Smoothing algorithm: York/Karplus (Gamma=1.0000).
                        Polarization charges: spherical gaussians, with
                                              point-specific exponents (IZeta= 3).
                        Self-potential: point-specific (ISelfS= 7).
                        Self-field    : sphere-specific E.n sum rule (ISelfD= 2).
 1st derivatives      : Analytical E(r).r(x)/FMM algorithm (CHGder, D1EAlg=3).
                        Cavity 1st derivative terms included.
 Solvent              : EthylEthanoate, Eps=   5.986700 Eps(inf)=   1.883207
 ------------------------------------------------------------------------------
 One-electron integrals computed using PRISM.
   1 Symmetry operations used in ECPInt.
 ECPInt:  NShTT=   17205 NPrTT=   50376 LenC2=   15359 LenP2D=   33764.
 LDataN:  DoStor=T MaxTD1= 6 Len=  172
 NBasis=   437 RedAO= T EigKep=  8.46D-05  NBF=   437
 NBsUse=   437 1.00D-06 EigRej= -1.00D+00 NBFU=   437
 Initial guess from the checkpoint file:  "/dev/shm/hexyl_acrylate_239.chk"
 B after Tr=     0.013971   -0.092537   -0.097801
         Rot=    0.999988   -0.002418   -0.003141    0.002826 Ang=  -0.56 deg.
 ExpMin= 9.52D-02 ExpMax= 2.70D+04 ExpMxC= 9.22D+02 IAcc=3 IRadAn=         5 AccDes= 0.00D+00
 Harris functional with IExCor= 1009 and IRadAn=       5 diagonalized for initial guess.
 HarFok:  IExCor= 1009 AccDes= 0.00D+00 IRadAn=         5 IDoV= 1 UseB2=F ITyADJ=14
 ICtDFT=  3500011 ScaDFX=  1.000000  1.000000  1.000000  1.000000
 FoFCou: FMM=F IPFlag=           0 FMFlag=      100000 FMFlg1=           0
         NFxFlg=           0 DoJE=T BraDBF=F KetDBF=T FulRan=T
         wScrn=  0.000000 ICntrl=       500 IOpCl=  0 I1Cent=   200000004 NGrid=           0
         NMat0=    1 NMatS0=      1 NMatT0=    0 NMatD0=    1 NMtDS0=    0 NMtDT0=    0
 Symmetry not used in FoFCou.
 Requested convergence on RMS density matrix=1.00D-08 within  32 cycles.
 Requested convergence on MAX density matrix=1.00D-06.
 Requested convergence on             energy=1.00D-06.
 No special actions if energy rises.
 Inv3:  Mode=1 IEnd=    30051675.
 Iteration    1 A*A^-1 deviation from unit magnitude is 3.11D-15 for    209.
 Iteration    1 A*A^-1 deviation from orthogonality  is 1.67D-15 for   2878    285.
 Iteration    1 A^-1*A deviation from unit magnitude is 3.11D-15 for   1400.
 Iteration    1 A^-1*A deviation from orthogonality  is 2.89D-15 for   2364    380.
 Error on total polarization charges =  0.01261
 SCF Done:  E(RM062X) =  -502.994067931     A.U. after   13 cycles
            NFock= 13  Conv=0.96D-08     -V/T= 2.0050
 QCSCF skips out because SCF is already converged.
   1 Symmetry operations used in ECPInt.
 ECPInt:  NShTT=   17205 NPrTT=   50376 LenC2=   15359 LenP2D=   33764.
 LDataN:  DoStor=T MaxTD1= 7 Len=  274
 D1PCM: PCM CHGder 1st derivatives, ID1Alg=3 FixD1E=F DoIter=F DoCFld=F I1PDM=0.
 Calling FoFJK, ICntrl=      2127 FMM=F ISym2X=0 I1Cent= 0 IOpClX= 0 NMat=1 NMatS=1 NMatT=0.
 -------------------------------------------------------------------
 Center     Atomic                   Forces (Hartrees/Bohr)
 Number     Number              X              Y              Z
 -------------------------------------------------------------------
      1        6           0.006140216    0.008540083   -0.000644664
      2        8          -0.003232675   -0.003956567   -0.003490595
      3        8          -0.003869495   -0.009949260   -0.001046141
      4        6          -0.005440542    0.001907263    0.004705563
      5        1           0.000766695   -0.000020353   -0.000323188
      6        6           0.001150855    0.000244069   -0.001040614
      7        1          -0.000314855    0.000307570   -0.000038707
      8        1           0.000092244    0.000058133   -0.000039636
      9        6           0.000174868    0.005299977   -0.002542051
     10        1           0.001154521    0.001945750    0.001386291
     11        1          -0.000695389    0.000396939   -0.000222858
     12        6           0.003122249   -0.000773378    0.003039800
     13        1          -0.000370137    0.000472228    0.000130180
     14        1           0.000010931   -0.002001517    0.000004769
     15        6          -0.000158669   -0.001459629   -0.000817748
     16        1           0.000022992   -0.000048725   -0.000560645
     17        1           0.000856165   -0.000170108    0.001298326
     18        6           0.000192018   -0.000318554    0.000184546
     19        1           0.000049698   -0.000149627   -0.000067185
     20        1           0.000155651   -0.000298706    0.000082598
     21        6           0.000165006    0.000097328   -0.000108368
     22        1           0.000015779    0.000021089    0.000034487
     23        1           0.000011373    0.000054093    0.000038082
     24        6           0.000058262   -0.000043983    0.000151309
     25        1          -0.000026913   -0.000021823   -0.000043266
     26        1          -0.000004088   -0.000114974   -0.000047503
     27        1          -0.000026759   -0.000017317   -0.000022783
 -------------------------------------------------------------------
 Cartesian Forces:  Max     0.009949260 RMS     0.002209522

 GradGradGradGradGradGradGradGradGradGradGradGradGradGradGradGradGradGrad
 Berny optimization.
 Using GEDIIS/GDIIS optimizer.
 FormGI is forming the generalized inverse of G from B-inverse, IUseBI=4.
 Internal  Forces:  Max     0.009982550 RMS     0.001796386
 Search for a local minimum.
 Step number   2 out of a maximum of  140
...
 Step number  16 out of a maximum of  140
 All quantities printed in internal units (Hartrees-Bohrs-Radians)
 Mixed Optimization -- En-DIIS/RFO-DIIS
 Swapping is turned off.
 Update second derivatives using D2CorX and points    9   10   11   12   13
                                                     14   15   16
 DE= -7.79D-08 DEPred=-6.00D-08 R= 1.30D+00
 Trust test= 1.30D+00 RLast= 4.87D-03 DXMaxT set to 1.20D+00
 ITU=  0  0  1  1  0  1  1  1  1  1  1 -1  1  1  1  0
     Eigenvalues ---    0.00233   0.00390   0.00434   0.00455   0.00464
     Eigenvalues ---    0.00581   0.00765   0.02081   0.02300   0.03096
     Eigenvalues ---    0.03553   0.03584   0.03600   0.03647   0.03799
     Eigenvalues ---    0.04805   0.04886   0.04894   0.04900   0.05522
     Eigenvalues ---    0.05627   0.05638   0.05949   0.07526   0.08356
     Eigenvalues ---    0.08388   0.08463   0.08497   0.11501   0.12181
     Eigenvalues ---    0.12233   0.12235   0.12297   0.13410   0.15604
     Eigenvalues ---    0.15867   0.15999   0.16000   0.16002   0.16011
     Eigenvalues ---    0.19579   0.21679   0.21896   0.21929   0.22164
     Eigenvalues ---    0.23382   0.24543   0.28213   0.29942   0.29996
     Eigenvalues ---    0.30096   0.30189   0.32068   0.33625   0.34183
     Eigenvalues ---    0.34197   0.34276   0.34315   0.34338   0.34389
     Eigenvalues ---    0.34451   0.34463   0.34570   0.34670   0.34701
     Eigenvalues ---    0.34748   0.35193   0.35700   0.35788   0.35930
     Eigenvalues ---    0.36459   0.42444   0.55903   0.61496   0.96676
 En-DIIS/RFO-DIIS/Sim-DIIS IScMMF=       -3 using points:    16   15   14   13   12   11   10
 RFO step:  Lambda=-5.04486828D-09.
 DIIS inversion failure, remove point   7.
 DIIS inversion failure, remove point   6.
 RFO-DIIS uses    5 points instead of    7
 DidBck=F Rises=F RFO-DIIS coefs:    1.17592   -0.14585   -0.03169    0.01367   -0.01204
                  RFO-DIIS coefs:    0.00000    0.00000
 Iteration  1 RMS(Cart)=  0.00032472 RMS(Int)=  0.00000007
 Iteration  2 RMS(Cart)=  0.00000009 RMS(Int)=  0.00000001
 Variable       Old X    -DE/DX   Delta X   Delta X   Delta X     New X
                                 (Linear)    (Quad)   (Total)
    R1        2.27899   0.00001   0.00002  -0.00001   0.00002   2.27901
    R2        2.52112  -0.00002  -0.00003  -0.00000  -0.00003   2.52109
    R3        2.80597  -0.00000   0.00000  -0.00002  -0.00002   2.80596
    R4        2.71578  -0.00000   0.00001  -0.00001   0.00000   2.71578
    R5        2.04434  -0.00000   0.00000  -0.00000   0.00000   2.04434
    R6        2.50238   0.00000  -0.00000   0.00000   0.00000   2.50238
    R7        2.04685   0.00000  -0.00000   0.00001   0.00000   2.04685
    R8        2.04385  -0.00000   0.00000  -0.00000  -0.00000   2.04384
    R9        2.06328   0.00000   0.00001   0.00000   0.00001   2.06329
   R10        2.06089  -0.00000  -0.00001  -0.00001  -0.00002   2.06087
   R11        2.85568  -0.00000  -0.00000  -0.00001  -0.00001   2.85567
   R12        2.06655  -0.00000  -0.00001  -0.00000  -0.00001   2.06654
   R13        2.06631   0.00000  -0.00000   0.00001   0.00001   2.06632
   R14        2.87972   0.00000   0.00001  -0.00000   0.00001   2.87973
   R15        2.06981   0.00000  -0.00000   0.00001   0.00000   2.06981
   R16        2.06619   0.00000  -0.00000   0.00001   0.00000   2.06619
   R17        2.87845  -0.00000   0.00000  -0.00001  -0.00001   2.87844
   R18        2.07002   0.00000  -0.00000   0.00000   0.00000   2.07002
   R19        2.07018  -0.00000  -0.00000  -0.00000  -0.00000   2.07017
   R20        2.87949  -0.00000   0.00000  -0.00001  -0.00000   2.87949
   R21        2.06730   0.00000   0.00000   0.00000   0.00000   2.06730
   R22        2.06724  -0.00000  -0.00000  -0.00000  -0.00000   2.06724
   R23        2.87860  -0.00000   0.00000  -0.00000  -0.00000   2.87860
   R24        2.06333   0.00000  -0.00000   0.00000   0.00000   2.06333
   R25        2.06056  -0.00000  -0.00000  -0.00000  -0.00000   2.06056
   R26        2.06336  -0.00000   0.00000  -0.00000  -0.00000   2.06336
    A1        2.15605  -0.00000  -0.00003   0.00004   0.00000   2.15605
    A2        2.18637   0.00000  -0.00001   0.00001  -0.00001   2.18637
    A3        1.94077  -0.00000   0.00005  -0.00004   0.00000   1.94077
    A4        2.03110  -0.00003  -0.00001  -0.00007  -0.00008   2.03102
    A5        2.03905   0.00000   0.00001   0.00001   0.00002   2.03907
    A6        2.10292  -0.00000   0.00001  -0.00001   0.00000   2.10292
    A7        2.14121  -0.00000  -0.00002  -0.00000  -0.00002   2.14119
    A8        2.10062   0.00000   0.00001  -0.00000   0.00001   2.10063
    A9        2.12006  -0.00000  -0.00001  -0.00000  -0.00001   2.12005
   A10        2.06251   0.00000  -0.00001   0.00000  -0.00000   2.06250
   A11        1.89398  -0.00000  -0.00001  -0.00001  -0.00002   1.89396
   A12        1.89330  -0.00000  -0.00000  -0.00004  -0.00005   1.89325
   A13        1.88391  -0.00000   0.00002  -0.00002  -0.00000   1.88391
   A14        1.88827  -0.00000  -0.00001   0.00002   0.00000   1.88828
   A15        1.94819   0.00000  -0.00004   0.00003  -0.00001   1.94818
   A16        1.95467   0.00001   0.00004   0.00003   0.00007   1.95474
   A17        1.90300   0.00000   0.00002  -0.00000   0.00002   1.90302
   A18        1.87668  -0.00000  -0.00002   0.00002  -0.00001   1.87668
   A19        1.97954  -0.00000  -0.00002   0.00001  -0.00001   1.97953
   A20        1.86428  -0.00000   0.00002  -0.00002   0.00001   1.86429
   A21        1.92107  -0.00000   0.00000  -0.00001  -0.00001   1.92106
   A22        1.91527   0.00000  -0.00001   0.00001   0.00000   1.91527
   A23        1.90514   0.00000  -0.00001   0.00003   0.00002   1.90516
   A24        1.91011  -0.00000   0.00000  -0.00002  -0.00001   1.91010
   A25        1.96681  -0.00000   0.00001  -0.00001  -0.00000   1.96681
   A26        1.85967  -0.00000  -0.00000  -0.00000  -0.00000   1.85966
   A27        1.90961  -0.00000   0.00000   0.00000   0.00001   1.90961
   A28        1.90943   0.00000   0.00000  -0.00001  -0.00001   1.90942
   A29        1.90791   0.00000   0.00001  -0.00000   0.00000   1.90791
   A30        1.90960   0.00000  -0.00000   0.00000   0.00000   1.90960
   A31        1.97429  -0.00000  -0.00001  -0.00000  -0.00001   1.97428
   A32        1.85492   0.00000   0.00000   0.00000   0.00001   1.85492
   A33        1.90649  -0.00000   0.00000  -0.00000  -0.00000   1.90648
   A34        1.90683   0.00000  -0.00000   0.00000   0.00000   1.90684
   A35        1.90467   0.00000  -0.00000   0.00001   0.00000   1.90467
   A36        1.90430  -0.00000   0.00000  -0.00001  -0.00001   1.90429
   A37        1.96569  -0.00000   0.00000  -0.00001  -0.00000   1.96569
   A38        1.85605   0.00000   0.00000   0.00000   0.00000   1.85606
   A39        1.91490   0.00000  -0.00000   0.00001   0.00001   1.91490
   A40        1.91495   0.00000  -0.00000  -0.00000  -0.00000   1.91495
   A41        1.93377   0.00000   0.00000  -0.00000   0.00000   1.93377
   A42        1.94804  -0.00000   0.00000  -0.00001  -0.00001   1.94804
   A43        1.93393   0.00000  -0.00000   0.00000   0.00000   1.93393
   A44        1.88334   0.00000   0.00000  -0.00000   0.00000   1.88335
   A45        1.87897  -0.00000   0.00000   0.00000   0.00000   1.87897
   A46        1.88326   0.00000  -0.00000   0.00000   0.00000   1.88326
    D1        0.00166  -0.00000   0.00016  -0.00025  -0.00009   0.00157
    D2       -3.13966  -0.00000   0.00017  -0.00027  -0.00010  -3.13976
    D3        3.13948  -0.00000  -0.00026   0.00003  -0.00023   3.13925
    D4       -0.00196  -0.00000  -0.00030  -0.00002  -0.00032  -0.00228
    D5       -0.00239   0.00000  -0.00027   0.00004  -0.00022  -0.00261
    D6        3.13936  -0.00000  -0.00031  -0.00001  -0.00031   3.13905
    D7       -1.00380  -0.00000  -0.00018  -0.00005  -0.00022  -1.00402
    D8        1.04391  -0.00000  -0.00020  -0.00006  -0.00026   1.04365
    D9       -3.11783   0.00000  -0.00013  -0.00007  -0.00020  -3.11803
   D10       -0.00031  -0.00000   0.00006  -0.00011  -0.00005  -0.00036
   D11        3.14114   0.00001   0.00003   0.00015   0.00018   3.14132
   D12        3.14145  -0.00000   0.00001  -0.00016  -0.00015   3.14130
   D13       -0.00029   0.00000  -0.00001   0.00010   0.00008  -0.00020
   D14       -1.02452   0.00000  -0.00008  -0.00000  -0.00008  -1.02460
   D15       -3.03966   0.00000  -0.00011   0.00001  -0.00009  -3.03976
   D16        1.12269   0.00000  -0.00007  -0.00002  -0.00009   1.12260
   D17       -3.10445   0.00000  -0.00006   0.00001  -0.00005  -3.10450
   D18        1.16359   0.00000  -0.00009   0.00002  -0.00006   1.16353
   D19       -0.95724   0.00000  -0.00005  -0.00000  -0.00005  -0.95730
   D20        1.05844  -0.00000  -0.00004  -0.00006  -0.00010   1.05834
   D21       -0.95671  -0.00000  -0.00007  -0.00004  -0.00011  -0.95682
   D22       -3.07754  -0.00000  -0.00003  -0.00007  -0.00010  -3.07765
   D23        1.00094  -0.00000  -0.00020   0.00008  -0.00012   1.00082
   D24       -1.02815  -0.00000  -0.00019   0.00007  -0.00011  -1.02826
   D25        3.12634   0.00000  -0.00020   0.00010  -0.00010   3.12624
   D26        3.13817   0.00000  -0.00018   0.00007  -0.00011   3.13807
   D27        1.10908   0.00000  -0.00017   0.00007  -0.00010   1.10898
   D28       -1.01962   0.00000  -0.00018   0.00009  -0.00009  -1.01970
   D29       -1.09815   0.00000  -0.00015   0.00005  -0.00010  -1.09825
   D30       -3.12724  -0.00000  -0.00014   0.00004  -0.00010  -3.12734
   D31        1.02725   0.00000  -0.00015   0.00007  -0.00008   1.02716
   D32        1.01514  -0.00000  -0.00012  -0.00013  -0.00026   1.01488
   D33       -1.00953  -0.00000  -0.00013  -0.00014  -0.00026  -1.00979
   D34       -3.13962  -0.00000  -0.00012  -0.00014  -0.00026  -3.13989
   D35        3.13800   0.00000  -0.00014  -0.00009  -0.00023   3.13777
   D36        1.11334  -0.00000  -0.00014  -0.00010  -0.00024   1.11310
   D37       -1.01676  -0.00000  -0.00014  -0.00010  -0.00024  -1.01699
   D38       -1.11395  -0.00000  -0.00014  -0.00010  -0.00024  -1.11418
   D39       -3.13861  -0.00000  -0.00014  -0.00010  -0.00025  -3.13886
   D40        1.01448  -0.00000  -0.00013  -0.00011  -0.00024   1.01423
   D41        1.01296  -0.00000  -0.00008  -0.00008  -0.00015   1.01281
   D42       -1.00831  -0.00000  -0.00008  -0.00008  -0.00016  -1.00846
   D43       -3.13917  -0.00000  -0.00008  -0.00006  -0.00014  -3.13932
   D44       -3.14100  -0.00000  -0.00007  -0.00009  -0.00016  -3.14116
   D45        1.12091  -0.00000  -0.00007  -0.00009  -0.00016   1.12075
   D46       -1.00995  -0.00000  -0.00008  -0.00007  -0.00015  -1.01010
   D47       -1.11868  -0.00000  -0.00007  -0.00008  -0.00015  -1.11883
   D48       -3.13995  -0.00000  -0.00007  -0.00009  -0.00015  -3.14010
   D49        1.01237  -0.00000  -0.00007  -0.00007  -0.00014   1.01223
   D50        1.04313  -0.00000  -0.00001  -0.00004  -0.00005   1.04308
   D51       -3.14071  -0.00000  -0.00001  -0.00004  -0.00005  -3.14076
   D52       -1.04137  -0.00000  -0.00001  -0.00004  -0.00005  -1.04142
   D53       -3.11478  -0.00000  -0.00002  -0.00002  -0.00004  -3.11483
   D54       -1.01544  -0.00000  -0.00001  -0.00003  -0.00004  -1.01549
   D55        1.08390  -0.00000  -0.00002  -0.00003  -0.00004   1.08386
   D56       -1.08171   0.00000  -0.00002  -0.00001  -0.00003  -1.08174
   D57        1.01763   0.00000  -0.00001  -0.00002  -0.00003   1.01760
   D58        3.11698   0.00000  -0.00002  -0.00002  -0.00003   3.11694
         Item               Value     Threshold  Converged?
 Maximum Force            0.000027     0.000450     YES
 RMS     Force            0.000003     0.000300     YES
 Maximum Displacement     0.001435     0.001800     YES
 RMS     Displacement     0.000325     0.001200     YES
 Predicted change in Energy=-5.730610D-09
 Optimization completed.
    -- Stationary point found.
                           ----------------------------
                           !   Optimized Parameters   !
                           ! (Angstroms and Degrees)  !
 --------------------------                            --------------------------
 ! Name  Definition              Value          Derivative Info.                !
 --------------------------------------------------------------------------------
 ! R1    R(1,2)                  1.206          -DE/DX =    0.0                 !
 ! R2    R(1,3)                  1.3341         -DE/DX =    0.0                 !
 ! R3    R(1,4)                  1.4849         -DE/DX =    0.0                 !
 ! R4    R(3,9)                  1.4371         -DE/DX =    0.0                 !
 ! R5    R(4,5)                  1.0818         -DE/DX =    0.0                 !
 ! R6    R(4,6)                  1.3242         -DE/DX =    0.0                 !
 ! R7    R(6,7)                  1.0831         -DE/DX =    0.0                 !
 ! R8    R(6,8)                  1.0816         -DE/DX =    0.0                 !
 ! R9    R(9,10)                 1.0918         -DE/DX =    0.0                 !
 ! R10   R(9,11)                 1.0906         -DE/DX =    0.0                 !
 ! R11   R(9,12)                 1.5112         -DE/DX =    0.0                 !
 ! R12   R(12,13)                1.0936         -DE/DX =    0.0                 !
 ! R13   R(12,14)                1.0934         -DE/DX =    0.0                 !
 ! R14   R(12,15)                1.5239         -DE/DX =    0.0                 !
 ! R15   R(15,16)                1.0953         -DE/DX =    0.0                 !
 ! R16   R(15,17)                1.0934         -DE/DX =    0.0                 !
 ! R17   R(15,18)                1.5232         -DE/DX =    0.0                 !
 ! R18   R(18,19)                1.0954         -DE/DX =    0.0                 !
 ! R19   R(18,20)                1.0955         -DE/DX =    0.0                 !
 ! R20   R(18,21)                1.5238         -DE/DX =    0.0                 !
 ! R21   R(21,22)                1.094          -DE/DX =    0.0                 !
 ! R22   R(21,23)                1.0939         -DE/DX =    0.0                 !
 ! R23   R(21,24)                1.5233         -DE/DX =    0.0                 !
 ! R24   R(24,25)                1.0919         -DE/DX =    0.0                 !
 ! R25   R(24,26)                1.0904         -DE/DX =    0.0                 !
 ! R26   R(24,27)                1.0919         -DE/DX =    0.0                 !
 ! A1    A(2,1,3)              123.5324         -DE/DX =    0.0                 !
 ! A2    A(2,1,4)              125.2699         -DE/DX =    0.0                 !
 ! A3    A(3,1,4)              111.1978         -DE/DX =    0.0                 !
 ! A4    A(1,3,9)              116.3734         -DE/DX =    0.0                 !
 ! A5    A(1,4,5)              116.8292         -DE/DX =    0.0                 !
 ! A6    A(1,4,6)              120.4884         -DE/DX =    0.0                 !
 ! A7    A(5,4,6)              122.6824         -DE/DX =    0.0                 !
 ! A8    A(4,6,7)              120.3567         -DE/DX =    0.0                 !
 ! A9    A(4,6,8)              121.4703         -DE/DX =    0.0                 !
 ! A10   A(7,6,8)              118.173          -DE/DX =    0.0                 !
 ! A11   A(3,9,10)             108.5168         -DE/DX =    0.0                 !
 ! A12   A(3,9,11)             108.4782         -DE/DX =    0.0                 !
 ! A13   A(3,9,12)             107.9401         -DE/DX =    0.0                 !
 ! A14   A(10,9,11)            108.1902         -DE/DX =    0.0                 !
 ! A15   A(10,9,12)            111.6229         -DE/DX =    0.0                 !
 ! A16   A(11,9,12)            111.9942         -DE/DX =    0.0                 !
 ! A17   A(9,12,13)            109.034          -DE/DX =    0.0                 !
 ! A18   A(9,12,14)            107.5261         -DE/DX =    0.0                 !
 ! A19   A(9,12,15)            113.4195         -DE/DX =    0.0                 !
 ! A20   A(13,12,14)           106.8155         -DE/DX =    0.0                 !
 ! A21   A(13,12,15)           110.069          -DE/DX =    0.0                 !
 ! A22   A(14,12,15)           109.7369         -DE/DX =    0.0                 !
 ! A23   A(12,15,16)           109.1565         -DE/DX =    0.0                 !
 ! A24   A(12,15,17)           109.4413         -DE/DX =    0.0                 !
 ! A25   A(12,15,18)           112.6897         -DE/DX =    0.0                 !
 ! A26   A(16,15,17)           106.551          -DE/DX =    0.0                 !
 ! A27   A(16,15,18)           109.4123         -DE/DX =    0.0                 !
 ! A28   A(17,15,18)           109.4022         -DE/DX =    0.0                 !
 ! A29   A(15,18,19)           109.3149         -DE/DX =    0.0                 !
 ! A30   A(15,18,20)           109.412          -DE/DX =    0.0                 !
 ! A31   A(15,18,21)           113.1184         -DE/DX =    0.0                 !
 ! A32   A(19,18,20)           106.279          -DE/DX =    0.0                 !
 ! A33   A(19,18,21)           109.2336         -DE/DX =    0.0                 !
 ! A34   A(20,18,21)           109.2535         -DE/DX =    0.0                 !
 ! A35   A(18,21,22)           109.1295         -DE/DX =    0.0                 !
 ! A36   A(18,21,23)           109.1085         -DE/DX =    0.0                 !
 ! A37   A(18,21,24)           112.6258         -DE/DX =    0.0                 !
 ! A38   A(22,21,23)           106.3441         -DE/DX =    0.0                 !
 ! A39   A(22,21,24)           109.7154         -DE/DX =    0.0                 !
 ! A40   A(23,21,24)           109.7186         -DE/DX =    0.0                 !
 ! A41   A(21,24,25)           110.7967         -DE/DX =    0.0                 !
 ! A42   A(21,24,26)           111.6147         -DE/DX =    0.0                 !
 ! A43   A(21,24,27)           110.806          -DE/DX =    0.0                 !
 ! A44   A(25,24,26)           107.9077         -DE/DX =    0.0                 !
 ! A45   A(25,24,27)           107.6568         -DE/DX =    0.0                 !
 ! A46   A(26,24,27)           107.9027         -DE/DX =    0.0                 !
 ! D1    D(2,1,3,9)              0.0953         -DE/DX =    0.0                 !
 ! D2    D(4,1,3,9)           -179.8895         -DE/DX =    0.0                 !
 ! D3    D(2,1,4,5)            179.8788         -DE/DX =    0.0                 !
 ! D4    D(2,1,4,6)             -0.1122         -DE/DX =    0.0                 !
 ! D5    D(3,1,4,5)             -0.1368         -DE/DX =    0.0                 !
 ! D6    D(3,1,4,6)            179.8723         -DE/DX =    0.0                 !
 ! D7    D(1,3,9,10)           -57.5132         -DE/DX =    0.0                 !
 ! D8    D(1,3,9,11)            59.8115         -DE/DX =    0.0                 !
 ! D9    D(1,3,9,12)          -178.6385         -DE/DX =    0.0                 !
 ! D10   D(1,4,6,7)             -0.0179         -DE/DX =    0.0                 !
 ! D11   D(1,4,6,8)            179.9741         -DE/DX =    0.0                 !
 ! D12   D(5,4,6,7)            179.9917         -DE/DX =    0.0                 !
 ! D13   D(5,4,6,8)             -0.0164         -DE/DX =    0.0                 !
 ! D14   D(3,9,12,13)          -58.7007         -DE/DX =    0.0                 !
 ! D15   D(3,9,12,14)         -174.1598         -DE/DX =    0.0                 !
 ! D16   D(3,9,12,15)           64.3253         -DE/DX =    0.0                 !
 ! D17   D(10,9,12,13)        -177.8718         -DE/DX =    0.0                 !
 ! D18   D(10,9,12,14)          66.669          -DE/DX =    0.0                 !
 ! D19   D(10,9,12,15)         -54.8459         -DE/DX =    0.0                 !
 ! D20   D(11,9,12,13)          60.6439         -DE/DX =    0.0                 !
 ! D21   D(11,9,12,14)         -54.8153         -DE/DX =    0.0                 !
 ! D22   D(11,9,12,15)        -176.3302         -DE/DX =    0.0                 !
 ! D23   D(9,12,15,16)          57.3497         -DE/DX =    0.0                 !
 ! D24   D(9,12,15,17)         -58.9086         -DE/DX =    0.0                 !
 ! D25   D(9,12,15,18)         179.1259         -DE/DX =    0.0                 !
 ! D26   D(13,12,15,16)        179.8039         -DE/DX =    0.0                 !
 ! D27   D(13,12,15,17)         63.5457         -DE/DX =    0.0                 !
 ! D28   D(13,12,15,18)        -58.4198         -DE/DX =    0.0                 !
 ! D29   D(14,12,15,16)        -62.9193         -DE/DX =    0.0                 !
 ! D30   D(14,12,15,17)       -179.1776         -DE/DX =    0.0                 !
 ! D31   D(14,12,15,18)         58.8569         -DE/DX =    0.0                 !
 ! D32   D(12,15,18,19)         58.1631         -DE/DX =    0.0                 !
 ! D33   D(12,15,18,20)        -57.8416         -DE/DX =    0.0                 !
 ! D34   D(12,15,18,21)       -179.8871         -DE/DX =    0.0                 !
 ! D35   D(16,15,18,19)        179.7944         -DE/DX =    0.0                 !
 ! D36   D(16,15,18,20)         63.7897         -DE/DX =    0.0                 !
 ! D37   D(16,15,18,21)        -58.2558         -DE/DX =    0.0                 !
 ! D38   D(17,15,18,19)        -63.8245         -DE/DX =    0.0                 !
 ! D39   D(17,15,18,20)       -179.8292         -DE/DX =    0.0                 !
 ! D40   D(17,15,18,21)         58.1253         -DE/DX =    0.0                 !
 ! D41   D(15,18,21,22)         58.0384         -DE/DX =    0.0                 !
 ! D42   D(15,18,21,23)        -57.7717         -DE/DX =    0.0                 !
 ! D43   D(15,18,21,24)       -179.8613         -DE/DX =    0.0                 !
 ! D44   D(19,18,21,22)       -179.9662         -DE/DX =    0.0                 !
 ! D45   D(19,18,21,23)         64.2237         -DE/DX =    0.0                 !
 ! D46   D(19,18,21,24)        -57.8659         -DE/DX =    0.0                 !
 ! D47   D(20,18,21,22)        -64.0958         -DE/DX =    0.0                 !
 ! D48   D(20,18,21,23)       -179.9058         -DE/DX =    0.0                 !
 ! D49   D(20,18,21,24)         58.0046         -DE/DX =    0.0                 !
 ! D50   D(18,21,24,25)         59.7671         -DE/DX =    0.0                 !
 ! D51   D(18,21,24,26)       -179.9495         -DE/DX =    0.0                 !
 ! D52   D(18,21,24,27)        -59.666          -DE/DX =    0.0                 !
 ! D53   D(22,21,24,25)       -178.464          -DE/DX =    0.0                 !
 ! D54   D(22,21,24,26)        -58.1806         -DE/DX =    0.0                 !
 ! D55   D(22,21,24,27)         62.1029         -DE/DX =    0.0                 !
 ! D56   D(23,21,24,25)        -61.9773         -DE/DX =    0.0                 !
 ! D57   D(23,21,24,26)         58.3061         -DE/DX =    0.0                 !
 ! D58   D(23,21,24,27)        178.5896         -DE/DX =    0.0                 !
 --------------------------------------------------------------------------------
 GradGradGradGradGradGradGradGradGradGradGradGradGradGradGradGradGradGrad

                          Input orientation:                          
 ---------------------------------------------------------------------
 Center     Atomic      Atomic             Coordinates (Angstroms)
 Number     Number       Type             X           Y           Z
 ---------------------------------------------------------------------
      1          6           0        1.375443    1.411928    0.635025
      2          8           0        1.410165    0.622315   -0.275864
      3          8           0        0.522920    2.436651    0.689974
      4          6           0        2.256728    1.382039    1.829698
      5          1           0        2.108606    2.161302    2.565317
      6          6           0        3.173234    0.435875    1.964983
      7          1           0        3.289044   -0.326779    1.204622
      8          1           0        3.823747    0.399200    2.828263
      9          6           0       -0.387221    2.569819   -0.414219
     10          1           0        0.194163    2.654776   -1.334484
     11          1           0       -0.991208    1.663841   -0.475511
     12          6           0       -1.233183    3.798841   -0.174525
     13          1           0       -1.766507    3.685385    0.773414
     14          1           0       -1.991326    3.835371   -0.961614
     15          6           0       -0.431513    5.094812   -0.171643
     16          1           0        0.098700    5.191578   -1.125153
     17          1           0        0.334393    5.047223    0.607205
     18          6           0       -1.302958    6.324279    0.050089
     19          1           0       -1.835227    6.224172    1.002240
     20          1           0       -2.072304    6.370454   -0.728418
     21          6           0       -0.511319    7.626260    0.052033
     22          1           0        0.019010    7.724790   -0.899704
     23          1           0        0.257181    7.576942    0.828996
     24          6           0       -1.392914    8.847808    0.277926
     25          1           0       -1.910442    8.780386    1.236985
     26          1           0       -0.810399    9.769569    0.275354
     27          1           0       -2.151812    8.928166   -0.502989
 ---------------------------------------------------------------------
                    Distance matrix (angstroms):
                    1          2          3          4          5
     1  C    0.000000
     2  O    1.205990   0.000000
     3  O    1.334119   2.238719   0.000000
     4  C    1.484857   2.393165   2.327503   0.000000
     5  H    2.196615   3.305844   2.471260   1.081816   0.000000
     6  C    2.439983   2.857371   3.557094   1.324202   2.114458
     7  H    2.647529   2.573481   3.943710   2.091998   3.071721
     8  H    3.439491   3.938370   4.429328   2.102059   2.473026
     9  C    2.355549   2.653773   1.437127   3.665577   3.908154
    10  H    2.611333   2.594270   2.062545   3.985735   4.372306
    11  H    2.626364   2.625114   2.061109   3.992804   4.370691
    12  C    3.627349   4.133748   2.384705   4.694393   4.621235
    13  H    3.880671   4.535926   2.609171   4.754741   4.533237
    14  H    4.444937   4.729072   3.317468   5.644132   5.661377
    15  C    4.180842   4.837961   2.952820   5.001669   4.748540
    16  H    4.360511   4.829016   3.326300   5.282123   5.180913
    17  H    3.781525   4.638632   2.618679   4.315488   3.912872
    18  C    5.625583   6.322948   4.342457   6.345401   5.941003
    19  H    5.796632   6.599009   4.472547   6.393358   5.874005
    20  H    6.191359   6.735986   4.921568   7.082992   6.785695
    21  C    6.520558   7.270135   5.329978   7.057796   6.560973
    22  H    6.636832   7.264272   5.544855   7.258617   6.879330
    23  H    6.268615   7.135610   5.149033   6.586078   5.980948
    24  C    7.942521   8.707622   6.703965   8.453733   7.886835
    25  H    8.090338   8.936960   6.816410   8.511883   7.856811
    26  H    8.646238   9.429051   7.464672   9.064983   8.464647
    27  H    8.380361   9.040267   7.121595   9.045479   8.564818
                    6          7          8          9         10
     6  C    0.000000
     7  H    1.083144   0.000000
     8  H    1.081556   1.857192   0.000000
     9  C    4.784471   4.952358   5.740865   0.000000
    10  H    4.968387   4.991495   5.965733   1.091839   0.000000
    11  H    4.980611   5.010586   5.974782   1.090574   1.767736
    12  C    5.941679   6.274817   6.793146   1.511159   2.166035
    13  H    6.031600   6.468539   6.802379   2.134804   3.057714
    14  H    6.840631   7.063878   7.745032   2.115282   2.511812
    15  C    6.266184   6.717909   7.011094   2.537005   2.774427
    16  H    6.451234   6.786635   7.243781   2.759559   2.547214
    17  H    5.582751   6.161718   6.221962   2.775169   3.084417
    18  C    7.640446   8.164313   8.313117   3.892317   4.198055
    19  H    7.714657   8.319499   8.323980   4.178202   4.724329
    20  H    8.365962   8.793955   9.114235   4.169300   4.394367
    21  C    8.302828   8.889435   8.873029   5.079409   5.209203
    22  H    8.442976   8.941425   9.057485   5.193694   5.091636
    23  H    7.796709   8.473612   8.260596   5.199242   5.377020
    24  C    9.718873  10.341787  10.251671   6.395595   6.593355
    25  H    9.798194  10.486952  10.278977   6.604379   6.968853
    26  H   10.287955  10.936417  10.760877   7.245067   7.363491
    27  H   10.323082  10.870734  10.933792   6.599261   6.749104
                   11         12         13         14         15
    11  H    0.000000
    12  C    2.169647   0.000000
    13  H    2.499508   1.093569   0.000000
    14  H    2.439687   1.093446   1.755950   0.000000
    15  C    3.489577   1.523885   2.159126   2.154823   0.000000
    16  H    3.748981   2.148796   3.058132   2.496848   1.095295
    17  H    3.791670   2.151013   2.509184   3.055937   1.093381
    18  C    4.700332   2.536367   2.775218   2.773456   1.523211
    19  H    4.867518   2.762148   2.550004   3.096362   2.150318
    20  H    4.835798   2.761181   3.091700   2.547074   2.151618
    21  C    6.004917   3.901481   4.198379   4.193894   2.542564
    22  H    6.159187   4.184131   4.722731   4.378684   2.765833
    23  H    6.182635   4.183574   4.386641   4.718201   2.763431
    24  C    7.234530   5.071716   5.199586   5.197989   3.900178
    25  H    7.377183   5.221765   5.118071   5.412352   4.213659
    26  H    8.142439   6.002561   6.178956   6.175709   4.711339
    27  H    7.356505   5.221278   5.409660   5.115922   4.214715
                   16         17         18         19         20
    16  H    0.000000
    17  H    1.754268   0.000000
    18  C    2.151477   2.149923   0.000000
    19  H    3.054852   2.499702   1.095410   0.000000
    20  H    2.502081   3.054018   1.095490   1.752935   0.000000
    21  C    2.772286   2.770357   1.523762   2.149762   2.150076
    22  H    2.544473   3.088626   2.147357   3.050810   2.497431
    23  H    3.087682   2.540597   2.147067   2.497633   3.050845
    24  C    4.190652   4.187656   2.535390   2.757488   2.758910
    25  H    4.742983   4.401410   2.794677   2.568072   3.113965
    26  H    4.872975   4.870444   3.487604   3.761446   3.762172
    27  H    4.406130   4.740830   2.794043   3.110872   2.568857
                   21         22         23         24         25
    21  C    0.000000
    22  H    1.093966   0.000000
    23  H    1.093936   1.751282   0.000000
    24  C    1.523292   2.154417   2.154436   0.000000
    25  H    2.166486   3.066351   2.512632   1.091867   0.000000
    26  H    2.175567   2.499960   2.500772   1.090400   1.764458
    27  H    2.166616   2.513557   3.066470   1.091885   1.762840
                   26         27
    26  H    0.000000
    27  H    1.764416   0.000000
 Symmetry turned off by external request.
 Stoichiometry    C9H16O2
 Framework group  C1[X(C9H16O2)]
 Deg. of freedom    75
 Full point group                 C1      NOp   1
 Rotational constants (GHZ):           2.6271692           0.3311123           0.3043042

 **********************************************************************

            Population analysis using the SCF Density.

 **********************************************************************

 Alpha  occ. eigenvalues --  -19.67562 -19.61886 -10.67663 -10.59213 -10.55737
 Alpha  occ. eigenvalues --  -10.55603 -10.53444 -10.52687 -10.52506 -10.52457
...
 Alpha virt. eigenvalues --   22.47829  22.56644  22.60871  22.61031  22.64084
 Alpha virt. eigenvalues --   22.79904  23.45840  44.04860  44.39222
          Condensed to atoms (all electrons):
               1          2          3          4          5          6
     1  C    4.351844   0.649718   0.354369   0.378342  -0.031089  -0.065912
     2  O    0.649718   7.903149  -0.084856  -0.113555   0.003674   0.016223
...
    26  H   -0.024424   0.528149  -0.024418
    27  H   -0.032201  -0.024418   0.544997
 Mulliken charges:
               1
     1  C    0.419220
     2  O   -0.396736
     3  O   -0.272929
     4  C   -0.196690
     5  H    0.163546
     6  C   -0.268098
     7  H    0.162111
     8  H    0.161624
     9  C   -0.140319
    10  H    0.163451
    11  H    0.159719
    12  C   -0.269789
    13  H    0.154736
    14  H    0.150423
    15  C   -0.289794
    16  H    0.142123
    17  H    0.151158
    18  C   -0.284255
    19  H    0.140554
    20  H    0.139248
    21  C   -0.236937
    22  H    0.132337
    23  H    0.132287
    24  C   -0.440928
    25  H    0.139572
    26  H    0.144922
    27  H    0.139443
 Sum of Mulliken charges =  -0.00000
 Mulliken charges with hydrogens summed into heavy atoms:
               1
     1  C    0.419220
     2  O   -0.396736
     3  O   -0.272929
     4  C   -0.033144
     6  C    0.055636
     9  C    0.182851
    12  C    0.035370
    15  C    0.003488
    18  C   -0.004453
    21  C    0.027687
    24  C   -0.016991
 Electronic spatial extent (au):  <R**2>=           8170.4321
 Charge=             -0.0000 electrons
 Dipole moment (field-independent basis, Debye):
    X=             -0.3669    Y=              1.7093    Z=              1.3786  Tot=              2.2264
 Quadrupole moment (field-independent basis, Debye-Ang):
   XX=            -64.6483   YY=            -63.7636   ZZ=            -65.0386
   XY=             -1.5972   XZ=              6.8229   YZ=             -1.0071
 Traceless Quadrupole moment (field-independent basis, Debye-Ang):
   XX=             -0.1648   YY=              0.7199   ZZ=             -0.5551
   XY=             -1.5972   XZ=              6.8229   YZ=             -1.0071
 Octapole moment (field-independent basis, Debye-Ang**2):
  XXX=            -29.0600  YYY=           -802.5533  ZZZ=            -71.3912  XYY=            -14.5420
  XXY=           -274.2414  XXZ=             -7.5552  XZZ=             -2.9324  YZZ=           -260.2883
  YYZ=            -34.9071  XYZ=              5.8775
 Hexadecapole moment (field-independent basis, Debye-Ang**3):
 XXXX=          -1045.6703 YYYY=          -9937.3402 ZZZZ=           -418.3213 XXXY=            534.1149
 XXXZ=           -143.0147 YYYX=            608.0733 YYYZ=           -163.0674 ZZZX=           -172.8936
 ZZZY=           -103.6232 XXYY=          -1854.8625 XXZZ=           -200.0372 YYZZ=          -1679.9268
 XXYZ=            -37.9044 YYXZ=            -53.4337 ZZXY=            186.9743
 N-N= 5.954339122719D+02 E-N=-2.362483120691D+03  KE= 5.005649195847D+02
 1\1\GINC-R1I2N13\FOpt\RM062X\def2TZVP\C9H16O2\HMAYES\24-Sep-2019\0\\# 
 m062x/Def2TZVP nosymm scf=xqc opt freq=NoRaman CPHF=Grid=Fine SCRF=(So
 lvent=EthylEthanoate,Read) geom=connectivity\\obabel hexyl_acrylate_0.
 pdb -O hexyl_acrylate.pdb --confab --conf10000\\0,1\C,1.375443269,1.41
 19275897,0.635024959\O,1.410165124,0.6223150978,-0.2758639192\O,0.5229
 197874,2.4366510143,0.6899743583\C,2.2567284163,1.3820388504,1.8296978
 912\H,2.1086057846,2.1613021276,2.565316597\C,3.1732343648,0.435874825
 4,1.9649825931\H,3.2890438792,-0.3267792183,1.2046221123\H,3.823747,0.
 3991995284,2.8282626203\C,-0.387220755,2.5698186933,-0.4142194649\H,0.
 1941627888,2.6547758066,-1.3344844648\H,-0.9912075065,1.6638412521,-0.
 475510612\C,-1.2331833238,3.7988406533,-0.1745247042\H,-1.7665066975,3
 .6853847804,0.7734135549\H,-1.9913261272,3.8353707387,-0.9616141304\C,
 -0.431512945,5.0948116049,-0.1716433241\H,0.0986998945,5.1915780396,-1
 .1251531601\H,0.3343929165,5.0472226189,0.6072054855\C,-1.3029584181,6
 .3242788211,0.0500893156\H,-1.8352266552,6.224171545,1.0022401027\H,-2
 .0723044154,6.3704544653,-0.7284179857\C,-0.5113192377,7.6262600376,0.
 0520332402\H,0.0190104348,7.7247904187,-0.8997041215\H,0.2571807755,7.
 5769420288,0.8289961732\C,-1.3929143344,8.8478083419,0.2779264942\H,-1
 .9104422425,8.7803855212,1.2369848798\H,-0.8103993729,9.7695688807,0.2
 753541168\H,-2.1518124042,8.9281659364,-0.502988607\\Version=ES64L-G16
 RevB.01\HF=-503.0051109\RMSD=7.611e-09\RMSF=4.189e-06\Dipole=-0.144336
 5,0.672493,0.5423978\Quadrupole=-0.122509,0.5352231,-0.4127141,-1.1875
 1,5.0726393,-0.7487314\PG=C01 [X(C9H16O2)]\\@


 BLACK HOLES SUCK.
 Job cpu time:       0 days  6 hours 37 minutes 35.8 seconds.
 Elapsed time:       0 days  0 hours 11 minutes 24.6 seconds.
 File lengths (MBytes):  RWF=    391 Int=      0 D2E=      0 Chk=     19 Scr=      1
 Normal termination of Gaussian 16 at Tue Sep 24 23:50:49 2019.
 Link1:  Proceeding to internal job step number  2.
 --------------------------------------------------------------------
 #N Geom=AllCheck Guess=TCheck SCRF=Check GenChk RM062X/def2TZVP Freq
 --------------------------------------------------------------------
 1/4=180224,10=4,29=7,30=1,38=1,40=1/1,3;
 2/4=180224,12=2,15=1,40=1/2;
 3/4=180224,5=44,7=101,11=2,14=-4,25=1,30=1,70=2,71=2,74=-55,116=1,140=1/1,2,3;
 4/4=180224,5=101/1;
 5/4=180224,5=2,8=3,13=1,38=6,98=1/2,8;
 8/4=180224,6=4,10=90,11=11/1;
 11/4=180224,6=1,8=1,9=11,15=111,16=1,31=1/1,2,10;
 10/4=180224,6=1,31=1,60=4/2;
 6/4=180224,7=2,8=2,9=2,10=2,28=1/1;
 7/4=180224,8=1,10=1,25=1,30=1/1,2,3,16;
 1/4=180224,10=4,30=1/3;
 99/4=180224/99;
 Structure from the checkpoint file:  "/dev/shm/hexyl_acrylate_239.chk"
 ----------------------------------------------------------------------
 obabel hexyl_acrylate_0.pdb -O hexyl_acrylate.pdb --confab --conf10000
 ----------------------------------------------------------------------
 Charge =  0 Multiplicity = 1
 Redundant internal coordinates found in file.  (old form).
 C,0,1.375443269,1.4119275897,0.635024959
 O,0,1.410165124,0.6223150978,-0.2758639192
 O,0,0.5229197874,2.4366510143,0.6899743583
 C,0,2.2567284163,1.3820388504,1.8296978912
 H,0,2.1086057846,2.1613021276,2.565316597
 C,0,3.1732343648,0.4358748254,1.9649825931
 H,0,3.2890438792,-0.3267792183,1.2046221123
 H,0,3.823747,0.3991995284,2.8282626203
 C,0,-0.387220755,2.5698186933,-0.4142194649
 H,0,0.1941627888,2.6547758066,-1.3344844648
 H,0,-0.9912075065,1.6638412521,-0.475510612
 C,0,-1.2331833238,3.7988406533,-0.1745247042
 H,0,-1.7665066975,3.6853847804,0.7734135549
 H,0,-1.9913261272,3.8353707387,-0.9616141304
 C,0,-0.431512945,5.0948116049,-0.1716433241
 H,0,0.0986998945,5.1915780396,-1.1251531601
 H,0,0.3343929165,5.0472226189,0.6072054855
 C,0,-1.3029584181,6.3242788211,0.0500893156
 H,0,-1.8352266552,6.224171545,1.0022401027
 H,0,-2.0723044154,6.3704544653,-0.7284179857
 C,0,-0.5113192377,7.6262600376,0.0520332402
 H,0,0.0190104348,7.7247904187,-0.8997041215
 H,0,0.2571807755,7.5769420288,0.8289961732
 C,0,-1.3929143344,8.8478083419,0.2779264942
 H,0,-1.9104422425,8.7803855212,1.2369848798
 H,0,-0.8103993729,9.7695688807,0.2753541168
 H,0,-2.1518124042,8.9281659364,-0.502988607
 Recover connectivity data from disk.

 GradGradGradGradGradGradGradGradGradGradGradGradGradGradGradGradGradGrad
 Berny optimization.
 Initialization pass.
                           ----------------------------
                           !    Initial Parameters    !
                           ! (Angstroms and Degrees)  !
 --------------------------                            --------------------------
 ! Name  Definition              Value          Derivative Info.                !
 --------------------------------------------------------------------------------
 ! R1    R(1,2)                  1.206          calculate D2E/DX2 analytically  !
 ! R2    R(1,3)                  1.3341         calculate D2E/DX2 analytically  !
[...]
 ,0.00002904,0.00000862,-0.00000073,-0.00000837,-0.00000071,0.00086408,
 0.00168842,0.00097438,-0.00008162,-0.00004176,0.00004499,-0.00044216,-
 0.00027816,-0.00046310,0.01925620,-0.00365635,0.02016333,-0.00080593,0
 .00106554,-0.00035957,0.00312464,-0.00412573,-0.00115658,0.00752426,-0
 .04646250,0.00828300,0.00205583,-0.00080860,0.00208797,-0.00848442,0.0
 5577850,0.00002286,-0.00006269,0.00000960,-0.00000585,0.00002415,0.000
 00579,0.00005604,-0.00010805,0.00003516,0.00000094,-0.00000126,-0.0000
 1066,0.00000285,-0.00000247,0.00000410,0.00000285,0.00000201,0.0000021
 7,-0.00000104,0.00000024,0.00000049,-0.00000055,-0.00000146,0.00000006
 ,0.00019136,0.00023127,0.00014230,0.00000603,-0.00001413,-0.00001844,-
 0.00004060,0.00006985,-0.00001366,0.00025161,0.00010160,0.00030829,-0.
 00007767,-0.00000073,-0.00005652,0.00000313,0.00044304,-0.00000238,0.0
 0400742,-0.00071725,0.00376633,-0.00015225,0.00061057,0.00078460,0.000
 82256,-0.00105340,0.00134348,-0.12654835,0.00833980,-0.18217962,-0.019
 53741,0.00114286,-0.02048013,0.13992179,-0.00813577,0.19381127,0.00053
 302,-0.00055477,0.00001405,-0.00022550,0.00025654,0.00006751,-0.000447
 61,0.00040230,-0.00014583,-0.00008085,0.00008603,0.00000420,0.00000250
 ,0.00000295,-0.00000706,-0.00001984,-0.00002506,-0.00004991,0.00000792
 ,-0.00000308,0.00000270,-0.00001033,0.00001154,-0.00000479,0.00174541,
 0.00126415,0.00015205,-0.00001746,-0.00009806,0.00000580,-0.00041384,0
 .00063634,0.00000521,-0.00413373,0.00339780,0.00091254,0.00007047,-0.0
 0000910,-0.00026657,0.00016654,-0.00010372,0.00028722,0.01324065,0.016
 69812,-0.00074001,0.00039197,0.00062943,-0.00008558,0.00053418,0.00078
 383,0.00022292,-0.11750978,-0.05617700,0.00044215,-0.00984976,-0.01387
 307,0.00001113,-0.01393251,-0.02038570,0.00034765,0.54409260,-0.000043
 40,0.00005704,-0.00001466,0.00004186,-0.00002432,0.00001840,0.00008408
 ,0.00006345,0.00004587,0.00001030,-0.00002269,-0.00000088,0.00000316,0
 .00000077,0.00000129,0.00000340,0.00000366,0.00001111,-0.00000084,0.00
 000150,-0.00000085,0.00000235,-0.00000140,0.00000019,-0.00121562,-0.00
 057294,-0.00002940,0.00001777,0.00001515,-0.00003798,0.00025939,-0.000
 29426,-0.00003072,0.00299921,-0.00229042,-0.00061343,0.00003222,-0.000
 09932,0.00005944,0.00000136,-0.00006102,-0.00011595,-0.01304631,-0.029
 07905,-0.00049157,-0.00103343,0.00175608,0.00043785,-0.00111606,0.0016
 1436,0.00011966,-0.05706747,-0.15935905,0.00105240,-0.00299270,-0.0052
 6367,-0.00023398,-0.00036555,-0.00125543,0.00017426,-0.00324106,0.4681
 3224,-0.00005852,0.00012108,0.00006790,0.00002099,-0.00005150,-0.00005
 616,0.00015084,-0.00018757,-0.00000480,0.00000961,-0.00001082,0.000008
 36,0.00000031,0.00000604,-0.00000719,0.00000061,-0.00000102,0.00000327
 ,0.00000110,-0.00000097,-0.00000109,0.00000101,0.00000012,0.00000061,-
 0.00030227,-0.00024760,0.00054614,-0.00003127,0.00008122,-0.00000956,0
 .00006354,-0.00011870,-0.00001840,0.00080100,-0.00060361,-0.00050612,-
 0.00027205,-0.00011993,0.00031362,0.00030128,0.00007588,0.00016308,-0.
 00311343,-0.00465214,-0.00163284,-0.00026833,-0.00089495,0.00020096,0.
 00001221,0.00096674,0.00024260,0.00037040,0.00091834,-0.07902256,0.016
 57874,0.02591935,-0.00008857,-0.01362184,-0.02177134,-0.00001238,0.006
 80253,-0.01044984,0.59384371,-0.00003424,0.00004446,0.00000925,0.00001
 175,-0.00002171,-0.00001398,0.00002538,-0.00003795,0.00000041,0.000004
 58,-0.00000477,0.00000065,-0.00000101,-0.00000026,-0.00000094,0.000000
 30,0.00000157,0.00000201,-0.00000031,-0.00000006,-0.00000004,0.0000004
 7,-0.00000043,0.00000019,-0.00000731,-0.00000385,-0.00005089,0.0000110
 4,-0.00001936,0.00000558,0.00000357,-0.00001731,0.00000891,0.00007653,
 0.00004649,-0.00028727,0.00004933,0.00015664,-0.00002650,-0.00004972,-
 0.00001453,0.00000741,0.00033434,0.00099687,-0.00011619,0.00049860,-0.
 00026348,-0.00024899,-0.00000708,-0.00008528,-0.00008550,-0.00988961,-
 0.00311241,0.01670472,-0.00135530,-0.00320244,0.00002167,0.00030573,0.
 00076884,0.00001661,-0.10553023,-0.01111900,0.10477677,0.11469674,-0.0
 0001675,0.00001459,0.00001192,0.00000742,-0.00000934,-0.00001105,0.000
 01362,-0.00001172,-0.00000638,0.00000235,0.00000145,0.00000044,-0.0000
 0288,-0.00000028,0.00000018,0.00000204,0.00000024,-0.00000105,-0.00000
 044,-0.00000111,0.00000051,-0.00000032,-0.00000043,0.00000035,0.000038
 65,0.00002214,-0.00008376,0.00002165,-0.00003798,-0.00000243,-0.000010
 04,0.00000915,0.00000453,-0.00003477,-0.00004202,-0.00012224,0.0001530
 3,0.00007362,-0.00014857,-0.00001909,0.00001345,0.00001273,-0.00067334
 ,0.00165757,0.00112820,0.00032909,-0.00032443,-0.00058108,0.00009745,-
 0.00004241,0.00000920,-0.01389068,-0.00532111,0.02602675,-0.00308758,-
 0.00475105,-0.00025765,0.00061958,0.00118032,-0.00053646,-0.01131348,-
 0.04814658,0.02111925,0.01237817,0.05770622,0.00005213,-0.00004736,-0.
 00002421,-0.00002103,0.00002369,0.00002504,-0.00005795,0.00004545,0.00
 000090,-0.00000862,-0.00000180,-0.00000170,0.00000577,0.00000051,-0.00
 000160,-0.00000569,-0.00000118,0.00000100,0.00000146,0.00000246,-0.000
 00082,0.00000081,0.00000134,-0.00000148,0.00009585,0.00005863,-0.00001
 765,0.00000212,0.00000464,0.00000279,-0.00001875,0.00003017,0.00000050
 ,-0.00028596,0.00007442,0.00037004,-0.00003226,-0.00016500,-0.00004887
 ,0.00000249,-0.00000533,-0.00001212,-0.00021855,-0.00017205,0.00032629
 ,-0.00022107,0.00051006,0.00012852,0.00007239,0.00003181,-0.00003187,0
 .00000355,-0.00001976,-0.00008138,0.00001595,-0.00017878,0.00161919,0.
 00021632,0.00041794,0.00076232,0.10606037,0.02098392,-0.24771492,-0.11
 833292,-0.02223190,0.26636034,-0.00003541,0.00002671,-0.00001372,0.000
 01707,-0.00000832,0.00001200,0.00004997,-0.00005729,0.00002900,0.00000
 818,-0.00001331,-0.00000715,0.00000308,-0.00000246,0.00000329,0.000002
 48,0.00000442,0.00000840,-0.00000148,0.00000136,-0.00000018,0.00000149
 ,-0.00000198,0.00000015,-0.00003974,-0.00000428,0.00001044,0.00000408,
 0.00000349,0.00000310,0.00000502,-0.00001946,-0.00000137,0.00024399,-0
 .00003387,0.00031945,-0.00004748,-0.00001376,-0.00000289,0.00005967,0.
 00019652,0.00003138,0.00043832,0.00101072,0.00024193,-0.00000446,-0.00
 010639,0.00005435,0.00060647,-0.00040909,0.00005446,-0.01407640,-0.000
 51510,-0.01375494,0.00030813,0.00062007,0.00022865,-0.00129810,-0.0032
 0107,0.00024857,-0.17103117,0.00762364,-0.12717142,0.01125465,-0.00067
 809,0.01072708,0.18764779,0.00001744,-0.00002139,0.00000251,-0.0000020
 9,0.00001208,0.00001312,0.00003306,-0.00001506,0.00000780,0.00000283,-
 0.00000317,-0.00000824,0.00000197,-0.00000375,0.00000543,0.00000229,0.
 00000183,0.00000377,-0.00000108,0.00000046,0.00000010,0.00000016,-0.00
 000067,-0.00000005,0.00003446,0.00003449,0.00004765,0.00000111,-0.0000
 0137,0.00000206,-0.00001576,0.00001490,0.00000202,-0.00004752,-0.00004
 380,0.00007939,-0.00001761,0.00001615,-0.00000530,0.00017383,0.0000230
 5,0.00011606,-0.00094450,0.00176721,-0.00067417,0.00010081,-0.00003290
 ,-0.00003355,0.00045056,-0.00032052,0.00041309,-0.02050720,-0.00124737
 ,-0.02183557,0.00076243,0.00117908,0.00041353,-0.00307755,-0.00478897,
 0.00001220,0.00766244,-0.04639856,0.00871164,0.00205890,-0.00084019,0.
 00217787,-0.00865503,0.05576132,-0.00003567,0.00000534,-0.00000797,0.0
 0001781,-0.00000199,0.00000830,0.00004219,-0.00001425,0.00001816,0.000
 00988,-0.00000063,-0.00000685,-0.00000364,-0.00000438,0.00000748,0.000
 00719,0.00000339,0.00000289,-0.00000252,-0.00000115,0.00000092,-0.0000
 0041,-0.00000247,0.00000145,-0.00008946,-0.00004292,-0.00003046,0.0000
 0252,-0.00000007,-0.00000110,0.00001526,-0.00002101,-0.00000128,0.0003
 0307,-0.00013201,0.00018747,0.00000481,0.00001234,-0.00001134,0.000035
 69,0.00013203,-0.00001641,0.00003707,0.00015594,0.00012082,-0.00006103
 ,-0.00000805,-0.00004504,0.00015654,-0.00047295,0.00002154,0.00032815,
 -0.00004656,-0.00003739,0.00003274,-0.00053304,0.00075296,0.00026580,-
 0.00003431,0.00158904,-0.12847240,0.00877756,-0.18374504,-0.01957154,0
 .00111042,-0.02054258,0.14137017,-0.00853537,0.19516010,-0.00022809,0.
 00025162,0.00000453,0.00009139,-0.00011613,-0.00003595,0.00021501,-0.0
 0021764,0.00006307,0.00003493,-0.00003792,0.00000046,-0.00000101,0.000
 00037,0.00000109,0.00000741,0.00001000,0.00002118,-0.00000285,0.000001
 41,-0.00000148,0.00000479,-0.00000455,0.00000185,-0.00061249,-0.000317
 71,-0.00004053,0.00001546,0.00002189,0.00000073,0.00013205,-0.00022684
 ,0.00000451,0.00135295,-0.00108662,-0.00023753,-0.00000220,0.00003596,
 0.00005599,0.00000896,0.00009028,-0.00005417,-0.00323949,-0.00326052,0
 .00016377,0.00005300,0.00005715,-0.00024845,0.00019807,0.00001526,0.00
 027382,0.01256656,-0.01323539,-0.00296775,0.00053551,-0.00055132,-0.00
 035584,0.00069217,-0.00084415,0.00014389,-0.12456934,0.06100053,0.0115
 0839,-0.00991368,0.01389403,0.00156067,-0.01385381,0.02002087,0.004892
 83,0.54102766,-0.00016057,0.00016586,0.00000316,0.00006725,-0.00007558
 ,-0.00002356,0.00014523,-0.00012517,0.00004012,0.00002461,-0.00002491,
 -0.00000156,-0.00000153,-0.00000126,0.00000272,0.00000719,0.00000741,0
 .00001429,-0.00000256,0.00000043,-0.00000050,0.00000283,-0.00000355,0.
 00000150,-0.00053790,-0.00035639,-0.00001961,0.00000337,0.00003043,-0.
 00000097,0.00011918,-0.00017188,0.00000167,0.00143559,-0.00059922,-0.0
 0032725,-0.00001986,0.00000376,0.00007013,-0.00003062,0.00001872,-0.00
 005725,-0.00374888,-0.00332935,0.00027105,0.00000807,-0.00004990,-0.00
 016702,-0.00002447,-0.00003636,0.00009491,0.01780668,-0.03064981,-0.00
 495105,0.00103307,0.00167370,-0.00007617,0.00096894,0.00180254,0.00003
 178,0.05789566,-0.15618115,-0.01465201,-0.00083964,0.00097939,0.000008
 07,0.00181914,-0.00294016,-0.00047545,0.04807200,0.52147631,0.00002144
 ,-0.00003290,-0.00000529,-0.00000701,0.00001346,0.00000933,-0.00002457
 ,0.00003340,-0.00001096,-0.00000110,0.00000411,-0.00000363,-0.00000118
 ,-0.00000238,0.00000283,0.00000070,0.00000055,-0.00000139,-0.00000054,
 -0.00000023,0.00000047,-0.00000077,-0.00000009,0.00000010,0.00004440,0
 .00001889,0.00000815,0.00000350,0.00000334,-0.00000050,-0.00000960,0.0
 0001979,-0.00000504,-0.00000178,0.00004567,0.00055245,-0.00004779,-0.0
 0008079,-0.00001919,0.00003821,0.00007028,-0.00001227,0.00009162,0.000
 20258,-0.00024604,-0.00028425,0.00005379,0.00034325,0.00033618,-0.0001
 1956,0.00020292,-0.00035127,-0.00070679,-0.00096056,-0.00032307,0.0010
 4424,0.00048234,0.00040832,-0.00061020,0.00016955,0.01126904,-0.015107
 45,-0.08165725,0.01722798,-0.02543418,-0.00341562,-0.01358193,0.020405
 36,0.00446691,0.00807264,-0.01074045,0.56800424,0.00002655,-0.00002873
 ,0.00001106,-0.00000951,0.00001102,-0.00000507,-0.00002766,0.00003172,
 -0.00001774,-0.00000460,0.00000839,0.00000077,-0.00000168,0.00000004,0
 .00000019,0.00000046,-0.00000198,-0.00000439,0.00000025,-0.00000113,0.
 00000043,-0.00000123,0.00000074,0.00000006,0.00003459,-0.00001442,0.00
 001671,-0.00000512,-0.00000173,-0.00000107,-0.00000730,0.00001235,-0.0
 0000054,-0.00001758,0.00003214,-0.00004856,0.00001283,0.00002328,0.000
 00518,0.00000186,-0.00000304,0.00000087,0.00008836,-0.00001817,-0.0002
 5665,0.00005322,-0.00013710,-0.00006304,-0.00005110,0.00000982,0.00000
 619,0.00043851,-0.00107591,-0.00040718,0.00048843,0.00037691,-0.000200
 30,0.00000605,0.00009721,-0.00004782,-0.01051694,-0.00113558,0.0183453
 1,-0.00159455,0.00378630,0.00027631,0.00032221,-0.00078840,-0.00021637
 ,-0.10439920,-0.00968555,0.10857149,0.11196354,0.00001518,-0.00001516,
 -0.00000441,-0.00000564,0.00000720,0.00000590,-0.00001382,0.00001125,0
 .00000158,-0.00000278,-0.00000012,-0.00000099,0.00000191,0.00000016,-0
 .00000010,-0.00000091,-0.00000040,0.00000028,0.00000031,0.00000053,-0.
 00000018,0.00000008,0.00000031,-0.00000033,0.00002294,0.00002089,0.000
 00313,-0.00000085,0.00000395,-0.00000023,-0.00000385,0.00000795,-0.000
 00228,-0.00007660,0.00000769,0.00009622,-0.00001944,-0.00003729,0.0000
 0323,0.00000311,0.00000129,-0.00000150,0.00013411,-0.00003962,0.000043
 23,-0.00014504,0.00000107,0.00016691,0.00001102,0.00001432,-0.00000902
 ,0.00050085,0.00196519,-0.00100987,-0.00028389,-0.00026187,0.00052360,
 -0.00010468,-0.00004940,0.00001478,0.01277198,0.00090526,-0.02511662,0
 .00328365,-0.00420924,-0.00086217,-0.00075575,0.00112113,0.00053251,-0
 .01024432,-0.04782813,0.01799937,0.00705595,0.05112298,-0.00001429,0.0
 0002327,-0.00000582,0.00000412,-0.00001084,0.00000132,0.00001286,-0.00
 002324,0.00001159,0.00000144,-0.00000544,0.00000195,0.00000183,0.00000
 158,-0.00000157,-0.00000164,0.,0.00000272,0.00000057,0.00000108,-0.000
 00080,0.00000112,0.00000022,-0.00000027,-0.00003152,-0.00000844,-0.000
 00756,-0.00000017,0.00000283,0.00000037,0.00000852,-0.00001429,-0.0000
 0103,0.00006150,-0.00005768,-0.00001570,0.00000054,-0.00001187,0.00000
 801,-0.00000103,0.00000070,-0.00000809,-0.00024293,-0.00012803,0.00033
 313,-0.00005982,0.00016007,0.00000717,0.00000260,0.00000606,-0.0000153
 3,-0.00024132,0.00043334,0.00026655,-0.00021555,-0.00062177,0.00002758
 ,0.00005003,-0.00003789,-0.00005770,0.00201908,0.00015343,-0.00383067,
 0.00056141,-0.00077071,0.00149840,0.00011668,-0.00039122,0.00072782,0.
 10914394,0.01708489,-0.25449496,-0.12137912,-0.01808378,0.27422868,0.0
 0003803,-0.00004118,0.00000003,-0.00001641,0.00001912,0.00000458,-0.00
 003760,0.00003430,-0.00001344,-0.00000577,0.00000691,0.00000075,-0.000
 00017,0.00000005,-0.00000065,-0.00000187,-0.00000168,-0.00000410,0.000
 00050,-0.00000028,0.00000023,-0.00000084,0.00000095,-0.00000031,0.0001
 3586,0.00008740,0.00000807,-0.00000254,-0.00000474,0.00000095,-0.00003
 111,0.00005124,0.00000155,-0.00034102,0.00026929,0.00007822,-0.0000022
 8,-0.00000778,-0.00001553,-0.00000393,-0.00001518,0.00001411,0.0008844
 0,0.00091384,0.00002200,0.00001827,-0.00004428,0.00003388,0.00002217,-
 0.00006215,-0.00004731,-0.00253792,0.00249174,0.00062107,-0.00004564,0
 .00007669,-0.00017603,0.00010560,0.00012254,0.00023942,0.01237632,0.01
 863705,-0.00034894,0.00076983,-0.00094089,-0.00008627,0.00083560,-0.00
 089868,-0.00027825,-0.12753386,-0.12510542,0.00055559,-0.00843444,-0.0
 1132985,-0.00095590,0.13571824,-0.00016790,0.00019004,0.00000591,0.000
 06123,-0.00008610,-0.00003144,0.00016081,-0.00016998,0.00004471,0.0000
 2608,-0.00002523,0.00000434,-0.00000271,0.00000101,-0.00000107,0.00000
 415,0.00000694,0.00001267,-0.00000197,0.00000049,-0.00000096,0.0000030
 8,-0.00000311,0.00000168,-0.00033835,-0.00010206,-0.00002393,0.0000142
 4,0.00001273,0.00000164,0.00007224,-0.00011380,0.00000683,0.00067747,-
 0.00036437,-0.00014282,-0.00001852,0.00000278,0.00002996,-0.00001778,0
 .00002033,-0.00002601,-0.00168849,-0.00094223,0.00012250,0.00004172,-0
 .00001094,-0.00010440,0.00004813,0.00000391,0.00007465,0.00558493,-0.0
 0293216,-0.00104645,0.00008925,0.00026444,0.00009729,-0.00000041,0.000
 22722,-0.00010600,-0.01565566,-0.02054987,0.00055632,-0.00015144,0.000
 98493,-0.00044132,-0.00006405,0.00087890,0.00061985,-0.12345507,-0.236
 40915,0.00105044,-0.00049263,-0.00142354,0.00035928,0.13355605,0.25805
 465,-0.00001971,0.00002484,0.00000533,0.00000775,-0.00001262,-0.000008
 01,0.00001493,-0.00002092,0.00000165,0.00000202,-0.00000229,0.00000111
 ,0.00000005,0.00000057,-0.00000053,0.00000049,0.00000042,0.00000124,-0
 .00000012,-0.00000008,-0.00000020,0.00000026,-0.00000004,0.00000016,-0
 .00004512,-0.00001686,-0.00000532,0.00000316,0.00000025,-0.00000183,0.
 00001109,-0.00001561,-0.00000097,0.00010517,-0.00006938,-0.00001292,0.
 00000401,0.00000183,0.00000357,-0.00000742,0.00000397,-0.00000400,-0.0
 0019537,-0.00025152,0.00054381,-0.00003996,0.00007781,-0.00001753,0.00
 003897,-0.00006166,-0.00001322,0.00089201,-0.00063798,0.00027541,-0.00
 028939,-0.00029826,0.00025786,0.00034294,0.00028025,0.00014076,-0.0032
 6022,-0.00419532,-0.00151470,-0.00045828,0.00009870,0.00007163,0.00023
 295,0.00030341,0.00010763,0.00069711,0.00129496,-0.04691062,0.01534960
 ,0.02456270,0.00092288,-0.00116629,-0.00050691,0.04567013,0.00002807,-
 0.00004931,-0.00001295,-0.00000762,0.00002398,0.00001747,-0.00002725,0
 .00003884,-0.00000050,-0.00000280,0.00000377,-0.00000475,0.00000031,-0
 .00000215,0.00000333,0.00000145,0.00000008,-0.00000085,-0.00000051,-0.
 00000005,0.00000056,-0.00000059,-0.00000045,-0.00000005,0.00003504,-0.
 00000199,-0.00000491,-0.00000641,0.00000004,-0.00000009,-0.00000824,0.
 00001762,-0.00000189,-0.00002279,0.00003690,0.00005836,0.00000271,-0.0
 0000074,-0.00000298,0.00000922,0.00002382,-0.00000067,0.00023720,-0.00
 003301,0.00027402,-0.00005210,0.00001068,0.00001037,0.00007611,-0.0001
 8354,0.00001126,0.00058802,-0.00116566,0.00014017,-0.00000079,0.000097
 84,0.00004832,0.00056984,0.00050427,0.00012595,-0.01487270,0.00166072,
 -0.01455655,0.00034021,-0.00067504,0.00019581,-0.00142014,0.00363227,0
 .00120958,-0.17257989,0.01074820,-0.13200623,0.01163405,-0.00081368,0.
 01115704,-0.01190943,0.00171563,-0.01222064,0.18738902,0.00000872,-0.0
 0000122,0.00000303,-0.00000526,-0.00000007,-0.00000339,-0.00001293,0.0
 0000564,-0.00000575,-0.00000250,0.00000164,0.00000228,0.00000027,0.000
 00122,-0.00000196,-0.00000167,-0.00000128,-0.00000150,0.00000077,0.000
 00009,-0.00000018,-0.00000006,0.00000060,-0.00000025,0.00002466,0.0000
 1300,0.00000375,0.00000114,-0.00000169,0.00000001,-0.00000290,0.000004
 12,0.00000015,-0.00008836,0.00001571,-0.00006647,0.00000363,0.00000096
 ,0.00000280,-0.00001866,-0.00003851,-0.00000515,0.00006459,-0.00004320
 ,-0.00011800,0.00001224,0.00001453,0.00001090,-0.00019311,0.00004554,-
 0.00011325,0.00074411,0.00181004,0.00110720,-0.00009513,-0.00005337,0.
 00001626,-0.00043296,-0.00024743,-0.00045874,0.01894064,-0.00294976,0.
 02040265,-0.00084167,0.00109484,-0.00024431,0.00323325,-0.00415273,-0.
 00102279,0.01012680,-0.04737660,0.01186975,0.00193849,-0.00132643,0.00
 193847,-0.01781507,0.00248420,-0.02056024,-0.01558904,0.05070018,0.000
 00536,-0.00001809,-0.00000648,-0.00000049,0.00001060,0.00000757,-0.000
 00354,0.00001022,0.00000254,-0.00000006,0.00000031,-0.00000293,0.00000
 017,-0.00000141,0.00000168,0.00000121,0.00000089,0.00000015,-0.0000005
 9,-0.00000011,0.00000047,-0.00000023,-0.00000067,0.00000008,0.00002293
 ,0.00001861,-0.00000098,0.00000005,-0.00000231,0.00000003,-0.00000597,
 0.00001200,0.00000019,-0.00007310,0.00005381,-0.00001363,0.00000014,0.
 00000262,-0.00000698,-0.00000614,-0.00000388,0.00000990,0.00028832,0.0
 0008323,0.00018437,0.00000828,-0.00000294,-0.00001311,0.00000372,-0.00
 010804,-0.00006172,0.00027215,0.00015465,0.00027692,-0.00008461,0.0000
 1196,-0.00005023,0.00000685,0.00046155,-0.00004384,0.00440621,-0.00051
 336,0.00443199,-0.00015054,0.00066430,0.00072787,0.00084155,-0.0012335
 4,0.00127196,-0.13266876,0.01257360,-0.18649923,-0.01993631,0.00113802
 ,-0.01959866,0.00151257,-0.00055676,0.00048669,0.14556083,-0.01275526,
 0.19889537\\0.00001361,-0.00000758,-0.00000338,-0.00000173,0.00000329,
 0.00000569,-0.00000734,0.00000298,-0.00001422,0.00000689,-0.00000798,0
 .00000512,0.00000022,0.00000225,-0.00000353,-0.00000707,-0.00000344,0.
 00000048,0.00000217,0.00000244,-0.00000407,0.00000636,0.00000244,-0.00
 000552,0.00000740,0.00000347,0.00001085,-0.00000575,-0.00000165,0.0000
 0113,-0.00000948,0.00000053,-0.00000135,-0.00000622,0.00000377,-0.0000
 0524,-0.00000005,-0.00000095,0.00000400,0.00000098,0.00000035,0.000005
 36,0.00000186,-0.00000364,0.00000303,-0.00000245,-0.00000118,0.0000005
 5,-0.00000145,0.00000020,-0.00000168,0.00000014,0.00000269,0.00000058,
 0.00000087,0.00000119,0.00000169,-0.00000200,-0.00000093,0.00000180,-0
 .00000131,-0.00000162,-0.00000029,-0.00000179,0.00000030,-0.00000119,0
 .00000260,0.00000045,-0.00000185,0.00000129,0.00000125,0.00000107,0.00
 000219,0.00000072,0.00000083,0.00000058,0.00000074,-0.00000102,-0.0000
 0055,-0.00000011,0.00000117\\\@


 GOORD'S AXIOM:  A MEETING IS AN EVENT AT WHICH
 THE MINUTES ARE KEPT AND THE HOURS ARE LOST.
 Job cpu time:       0 days  4 hours 41 minutes 16.8 seconds.
 Elapsed time:       0 days  0 hours  7 minutes 50.5 seconds.
 File lengths (MBytes):  RWF=    572 Int=      0 D2E=      0 Chk=     25 Scr=      1
 Normal termination of Gaussian 16 at Tue Sep 24 23:58:40 2019.
