 Entering Gaussian System, Link 0=g16
 Initial command:
 /opt/gaussian/16.B.01/g16/l1.exe "/oasis/scratch/comet/mayes/temp_project/Gau-27197.inp" -scrdir="/oasis/scratch/comet/mayes/temp_project/"
 Entering Link 1 = /opt/gaussian/16.B.01/g16/l1.exe PID=     27198.
  
 Copyright (c) 1988-2017, Gaussian, Inc.  All Rights Reserved.
  
 This is part of the Gaussian(R) 16 program.  It is based on
 the Gaussian(R) 09 system (copyright 2009, Gaussian, Inc.),
 the Gaussian(R) 03 system (copyright 2003, Gaussian, Inc.),
 the Gaussian(R) 98 system (copyright 1998, Gaussian, Inc.),
 the Gaussian(R) 94 system (copyright 1995, Gaussian, Inc.),
 the Gaussian 92(TM) system (copyright 1992, Gaussian, Inc.),
 the Gaussian 90(TM) system (copyright 1990, Gaussian, Inc.),
 the Gaussian 88(TM) system (copyright 1988, Gaussian, Inc.),
 the Gaussian 86(TM) system (copyright 1986, Carnegie Mellon
 University), and the Gaussian 82(TM) system (copyright 1983,
 Carnegie Mellon University). Gaussian is a federally registered
 trademark of Gaussian, Inc.
  
 This software contains proprietary and confidential information,
 including trade secrets, belonging to Gaussian, Inc.
  
 This software is provided under written license and may be
 used, copied, transmitted, or stored only in accord with that
 written license.
  
 The following legend is applicable only to US Government
 contracts under FAR:
  
                    RESTRICTED RIGHTS LEGEND
  
 Use, reproduction and disclosure by the US Government is
 subject to restrictions as set forth in subparagraphs (a)
 and (c) of the Commercial Computer Software - Restricted
 Rights clause in FAR 52.227-19.
  
 Gaussian, Inc.
 340 Quinnipiac St., Bldg. 40, Wallingford CT 06492
  
  
 ---------------------------------------------------------------
 Warning -- This program may not be used in any manner that
 competes with the business of Gaussian, Inc. or will provide
 assistance to any competitor of Gaussian, Inc.  The licensee
 of this program is prohibited from giving any competitor of
 Gaussian, Inc. access to this program.  By using this program,
 the user acknowledges that Gaussian, Inc. is engaged in the
 business of creating and licensing software in the field of
 computational chemistry and represents and warrants to the
 licensee that it is not a competitor of Gaussian, Inc. and that
 it will not use this program in any manner prohibited above.
 ---------------------------------------------------------------
  

 Cite this work as:
 Gaussian 16, Revision B.01,
 M. J. Frisch, G. W. Trucks, H. B. Schlegel, G. E. Scuseria, 
 M. A. Robb, J. R. Cheeseman, G. Scalmani, V. Barone, 
 G. A. Petersson, H. Nakatsuji, X. Li, M. Caricato, A. V. Marenich, 
 J. Bloino, B. G. Janesko, R. Gomperts, B. Mennucci, H. P. Hratchian, 
 J. V. Ortiz, A. F. Izmaylov, J. L. Sonnenberg, D. Williams-Young, 
 F. Ding, F. Lipparini, F. Egidi, J. Goings, B. Peng, A. Petrone, 
 T. Henderson, D. Ranasinghe, V. G. Zakrzewski, J. Gao, N. Rega, 
 G. Zheng, W. Liang, M. Hada, M. Ehara, K. Toyota, R. Fukuda, 
 J. Hasegawa, M. Ishida, T. Nakajima, Y. Honda, O. Kitao, H. Nakai, 
 T. Vreven, K. Throssell, J. A. Montgomery, Jr., J. E. Peralta, 
 F. Ogliaro, M. J. Bearpark, J. J. Heyd, E. N. Brothers, K. N. Kudin, 
 V. N. Staroverov, T. A. Keith, R. Kobayashi, J. Normand, 
 K. Raghavachari, A. P. Rendell, J. C. Burant, S. S. Iyengar, 
 J. Tomasi, M. Cossi, J. M. Millam, M. Klene, C. Adamo, R. Cammi, 
 J. W. Ochterski, R. L. Martin, K. Morokuma, O. Farkas, 
 J. B. Foresman, and D. J. Fox, Gaussian, Inc., Wallingford CT, 2016.
 
 ******************************************
 Gaussian 16:  ES64L-G16RevB.01 20-Dec-2017
                 3-Oct-2019 
 ******************************************
 %RWF=/oasis/scratch/comet/mayes/temp_project/lme2acetoxprpnt_ts4_ircf_opt.rwf
 %NoSave
 %OldChk=/oasis/scratch/comet/mayes/temp_project/lme2acetoxprpnt_ts4_ircf.chk
 %Chk=/oasis/scratch/comet/mayes/temp_project/lme2acetoxprpnt_ts4_ircf_opt.chk
 %cpu=0-23
 SetSPE:  set environment variable "MP_BIND" = "yes"
 SetSPE:  set environment variable "MP_BLIST" = "0,1,2,3,4,5,6,7,8,9,10,11,12,13,14,15,16,17,18,19,20,21,22,23"
 Will use up to   24 processors via shared memory.
 %mem=102GB
 Copying data from "/oasis/scratch/comet/mayes/temp_project/lme2acetoxprpnt_ts4_ircf.chk" to current chk file "/oasis/scratch/comet/mayes/temp_project/lme2acetoxprpnt_ts4_ircf_opt.chk"
 IOpt=  2 FromEx=T IUOpen= 4 IOptOp= 5 NList=   0 IFRang= 0 IUIn= 4 IUOut= 2.
 ----------------------------------------------------------------------
 # m062x/Def2TZVP nosymm scf=xqc opt freq=NoRaman CPHF=Grid=Fine guess=
 read geom=allcheck
 ----------------------------------------------------------------------
 1/18=20,19=15,26=3,29=7,38=1/1,3;
 2/9=110,12=2,15=1,40=1/2;
 3/5=44,7=101,11=2,14=-4,25=1,30=1,71=1,74=-55,116=-2/1,2,3;
 4/5=1/1;
 5/5=2,8=3,13=1,38=6/2,8;
 6/7=2,8=2,9=2,10=2,28=1/1;
 7/30=1/1,2,3,16;
 1/18=20,19=15,26=3/3(2);
 2/9=110,15=1/2;
 99//99;
 2/9=110,15=1/2;
 3/5=44,7=101,11=2,14=-2,25=1,30=1,71=1,74=-55/1,2,3;
 4/5=5,16=3,69=1/1;
 5/5=2,8=3,13=1,38=5/2,8;
 7/30=1/1,2,3,16;
 1/18=20,19=15,26=3/3(-5);
 2/9=110,15=1/2;
 6/7=2,8=2,9=2,10=2,19=2,28=1/1;
 99/9=1/99;
 Structure from the checkpoint file:  "/oasis/scratch/comet/mayes/temp_project/lme2acetoxprpnt_ts4_ircf_opt.chk"
 ------------------------------
 from lme2acetoxprpnt_scan4.log
 ------------------------------
 Charge =  0 Multiplicity = 1
 No Z-Matrix found in chk file; cartesian coordinates used.
  C                                                -0.456230534403      1.262666993843     -0.386479028472
  O                                                -0.777573319495      1.803994773849      0.631207858459
  O                                                 0.298223325737      1.805336938412     -1.335496569798
  C                                                -0.804643938965     -0.154808821073     -0.745641484594
  H                                                -0.617658162709     -0.396692402658     -1.783986062758
  C                                                -2.000193720885     -0.712264681203     -0.095694873600
  H                                                -2.590494660673      0.047207577162      0.412910985677
  H                                                -2.586811710361     -1.370674681299     -0.728399667696
  H                                                -1.595607333158     -1.311871264489      0.714758967188
  O                                                 0.722078643613     -0.824683292125     -0.156941407891
  C                                                 0.777172129112      3.117309403208     -1.047046555572
  H                                                 1.392079851461      3.099307893297     -0.148613360575
  H                                                 1.363645685656      3.416237451778     -1.909704819806
  H                                                -0.059184252991      3.797326267529     -0.892834265352
  C                                                 0.643718911163     -1.775972160183      0.754352988276
  C                                                 1.801294754375     -2.744262250937      0.831553402205
  H                                                 1.567536837945     -3.596196860677      0.190776309112
  H                                                 2.735862722051     -2.302060493159      0.495892573601
  H                                                 1.878918676173     -3.094718636473      1.857390320922
  O                                                -0.307455093256     -1.920954696789      1.490901212595
 Recover connectivity data from disk.

 GradGradGradGradGradGradGradGradGradGradGradGradGradGradGradGradGradGrad
 Berny optimization.
 Initialization pass.
                           ----------------------------
                           !    Initial Parameters    !
                           ! (Angstroms and Degrees)  !
 --------------------------                            --------------------------
 ! Name  Definition              Value          Derivative Info.                !
 --------------------------------------------------------------------------------
 ! R1    R(1,2)                  1.1967         estimate D2E/DX2                !
 ! R2    R(1,3)                  1.3283         estimate D2E/DX2                !
 ! R3    R(1,4)                  1.5032         estimate D2E/DX2                !
 ! R4    R(3,11)                 1.4261         estimate D2E/DX2                !
 ! R5    R(4,5)                  1.0824         estimate D2E/DX2                !
 ! R6    R(4,6)                  1.4706         estimate D2E/DX2                !
 ! R7    R(4,10)                 1.7681         estimate D2E/DX2                !
 ! R8    R(6,7)                  1.0881         estimate D2E/DX2                !
 ! R9    R(6,8)                  1.0853         estimate D2E/DX2                !
 ! R10   R(6,9)                  1.0863         estimate D2E/DX2                !
 ! R11   R(9,20)                 1.6226         estimate D2E/DX2                !
 ! R12   R(10,15)                1.3197         estimate D2E/DX2                !
 ! R13   R(11,12)                1.0889         estimate D2E/DX2                !
 ! R14   R(11,13)                1.0851         estimate D2E/DX2                !
 ! R15   R(11,14)                1.0889         estimate D2E/DX2                !
 ! R16   R(15,16)                1.5111         estimate D2E/DX2                !
 ! R17   R(15,20)                1.2117         estimate D2E/DX2                !
 ! R18   R(16,17)                1.0913         estimate D2E/DX2                !
 ! R19   R(16,18)                1.087          estimate D2E/DX2                !
 ! R20   R(16,19)                1.0868         estimate D2E/DX2                !
 ! A1    A(2,1,3)              125.1226         estimate D2E/DX2                !
 ! A2    A(2,1,4)              124.5778         estimate D2E/DX2                !
 ! A3    A(3,1,4)              110.2545         estimate D2E/DX2                !
 ! A4    A(1,3,11)             114.9666         estimate D2E/DX2                !
 ! A5    A(1,4,5)              113.5709         estimate D2E/DX2                !
 ! A6    A(1,4,6)              116.1226         estimate D2E/DX2                !
 ! A7    A(1,4,10)              94.4488         estimate D2E/DX2                !
 ! A8    A(5,4,6)              118.6664         estimate D2E/DX2                !
 ! A9    A(5,4,10)              94.9088         estimate D2E/DX2                !
 ! A10   A(6,4,10)             114.2819         estimate D2E/DX2                !
 ! A11   A(4,6,7)              112.5233         estimate D2E/DX2                !
 ! A12   A(4,6,8)              114.3138         estimate D2E/DX2                !
 ! A13   A(4,6,9)              103.6617         estimate D2E/DX2                !
 ! A14   A(7,6,8)              113.747          estimate D2E/DX2                !
 ! A15   A(7,6,9)              103.8033         estimate D2E/DX2                !
 ! A16   A(8,6,9)              107.5407         estimate D2E/DX2                !
 ! A17   A(6,9,20)             149.2895         estimate D2E/DX2                !
 ! A18   A(4,10,15)            116.8563         estimate D2E/DX2                !
 ! A19   A(3,11,12)            109.9581         estimate D2E/DX2                !
 ! A20   A(3,11,13)            105.9108         estimate D2E/DX2                !
 ! A21   A(3,11,14)            110.1943         estimate D2E/DX2                !
 ! A22   A(12,11,13)           110.8114         estimate D2E/DX2                !
 ! A23   A(12,11,14)           109.1003         estimate D2E/DX2                !
 ! A24   A(13,11,14)           110.8347         estimate D2E/DX2                !
 ! A25   A(10,15,16)           116.8523         estimate D2E/DX2                !
 ! A26   A(10,15,20)           123.5463         estimate D2E/DX2                !
 ! A27   A(16,15,20)           119.5773         estimate D2E/DX2                !
 ! A28   A(15,16,17)           107.8261         estimate D2E/DX2                !
 ! A29   A(15,16,18)           112.4671         estimate D2E/DX2                !
 ! A30   A(15,16,19)           108.0324         estimate D2E/DX2                !
 ! A31   A(17,16,18)           108.6876         estimate D2E/DX2                !
 ! A32   A(17,16,19)           108.5284         estimate D2E/DX2                !
 ! A33   A(18,16,19)           111.1758         estimate D2E/DX2                !
 ! A34   A(9,20,15)            106.7094         estimate D2E/DX2                !
 ! D1    D(2,1,3,11)             2.4357         estimate D2E/DX2                !
 ! D2    D(4,1,3,11)          -175.2093         estimate D2E/DX2                !
 ! D3    D(2,1,4,5)            167.3521         estimate D2E/DX2                !
 ! D4    D(2,1,4,6)             24.52           estimate D2E/DX2                !
 ! D5    D(2,1,4,10)           -95.3178         estimate D2E/DX2                !
 ! D6    D(3,1,4,5)            -14.9874         estimate D2E/DX2                !
 ! D7    D(3,1,4,6)           -157.8194         estimate D2E/DX2                !
 ! D8    D(3,1,4,10)            82.3427         estimate D2E/DX2                !
 ! D9    D(1,3,11,12)           60.5009         estimate D2E/DX2                !
 ! D10   D(1,3,11,13)         -179.7258         estimate D2E/DX2                !
 ! D11   D(1,3,11,14)          -59.7975         estimate D2E/DX2                !
 ! D12   D(1,4,6,7)             11.4789         estimate D2E/DX2                !
 ! D13   D(1,4,6,8)            143.2181         estimate D2E/DX2                !
 ! D14   D(1,4,6,9)           -100.0277         estimate D2E/DX2                !
 ! D15   D(5,4,6,7)           -129.3896         estimate D2E/DX2                !
 ! D16   D(5,4,6,8)              2.3497         estimate D2E/DX2                !
 ! D17   D(5,4,6,9)            119.1038         estimate D2E/DX2                !
 ! D18   D(10,4,6,7)           119.9006         estimate D2E/DX2                !
 ! D19   D(10,4,6,8)          -108.3602         estimate D2E/DX2                !
 ! D20   D(10,4,6,9)             8.394          estimate D2E/DX2                !
 ! D21   D(1,4,10,15)          123.6968         estimate D2E/DX2                !
 ! D22   D(5,4,10,15)         -122.1454         estimate D2E/DX2                !
 ! D23   D(6,4,10,15)            2.3924         estimate D2E/DX2                !
 ! D24   D(4,6,9,20)            -4.408          estimate D2E/DX2                !
 ! D25   D(7,6,9,20)          -122.1605         estimate D2E/DX2                !
 ! D26   D(8,6,9,20)           117.0056         estimate D2E/DX2                !
 ! D27   D(6,9,20,15)          -14.1105         estimate D2E/DX2                !
 ! D28   D(4,10,15,16)         154.2946         estimate D2E/DX2                !
 ! D29   D(4,10,15,20)         -23.9094         estimate D2E/DX2                !
 ! D30   D(10,15,16,17)        -92.1396         estimate D2E/DX2                !
 ! D31   D(10,15,16,18)         27.6748         estimate D2E/DX2                !
 ! D32   D(10,15,16,19)        150.7486         estimate D2E/DX2                !
 ! D33   D(20,15,16,17)         86.1393         estimate D2E/DX2                !
 ! D34   D(20,15,16,18)       -154.0463         estimate D2E/DX2                !
 ! D35   D(20,15,16,19)        -30.9725         estimate D2E/DX2                !
 ! D36   D(10,15,20,9)          26.7758         estimate D2E/DX2                !
 ! D37   D(16,15,20,9)        -151.3818         estimate D2E/DX2                !
 --------------------------------------------------------------------------------
 Trust Radius=3.00D-01 FncErr=1.00D-07 GrdErr=1.00D-06 EigMax=2.50D+02 EigMin=1.00D-04
 Number of steps in this run=    101 maximum allowed number of steps=    120.
 GradGradGradGradGradGradGradGradGradGradGradGradGradGradGradGradGradGrad

                          Input orientation:                          
 ---------------------------------------------------------------------
 Center     Atomic      Atomic             Coordinates (Angstroms)
 Number     Number       Type             X           Y           Z
 ---------------------------------------------------------------------
      1          6           0       -0.456231    1.262667   -0.386479
      2          8           0       -0.777573    1.803995    0.631208
      3          8           0        0.298223    1.805337   -1.335497
      4          6           0       -0.804644   -0.154809   -0.745641
      5          1           0       -0.617658   -0.396692   -1.783986
      6          6           0       -2.000194   -0.712265   -0.095695
      7          1           0       -2.590495    0.047208    0.412911
      8          1           0       -2.586812   -1.370675   -0.728400
      9          1           0       -1.595607   -1.311871    0.714759
     10          8           0        0.722079   -0.824683   -0.156941
     11          6           0        0.777172    3.117309   -1.047047
     12          1           0        1.392080    3.099308   -0.148613
     13          1           0        1.363646    3.416237   -1.909705
     14          1           0       -0.059184    3.797326   -0.892834
     15          6           0        0.643719   -1.775972    0.754353
     16          6           0        1.801295   -2.744262    0.831553
     17          1           0        1.567537   -3.596197    0.190776
     18          1           0        2.735863   -2.302060    0.495893
     19          1           0        1.878919   -3.094719    1.857390
     20          8           0       -0.307455   -1.920955    1.490901
 ---------------------------------------------------------------------
                    Distance matrix (angstroms):
                    1          2          3          4          5
     1  C    0.000000
     2  O    1.196655   0.000000
     3  O    1.328279   2.241711   0.000000
     4  C    1.503206   2.394443   2.325170   0.000000
     5  H    2.175444   3.271354   2.426709   1.082419   0.000000
     6  C    2.523635   2.890458   3.627416   1.470553   2.204840
     7  H    2.582915   2.533898   3.806920   2.138298   2.985881
     8  H    3.404523   3.898769   4.333479   2.157487   2.437308
     9  H    3.023103   3.222543   4.184152   2.024151   2.835077
    10  O    2.407931   3.127313   2.913014   1.768101   2.150662
    11  C    2.323215   2.637910   1.426137   3.646882   3.851862
    12  H    2.616502   2.644495   2.068713   3.971311   4.351495
    13  H    3.204689   3.693289   2.014905   4.336922   4.298814
    14  H    2.615060   2.610011   2.071645   4.024518   4.323868
    15  C    3.427056   3.853751   4.160843   2.641195   3.152245
    16  C    4.757679   5.232336   5.258724   3.997966   4.266552
    17  H    5.295037   5.903862   5.754757   4.283372   4.348746
    18  H    4.865729   5.405759   5.115348   4.322879   4.480444
    19  H    5.429059   5.705950   6.058355   4.756086   5.174153
    20  O    3.698937   3.851666   4.715996   2.892852   3.625533
                    6          7          8          9         10
     6  C    0.000000
     7  H    1.088087   0.000000
     8  H    1.085329   1.820163   0.000000
     9  H    1.086303   1.711142   1.751756   0.000000
    10  O    2.725281   3.472473   3.401974   2.523664   0.000000
    11  C    4.825398   4.785204   5.617822   5.324630   4.041612
    12  H    5.102784   5.048913   6.012360   5.397239   3.980789
    13  H    5.625885   5.690354   6.317921   6.164414   4.633486
    14  H    4.973868   4.709129   5.755360   5.572150   4.744985
    15  C    2.973942   3.728365   3.577590   2.287256   1.319677
    16  C    4.409095   5.220668   4.855479   3.688405   2.413838
    17  H    4.596502   5.532898   4.801713   3.936773   2.918389
    18  H    5.030672   5.822030   5.540508   4.448596   2.581504
    19  H    4.953599   5.651007   5.440716   4.068966   3.247903
    20  O    2.616024   3.201249   3.228556   1.622565   2.230950
                   11         12         13         14         15
    11  C    0.000000
    12  H    1.088861   0.000000
    13  H    1.085121   1.789608   0.000000
    14  H    1.088897   1.774052   1.789888   0.000000
    15  C    5.216038   5.014354   5.880012   5.853969   0.000000
    16  C    6.239871   5.939318   6.757055   7.016215   1.511134
    17  H    6.872267   6.706397   7.323102   7.647524   2.117611
    18  H    5.965459   5.603206   6.353645   6.851523   2.172703
    19  H    6.945422   6.528938   7.539832   7.669437   2.116956
    20  O    5.744711   5.547924   6.545404   6.200207   1.211716
                   16         17         18         19         20
    16  C    0.000000
    17  H    1.091343   0.000000
    18  H    1.087027   1.769992   0.000000
    19  H    1.086824   1.768061   1.793415   0.000000
    20  O    2.357838   2.830611   3.224448   2.508439   0.000000
 Symmetry turned off by external request.
 Stoichiometry    C6H10O4
 Framework group  C1[X(C6H10O4)]
 Deg. of freedom    54
 Full point group                 C1      NOp   1
 Rotational constants (GHZ):           2.3281619           0.7935951           0.6831139
 Standard basis: def2TZVP (5D, 7F)
   370 basis functions,   590 primitive gaussians,   420 cartesian basis functions
    39 alpha electrons       39 beta electrons
       nuclear repulsion energy       560.3652385188 Hartrees.
 NAtoms=   20 NActive=   20 NUniq=   20 SFac= 1.00D+00 NAtFMM=   60 NAOKFM=F Big=F
 Integral buffers will be    131072 words long.
 Raffenetti 2 integral format.
 Two-electron integral symmetry is turned off.
 One-electron integrals computed using PRISM.
   1 Symmetry operations used in ECPInt.
 ECPInt:  NShTT=   11325 NPrTT=   34180 LenC2=   10744 LenP2D=   24775.
 LDataN:  DoStor=T MaxTD1= 6 Len=  172
 NBasis=   370 RedAO= T EigKep=  1.12D-04  NBF=   370
 NBsUse=   370 1.00D-06 EigRej= -1.00D+00 NBFU=   370
 Initial guess from the checkpoint file:  "/oasis/scratch/comet/mayes/temp_project/lme2acetoxprpnt_ts4_ircf_opt.chk"
 B after Tr=    -0.000000   -0.000000    0.000000
         Rot=    1.000000    0.000000   -0.000000    0.000000 Ang=   0.00 deg.
 Requested convergence on RMS density matrix=1.00D-08 within  32 cycles.
 Requested convergence on MAX density matrix=1.00D-06.
 Requested convergence on             energy=1.00D-06.
 No special actions if energy rises.
 SCF Done:  E(RM062X) =  -535.513236299     A.U. after    1 cycles
            NFock=  1  Conv=0.32D-08     -V/T= 2.0044
 QCSCF skips out because SCF is already converged.

 **********************************************************************

            Population analysis using the SCF Density.

 **********************************************************************

 Alpha  occ. eigenvalues --  -19.68698 -19.66433 -19.62994 -19.60203 -10.68460
 Alpha  occ. eigenvalues --  -10.66785 -10.64086 -10.59886 -10.54174 -10.52006
 Alpha  occ. eigenvalues --   -1.25732  -1.21304  -1.16107  -1.11748  -0.91584
 Alpha  occ. eigenvalues --   -0.84247  -0.83419  -0.74793  -0.66311  -0.64155
 Alpha  occ. eigenvalues --   -0.61831  -0.58549  -0.57853  -0.56594  -0.54843
 Alpha  occ. eigenvalues --   -0.54437  -0.52317  -0.49572  -0.48332  -0.47085
 Alpha  occ. eigenvalues --   -0.46734  -0.45445  -0.44443  -0.44218  -0.40289
 Alpha  occ. eigenvalues --   -0.39089  -0.38561  -0.36511  -0.32595
 Alpha virt. eigenvalues --   -0.01889   0.05217   0.06749   0.08617   0.09298
 Alpha virt. eigenvalues --    0.10205   0.11224   0.12056   0.13769   0.14524
 Alpha virt. eigenvalues --    0.15213   0.15474   0.16211   0.17501   0.19023
 Alpha virt. eigenvalues --    0.20340   0.20740   0.22111   0.22605   0.23614
 Alpha virt. eigenvalues --    0.23923   0.25491   0.26163   0.26818   0.28361
 Alpha virt. eigenvalues --    0.30263   0.30548   0.31221   0.34037   0.35873
 Alpha virt. eigenvalues --    0.36412   0.37087   0.38713   0.40868   0.41537
 Alpha virt. eigenvalues --    0.42260   0.43210   0.44168   0.44638   0.45506
 Alpha virt. eigenvalues --    0.45644   0.47212   0.48229   0.48519   0.49051
 Alpha virt. eigenvalues --    0.49115   0.50341   0.51526   0.52007   0.54575
 Alpha virt. eigenvalues --    0.55597   0.56039   0.56967   0.58618   0.59946
 Alpha virt. eigenvalues --    0.61253   0.62147   0.62422   0.64297   0.65015
 Alpha virt. eigenvalues --    0.65983   0.67145   0.69701   0.70291   0.72316
 Alpha virt. eigenvalues --    0.73466   0.77123   0.77582   0.79246   0.83139
 Alpha virt. eigenvalues --    0.85195   0.85884   0.88502   0.90049   0.91035
 Alpha virt. eigenvalues --    0.93324   0.94162   0.94846   0.95988   0.97158
 Alpha virt. eigenvalues --    0.99364   1.01690   1.02034   1.02499   1.03662
 Alpha virt. eigenvalues --    1.06175   1.07536   1.08711   1.10775   1.11572
 Alpha virt. eigenvalues --    1.12857   1.15235   1.16566   1.18158   1.22421
 Alpha virt. eigenvalues --    1.25744   1.30619   1.31327   1.35206   1.40876
 Alpha virt. eigenvalues --    1.41523   1.44611   1.47291   1.49498   1.50771
 Alpha virt. eigenvalues --    1.51875   1.52479   1.53933   1.55388   1.56205
 Alpha virt. eigenvalues --    1.57834   1.58445   1.59459   1.59798   1.61217
 Alpha virt. eigenvalues --    1.62110   1.62589   1.63570   1.64466   1.65324
 Alpha virt. eigenvalues --    1.66501   1.69208   1.69328   1.71902   1.75653
 Alpha virt. eigenvalues --    1.77752   1.79333   1.81699   1.84256   1.85363
 Alpha virt. eigenvalues --    1.90408   1.90831   1.92161   1.92416   1.95863
 Alpha virt. eigenvalues --    1.96745   1.99770   2.01965   2.03464   2.04670
 Alpha virt. eigenvalues --    2.04882   2.06569   2.08289   2.09415   2.13315
 Alpha virt. eigenvalues --    2.15153   2.16450   2.16766   2.18530   2.19572
 Alpha virt. eigenvalues --    2.22004   2.25172   2.26430   2.28019   2.29368
 Alpha virt. eigenvalues --    2.29730   2.32557   2.34094   2.34821   2.35551
 Alpha virt. eigenvalues --    2.37393   2.38792   2.41422   2.42644   2.44683
 Alpha virt. eigenvalues --    2.46166   2.46489   2.51734   2.53105   2.53930
 Alpha virt. eigenvalues --    2.55800   2.56229   2.57306   2.58965   2.62758
 Alpha virt. eigenvalues --    2.63772   2.64772   2.65507   2.67996   2.71022
 Alpha virt. eigenvalues --    2.74615   2.75531   2.77642   2.79095   2.80547
 Alpha virt. eigenvalues --    2.83504   2.84819   2.86892   2.88952   2.91173
 Alpha virt. eigenvalues --    2.92590   2.93859   2.97085   2.97725   2.99189
 Alpha virt. eigenvalues --    3.00514   3.02333   3.04783   3.05623   3.05645
 Alpha virt. eigenvalues --    3.08283   3.09560   3.10829   3.11317   3.11658
 Alpha virt. eigenvalues --    3.14762   3.17409   3.17873   3.18363   3.21473
 Alpha virt. eigenvalues --    3.22326   3.24803   3.25920   3.27592   3.28701
 Alpha virt. eigenvalues --    3.30623   3.31534   3.31873   3.33339   3.35624
 Alpha virt. eigenvalues --    3.37723   3.38546   3.39917   3.41020   3.41567
 Alpha virt. eigenvalues --    3.42727   3.45945   3.48162   3.50355   3.51682
 Alpha virt. eigenvalues --    3.53524   3.54827   3.56778   3.57713   3.58065
 Alpha virt. eigenvalues --    3.61656   3.63620   3.65079   3.70532   3.71755
 Alpha virt. eigenvalues --    3.73505   3.78915   3.81306   3.85546   3.87656
 Alpha virt. eigenvalues --    3.88218   3.89068   3.96935   4.00714   4.04184
 Alpha virt. eigenvalues --    4.04237   4.07263   4.10300   4.16628   4.18521
 Alpha virt. eigenvalues --    4.23190   4.31633   4.33872   4.37159   4.39551
 Alpha virt. eigenvalues --    4.41011   4.42586   4.45348   4.47036   4.50283
 Alpha virt. eigenvalues --    4.53856   4.56749   4.57945   4.65636   4.71545
 Alpha virt. eigenvalues --    4.72612   4.83890   4.86484   5.17834   5.21567
 Alpha virt. eigenvalues --    5.21947   5.24981   5.28517   5.31383   5.34916
 Alpha virt. eigenvalues --    5.43027   5.46223   5.50563   5.55769   5.63331
 Alpha virt. eigenvalues --    5.65127   5.65469   5.68487   5.82279   5.83827
 Alpha virt. eigenvalues --    5.98697   6.01276   6.03373   6.07245   6.13556
 Alpha virt. eigenvalues --    6.15057   6.20390   6.36608   6.37180   6.41960
 Alpha virt. eigenvalues --    6.44262   6.50871   6.56472   6.59905   6.64492
 Alpha virt. eigenvalues --    6.64963   6.70248   6.75115   6.77039   6.82007
 Alpha virt. eigenvalues --    6.83297   6.86224   6.92318   6.98944   6.99415
 Alpha virt. eigenvalues --    7.12428   7.14636   7.17283   7.26117   7.29129
 Alpha virt. eigenvalues --    7.36554  22.42425  22.43700  22.45515  22.59374
 Alpha virt. eigenvalues --   23.41860  23.49847  43.99118  44.06132  44.15040
 Alpha virt. eigenvalues --   44.26551
          Condensed to atoms (all electrons):
               1          2          3          4          5          6
     1  C    4.504181   0.645678   0.359974   0.260762  -0.045411  -0.004372
     2  O    0.645678   7.805282  -0.081372  -0.087184   0.003547   0.005969
     3  O    0.359974  -0.081372   7.938442  -0.082100   0.006533   0.005132
     4  C    0.260762  -0.087184  -0.082100   5.196289   0.422562   0.183574
     5  H   -0.045411   0.003547   0.006533   0.422562   0.507660  -0.034750
     6  C   -0.004372   0.005969   0.005132   0.183574  -0.034750   5.263325
     7  H    0.002680   0.006062   0.000632  -0.046615   0.003843   0.402031
     8  H    0.006753   0.000662   0.000033  -0.043272  -0.010045   0.398377
     9  H   -0.010397  -0.000714   0.000018   0.008817   0.001619   0.384747
    10  O    0.005573  -0.003389  -0.003192   0.122712  -0.023558  -0.014238
    11  C   -0.056205   0.005252   0.208379   0.007769  -0.000257  -0.000077
    12  H   -0.005204   0.003331  -0.035672  -0.001592   0.000127   0.000091
    13  H    0.005248   0.001853  -0.030444   0.000923  -0.000287  -0.000042
    14  H   -0.010863   0.003442  -0.033366   0.000509   0.000011   0.000046
    15  C   -0.000688   0.003398  -0.000128  -0.024866   0.000017   0.003597
    16  C    0.000262   0.000234  -0.000194   0.006227  -0.000228  -0.005735
    17  H   -0.000079  -0.000001   0.000003  -0.000142   0.000125   0.000579
    18  H    0.000073   0.000001   0.000007  -0.000452   0.000007   0.000436
    19  H    0.000060   0.000001   0.000001  -0.000432  -0.000016   0.000283
    20  O   -0.002905  -0.000535   0.000004   0.005852   0.000362  -0.108017
               7          8          9         10         11         12
     1  C    0.002680   0.006753  -0.010397   0.005573  -0.056205  -0.005204
     2  O    0.006062   0.000662  -0.000714  -0.003389   0.005252   0.003331
     3  O    0.000632   0.000033   0.000018  -0.003192   0.208379  -0.035672
     4  C   -0.046615  -0.043272   0.008817   0.122712   0.007769  -0.001592
     5  H    0.003843  -0.010045   0.001619  -0.023558  -0.000257   0.000127
     6  C    0.402031   0.398377   0.384747  -0.014238  -0.000077   0.000091
     7  H    0.486591  -0.021475  -0.013155   0.002882   0.000002  -0.000027
     8  H   -0.021475   0.541475  -0.019817   0.002731   0.000014   0.000001
     9  H   -0.013155  -0.019817   0.394292  -0.006627  -0.000028  -0.000015
    10  O    0.002882   0.002731  -0.006627   8.068694  -0.000243   0.000210
    11  C    0.000002   0.000014  -0.000028  -0.000243   4.852256   0.420804
    12  H   -0.000027   0.000001  -0.000015   0.000210   0.420804   0.524297
    13  H   -0.000001  -0.000001  -0.000001  -0.000025   0.395266  -0.023624
    14  H    0.000033  -0.000005   0.000012  -0.000002   0.420826  -0.040179
    15  C    0.000312   0.000245  -0.023589   0.363442  -0.000010   0.000080
    16  C    0.000025   0.000634   0.000495  -0.071549  -0.000000   0.000032
    17  H   -0.000009  -0.000042  -0.000131   0.000593  -0.000000  -0.000000
    18  H    0.000001  -0.000030  -0.000066   0.007660  -0.000002   0.000001
    19  H   -0.000013  -0.000011   0.000142   0.003871   0.000001  -0.000001
    20  O    0.002798   0.003083   0.025281  -0.088880  -0.000010  -0.000004
              13         14         15         16         17         18
     1  C    0.005248  -0.010863  -0.000688   0.000262  -0.000079   0.000073
     2  O    0.001853   0.003442   0.003398   0.000234  -0.000001   0.000001
     3  O   -0.030444  -0.033366  -0.000128  -0.000194   0.000003   0.000007
     4  C    0.000923   0.000509  -0.024866   0.006227  -0.000142  -0.000452
     5  H   -0.000287   0.000011   0.000017  -0.000228   0.000125   0.000007
     6  C   -0.000042   0.000046   0.003597  -0.005735   0.000579   0.000436
     7  H   -0.000001   0.000033   0.000312   0.000025  -0.000009   0.000001
     8  H   -0.000001  -0.000005   0.000245   0.000634  -0.000042  -0.000030
     9  H   -0.000001   0.000012  -0.023589   0.000495  -0.000131  -0.000066
    10  O   -0.000025  -0.000002   0.363442  -0.071549   0.000593   0.007660
    11  C    0.395266   0.420826  -0.000010  -0.000000  -0.000000  -0.000002
    12  H   -0.023624  -0.040179   0.000080   0.000032  -0.000000   0.000001
    13  H    0.530013  -0.026245  -0.000007  -0.000001  -0.000000   0.000000
    14  H   -0.026245   0.531601  -0.000019  -0.000003   0.000000   0.000000
    15  C   -0.000007  -0.000019   4.483255   0.310956  -0.007843  -0.046508
    16  C   -0.000001  -0.000003   0.310956   5.085509   0.373089   0.400675
    17  H   -0.000000   0.000000  -0.007843   0.373089   0.522530  -0.021205
    18  H    0.000000   0.000000  -0.046508   0.400675  -0.021205   0.525778
    19  H    0.000000   0.000000  -0.047672   0.414820  -0.018923  -0.021724
    20  O   -0.000000   0.000001   0.574797  -0.079348  -0.000413   0.004462
              19         20
     1  C    0.000060  -0.002905
     2  O    0.000001  -0.000535
     3  O    0.000001   0.000004
     4  C   -0.000432   0.005852
     5  H   -0.000016   0.000362
     6  C    0.000283  -0.108017
     7  H   -0.000013   0.002798
     8  H   -0.000011   0.003083
     9  H    0.000142   0.025281
    10  O    0.003871  -0.088880
    11  C    0.000001  -0.000010
    12  H   -0.000001  -0.000004
    13  H    0.000000  -0.000000
    14  H    0.000000   0.000001
    15  C   -0.047672   0.574797
    16  C    0.414820  -0.079348
    17  H   -0.018923  -0.000413
    18  H   -0.021724   0.004462
    19  H    0.503808   0.005156
    20  O    0.005156   8.047307
 Mulliken charges:
               1
     1  C    0.344881
     2  O   -0.311515
     3  O   -0.252688
     4  C    0.070658
     5  H    0.168139
     6  C   -0.480955
     7  H    0.173403
     8  H    0.140691
     9  H    0.259117
    10  O   -0.366665
    11  C   -0.253735
    12  H    0.157346
    13  H    0.147375
    14  H    0.154203
    15  C    0.411231
    16  C   -0.435901
    17  H    0.151870
    18  H    0.150885
    19  H    0.160650
    20  O   -0.388989
 Sum of Mulliken charges =  -0.00000
 Mulliken charges with hydrogens summed into heavy atoms:
               1
     1  C    0.344881
     2  O   -0.311515
     3  O   -0.252688
     4  C    0.238798
     6  C    0.092256
    10  O   -0.366665
    11  C    0.205189
    15  C    0.411231
    16  C    0.027504
    20  O   -0.388989
 Electronic spatial extent (au):  <R**2>=           1750.5982
 Charge=             -0.0000 electrons
 Dipole moment (field-independent basis, Debye):
    X=              1.1302    Y=              0.3893    Z=             -3.0859  Tot=              3.3094
 Quadrupole moment (field-independent basis, Debye-Ang):
   XX=            -55.6457   YY=            -52.2096   ZZ=            -62.4706
   XY=              0.4068   XZ=              4.4485   YZ=             -1.4041
 Traceless Quadrupole moment (field-independent basis, Debye-Ang):
   XX=              1.1296   YY=              4.5657   ZZ=             -5.6953
   XY=              0.4068   XZ=              4.4485   YZ=             -1.4041
 Octapole moment (field-independent basis, Debye-Ang**2):
  XXX=              0.7269  YYY=             23.6328  ZZZ=             -4.5206  XYY=             21.9841
  XXY=             -1.3487  XXZ=              2.1333  XZZ=              3.7282  YZZ=              6.3109
  YYZ=            -18.0818  XYZ=             -7.1304
 Hexadecapole moment (field-independent basis, Debye-Ang**3):
 XXXX=           -513.7309 YYYY=          -1263.3778 ZZZZ=           -351.7415 XXXY=             64.1073
 XXXZ=            -16.1713 YYYX=             65.5260 YYYZ=            178.9197 ZZZX=             -9.1755
 ZZZY=            218.1691 XXYY=           -297.0985 XXZZ=           -140.3832 YYZZ=           -291.2072
 XXYZ=             60.9369 YYXZ=              4.5498 ZZXY=             20.7051
 N-N= 5.603652385188D+02 E-N=-2.375415318370D+03  KE= 5.331557412313D+02
   1 Symmetry operations used in ECPInt.
 ECPInt:  NShTT=   11325 NPrTT=   34180 LenC2=   10744 LenP2D=   24775.
 LDataN:  DoStor=T MaxTD1= 7 Len=  274
 Calling FoFJK, ICntrl=      2127 FMM=F ISym2X=0 I1Cent= 0 IOpClX= 0 NMat=1 NMatS=1 NMatT=0.
 -------------------------------------------------------------------
 Center     Atomic                   Forces (Hartrees/Bohr)
 Number     Number              X              Y              Z
 -------------------------------------------------------------------
      1        6           0.003090990    0.000734721    0.000075093
      2        8          -0.001673062    0.000445211   -0.001386762
      3        8           0.001118271    0.003360058   -0.001146051
      4        6           0.043652422   -0.015552784    0.015228481
      5        1          -0.000626577    0.001689301   -0.000270087
      6        6          -0.008253507   -0.002574889    0.000388940
      7        1          -0.001363102    0.003293895   -0.006055961
      8        1          -0.001027902    0.004112672   -0.004251962
      9        1          -0.010001514   -0.002095990    0.001399991
     10        8          -0.037054707    0.009582237   -0.019445516
     11        6           0.000539328    0.001214407   -0.000265597
     12        1           0.000022490    0.000046813    0.000002084
     13        1           0.000080102    0.000175856    0.000023303
     14        1           0.000074965    0.000126481    0.000007411
     15        6          -0.008172156   -0.002254851    0.005281544
     16        6           0.002633700    0.005747192   -0.004949953
     17        1           0.000129973    0.000515631   -0.000429960
     18        1           0.000237872    0.000373810   -0.000462661
     19        1           0.000273701    0.000415391   -0.000453891
     20        8           0.016318715   -0.009355160    0.016711554
 -------------------------------------------------------------------
 Cartesian Forces:  Max     0.043652422 RMS     0.009417888

 GradGradGradGradGradGradGradGradGradGradGradGradGradGradGradGradGradGrad
 Berny optimization.
 FormGI is forming the generalized inverse of G from B-inverse, IUseBI=4.
 Internal  Forces:  Max     0.044726676 RMS     0.006597038
 Search for a local minimum.
 Step number   1 out of a maximum of  101
 All quantities printed in internal units (Hartrees-Bohrs-Radians)
 Mixed Optimization -- RFO/linear search
 Second derivative matrix not updated -- first step.
 ITU=  0
     Eigenvalues ---    0.00386   0.00619   0.00724   0.00893   0.01213
     Eigenvalues ---    0.01346   0.01852   0.02641   0.03106   0.03773
     Eigenvalues ---    0.05253   0.05532   0.05998   0.07133   0.07748
     Eigenvalues ---    0.09273   0.10285   0.10314   0.10673   0.11050
     Eigenvalues ---    0.11420   0.15255   0.16000   0.16000   0.16000
     Eigenvalues ---    0.16000   0.16000   0.16000   0.17018   0.17452
     Eigenvalues ---    0.20700   0.23204   0.24986   0.24994   0.25000
     Eigenvalues ---    0.25000   0.31237   0.32043   0.34541   0.34596
     Eigenvalues ---    0.34658   0.34940   0.34945   0.35035   0.35158
     Eigenvalues ---    0.35182   0.35358   0.35383   0.35704   0.41549
     Eigenvalues ---    0.59914   0.60147   0.94557   1.06522
 RFO step:  Lambda=-2.20352113D-02 EMin= 3.85794285D-03
 Linear search not attempted -- first point.
 Maximum step size (   0.300) exceeded in Quadratic search.
    -- Step size scaled by   0.858
 Iteration  1 RMS(Cart)=  0.06893574 RMS(Int)=  0.00279967
 Iteration  2 RMS(Cart)=  0.00616818 RMS(Int)=  0.00035097
 Iteration  3 RMS(Cart)=  0.00000826 RMS(Int)=  0.00035093
 Iteration  4 RMS(Cart)=  0.00000000 RMS(Int)=  0.00035093
 Variable       Old X    -DE/DX   Delta X   Delta X   Delta X     New X
                                 (Linear)    (Quad)   (Total)
    R1        2.26135  -0.00053   0.00000  -0.00042  -0.00042   2.26093
    R2        2.51008   0.00403   0.00000   0.00557   0.00557   2.51566
    R3        2.84065   0.00587   0.00000   0.01471   0.01471   2.85536
    R4        2.69501   0.00163   0.00000   0.00321   0.00321   2.69822
    R5        2.04548  -0.00023   0.00000  -0.00051  -0.00051   2.04496
    R6        2.77894   0.00843   0.00000   0.01798   0.01741   2.79635
    R7        3.34123  -0.04473   0.00000  -0.21505  -0.21529   3.12593
    R8        2.05619   0.00021   0.00000   0.00048   0.00048   2.05666
    R9        2.05098   0.00054   0.00000   0.00124   0.00124   2.05221
   R10        2.05281   0.01700   0.00000   0.03494   0.03479   2.08760
   R11        3.06620   0.02008   0.00000   0.14677   0.14695   3.21315
   R12        2.49383   0.00042   0.00000   0.00279   0.00311   2.49694
   R13        2.05765   0.00001   0.00000   0.00003   0.00003   2.05768
   R14        2.05058   0.00007   0.00000   0.00016   0.00016   2.05075
   R15        2.05772   0.00002   0.00000   0.00005   0.00005   2.05777
   R16        2.85563  -0.00233   0.00000  -0.00599  -0.00599   2.84964
   R17        2.28981   0.00184   0.00000   0.00184   0.00240   2.29221
   R18        2.06234  -0.00018   0.00000  -0.00042  -0.00042   2.06192
   R19        2.05418   0.00050   0.00000   0.00115   0.00115   2.05533
   R20        2.05380  -0.00054   0.00000  -0.00124  -0.00124   2.05256
    A1        2.18380  -0.00249   0.00000  -0.00738  -0.00762   2.17618
    A2        2.17429  -0.00252   0.00000  -0.00756  -0.00779   2.16650
    A3        1.92430   0.00507   0.00000   0.01643   0.01620   1.94050
    A4        2.00655   0.00138   0.00000   0.00436   0.00436   2.01091
    A5        1.98219  -0.00142   0.00000  -0.01339  -0.01352   1.96867
    A6        2.02672   0.00182   0.00000   0.00815   0.00810   2.03482
    A7        1.64844   0.00054   0.00000   0.01067   0.01051   1.65895
    A8        2.07112  -0.00122   0.00000  -0.00963  -0.00958   2.06154
    A9        1.65647  -0.00106   0.00000  -0.00848  -0.00798   1.64849
   A10        1.99460   0.00148   0.00000   0.01806   0.01729   2.01188
   A11        1.96390  -0.00270   0.00000  -0.02243  -0.02277   1.94113
   A12        1.99515  -0.00367   0.00000  -0.02265  -0.02287   1.97228
   A13        1.80924   0.00064   0.00000   0.00027  -0.00059   1.80865
   A14        1.98526   0.00024   0.00000  -0.01010  -0.01158   1.97368
   A15        1.81171   0.00334   0.00000   0.03412   0.03467   1.84638
   A16        1.87694   0.00345   0.00000   0.03248   0.03263   1.90957
   A17        2.60559  -0.00758   0.00000  -0.03464  -0.03506   2.57053
   A18        2.03953   0.01367   0.00000   0.06084   0.06101   2.10053
   A19        1.91913  -0.00001   0.00000  -0.00007  -0.00007   1.91906
   A20        1.84849   0.00023   0.00000   0.00112   0.00112   1.84961
   A21        1.92325   0.00017   0.00000   0.00083   0.00083   1.92408
   A22        1.93402  -0.00013   0.00000  -0.00064  -0.00064   1.93338
   A23        1.90416  -0.00010   0.00000  -0.00051  -0.00051   1.90364
   A24        1.93443  -0.00016   0.00000  -0.00067  -0.00067   1.93376
   A25        2.03946  -0.01759   0.00000  -0.05928  -0.05960   1.97985
   A26        2.15629   0.00636   0.00000   0.02813   0.02866   2.18495
   A27        2.08702   0.01126   0.00000   0.03160   0.03127   2.11829
   A28        1.88192  -0.00026   0.00000  -0.00130  -0.00130   1.88062
   A29        1.96292  -0.00060   0.00000  -0.00358  -0.00359   1.95933
   A30        1.88552   0.00043   0.00000   0.00280   0.00280   1.88832
   A31        1.89696  -0.00006   0.00000  -0.00188  -0.00189   1.89507
   A32        1.89418   0.00045   0.00000   0.00382   0.00382   1.89800
   A33        1.94038   0.00007   0.00000   0.00036   0.00036   1.94074
   A34        1.86243  -0.01424   0.00000  -0.07326  -0.07226   1.79017
    D1        0.04251   0.00069   0.00000   0.01789   0.01789   0.06040
    D2       -3.05798  -0.00086   0.00000  -0.02085  -0.02085  -3.07883
    D3        2.92084  -0.00131   0.00000  -0.03621  -0.03627   2.88458
    D4        0.42796   0.00032   0.00000  -0.01180  -0.01205   0.41591
    D5       -1.66361  -0.00243   0.00000  -0.04253  -0.04223  -1.70584
    D6       -0.26158   0.00022   0.00000   0.00227   0.00222  -0.25936
    D7       -2.75447   0.00185   0.00000   0.02668   0.02644  -2.72803
    D8        1.43715  -0.00089   0.00000  -0.00405  -0.00375   1.43340
    D9        1.05594  -0.00001   0.00000  -0.00031  -0.00031   1.05563
   D10       -3.13681  -0.00004   0.00000  -0.00047  -0.00047  -3.13727
   D11       -1.04366   0.00001   0.00000  -0.00016  -0.00016  -1.04382
   D12        0.20034   0.00185   0.00000   0.01847   0.01806   0.21840
   D13        2.49963  -0.00396   0.00000  -0.03983  -0.03945   2.46017
   D14       -1.74581  -0.00123   0.00000  -0.01182  -0.01208  -1.75790
   D15       -2.25827   0.00356   0.00000   0.04514   0.04461  -2.21366
   D16        0.04101  -0.00225   0.00000  -0.01317  -0.01290   0.02811
   D17        2.07875   0.00047   0.00000   0.01484   0.01447   2.09322
   D18        2.09266   0.00469   0.00000   0.04943   0.04894   2.14160
   D19       -1.89124  -0.00112   0.00000  -0.00888  -0.00857  -1.89981
   D20        0.14650   0.00161   0.00000   0.01913   0.01880   0.16530
   D21        2.15892   0.00019   0.00000  -0.00737  -0.00744   2.15147
   D22       -2.13184  -0.00131   0.00000  -0.02058  -0.02080  -2.15264
   D23        0.04176  -0.00276   0.00000  -0.02953  -0.02983   0.01193
   D24       -0.07693   0.00109   0.00000   0.00639   0.00633  -0.07060
   D25       -2.13210   0.00247   0.00000   0.01730   0.01769  -2.11441
   D26        2.04213  -0.00116   0.00000  -0.00406  -0.00470   2.03744
   D27       -0.24627   0.00083   0.00000  -0.00755  -0.00713  -0.25341
   D28        2.69295  -0.00068   0.00000   0.01497   0.01530   2.70825
   D29       -0.41730  -0.00167   0.00000  -0.00200  -0.00168  -0.41898
   D30       -1.60814  -0.00004   0.00000  -0.00479  -0.00480  -1.61294
   D31        0.48302  -0.00065   0.00000  -0.01015  -0.01015   0.47286
   D32        2.63106  -0.00066   0.00000  -0.01008  -0.01009   2.62097
   D33        1.50341   0.00084   0.00000   0.01149   0.01149   1.51491
   D34       -2.68862   0.00024   0.00000   0.00613   0.00614  -2.68248
   D35       -0.54057   0.00023   0.00000   0.00620   0.00620  -0.53437
   D36        0.46733  -0.00222   0.00000  -0.00777  -0.00660   0.46072
   D37       -2.64211  -0.00274   0.00000  -0.02363  -0.02332  -2.66543
         Item               Value     Threshold  Converged?
 Maximum Force            0.044727     0.000450     NO 
 RMS     Force            0.006597     0.000300     NO 
 Maximum Displacement     0.258009     0.001800     NO 
 RMS     Displacement     0.072512     0.001200     NO 
 Predicted change in Energy=-1.193972D-02
 GradGradGradGradGradGradGradGradGradGradGradGradGradGradGradGradGradGrad

                          Input orientation:                          
 ---------------------------------------------------------------------
 Center     Atomic      Atomic             Coordinates (Angstroms)
 Number     Number       Type             X           Y           Z
 ---------------------------------------------------------------------
      1          6           0       -0.427093    1.230726   -0.369227
      2          8           0       -0.789995    1.799745    0.618687
      3          8           0        0.350979    1.764477   -1.308315
      4          6           0       -0.793702   -0.195095   -0.709401
      5          1           0       -0.589096   -0.445659   -1.742067
      6          6           0       -2.031135   -0.725312   -0.095128
      7          1           0       -2.622441    0.072118    0.350903
      8          1           0       -2.604356   -1.353929   -0.770122
      9          1           0       -1.662175   -1.334383    0.749437
     10          8           0        0.614463   -0.847957   -0.137448
     11          6           0        0.815665    3.086470   -1.034251
     12          1           0        1.406877    3.090439   -0.119860
     13          1           0        1.423344    3.372181   -1.886761
     14          1           0       -0.027557    3.765202   -0.915686
     15          6           0        0.586118   -1.785344    0.793360
     16          6           0        1.805689   -2.672242    0.788753
     17          1           0        1.587069   -3.535223    0.157865
     18          1           0        2.682150   -2.165528    0.391254
     19          1           0        1.978172   -3.016934    1.804230
     20          8           0       -0.318298   -1.959525    1.582683
 ---------------------------------------------------------------------
                    Distance matrix (angstroms):
                    1          2          3          4          5
     1  C    0.000000
     2  O    1.196434   0.000000
     3  O    1.331229   2.239733   0.000000
     4  C    1.510989   2.396502   2.347108   0.000000
     5  H    2.172833   3.264255   2.440611   1.082149   0.000000
     6  C    2.544439   2.902736   3.653127   1.479765   2.206829
     7  H    2.584669   2.532640   3.802408   2.130713   2.963631
     8  H    3.403181   3.894401   4.329909   2.150594   2.414727
     9  H    3.058860   3.255849   4.229664   2.044610   2.854632
    10  O    2.336554   3.091046   2.874920   1.654172   2.045777
    11  C    2.330341   2.639320   1.427834   3.669368   3.866561
    12  H    2.623768   2.652846   2.070150   3.998105   4.372580
    13  H    3.211363   3.694414   2.017246   4.361987   4.318189
    14  H    2.623321   2.607419   2.073728   4.038995   4.327768
    15  C    3.387459   3.844094   4.132016   2.586713   3.099077
    16  C    4.643209   5.173506   5.118433   3.890701   4.134939
    17  H    5.200860   5.858726   5.635993   4.192454   4.229757
    18  H    4.666933   5.275501   4.875226   4.144344   4.267325
    19  H    5.343391   5.680551   5.932755   4.686619   5.077258
    20  O    3.741589   3.909463   4.761721   2.931360   3.663207
                    6          7          8          9         10
     6  C    0.000000
     7  H    1.088338   0.000000
     8  H    1.085983   1.814011   0.000000
     9  H    1.104712   1.749053   1.788057   0.000000
    10  O    2.648777   3.400378   3.319199   2.491235   0.000000
    11  C    4.849320   4.777609   5.611012   5.372632   4.040353
    12  H    5.136195   5.056410   6.022063   5.454705   4.017362
    13  H    5.650914   5.680311   6.309150   6.214637   4.639391
    14  H    4.985214   4.687915   5.732939   5.608064   4.722190
    15  C    2.960252   3.733736   3.579067   2.293494   1.321326
    16  C    4.392380   5.227960   4.859686   3.717189   2.367464
    17  H    4.588138   5.547085   4.815314   3.968783   2.873077
    18  H    4.952358   5.757376   5.473083   4.437595   2.508157
    19  H    4.993359   5.728878   5.512934   4.146769   3.214697
    20  O    2.696691   3.309673   3.335941   1.700325   2.250439
                   11         12         13         14         15
    11  C    0.000000
    12  H    1.088879   0.000000
    13  H    1.085209   1.789298   0.000000
    14  H    1.088925   1.773765   1.789571   0.000000
    15  C    5.208399   5.028009   5.872313   5.840033   0.000000
    16  C    6.120968   5.847489   6.621149   6.906996   1.507967
    17  H    6.772224   6.633928   7.205521   7.553524   2.113725
    18  H    5.753200   5.432564   6.118837   6.650125   2.167851
    19  H    6.830808   6.428726   7.399462   7.577484   2.115771
    20  O    5.796230   5.601519   6.595259   6.252910   1.212987
                   16         17         18         19         20
    16  C    0.000000
    17  H    1.091123   0.000000
    18  H    1.087634   1.769106   0.000000
    19  H    1.086166   1.769774   1.793594   0.000000
    20  O    2.376891   2.853655   3.234907   2.537907   0.000000
 Symmetry turned off by external request.
 Stoichiometry    C6H10O4
 Framework group  C1[X(C6H10O4)]
 Deg. of freedom    54
 Full point group                 C1      NOp   1
 Rotational constants (GHZ):           2.2950913           0.8055901           0.6901950
 Standard basis: def2TZVP (5D, 7F)
   370 basis functions,   590 primitive gaussians,   420 cartesian basis functions
    39 alpha electrons       39 beta electrons
       nuclear repulsion energy       561.9066228396 Hartrees.
 NAtoms=   20 NActive=   20 NUniq=   20 SFac= 1.00D+00 NAtFMM=   60 NAOKFM=F Big=F
 Integral buffers will be    131072 words long.
 Raffenetti 2 integral format.
 Two-electron integral symmetry is turned off.
 One-electron integrals computed using PRISM.
   1 Symmetry operations used in ECPInt.
 ECPInt:  NShTT=   11325 NPrTT=   34180 LenC2=   10752 LenP2D=   24825.
 LDataN:  DoStor=T MaxTD1= 6 Len=  172
 NBasis=   370 RedAO= T EigKep=  1.11D-04  NBF=   370
 NBsUse=   370 1.00D-06 EigRej= -1.00D+00 NBFU=   370
 Initial guess from the checkpoint file:  "/oasis/scratch/comet/mayes/temp_project/lme2acetoxprpnt_ts4_ircf_opt.chk"
 B after Tr=    -0.013849   -0.024458    0.028909
         Rot=    0.999996    0.001757    0.000432    0.002288 Ang=   0.33 deg.
 ExpMin= 9.52D-02 ExpMax= 2.70D+04 ExpMxC= 9.22D+02 IAcc=3 IRadAn=         5 AccDes= 0.00D+00
 Harris functional with IExCor= 1009 and IRadAn=       5 diagonalized for initial guess.
 HarFok:  IExCor= 1009 AccDes= 0.00D+00 IRadAn=         5 IDoV= 1 UseB2=F ITyADJ=14
 ICtDFT=  3500011 ScaDFX=  1.000000  1.000000  1.000000  1.000000
 FoFCou: FMM=F IPFlag=           0 FMFlag=      100000 FMFlg1=           0
         NFxFlg=           0 DoJE=T BraDBF=F KetDBF=T FulRan=T
         wScrn=  0.000000 ICntrl=       500 IOpCl=  0 I1Cent=   200000004 NGrid=           0
         NMat0=    1 NMatS0=      1 NMatT0=    0 NMatD0=    1 NMtDS0=    0 NMtDT0=    0
 Symmetry not used in FoFCou.
 Requested convergence on RMS density matrix=1.00D-08 within  32 cycles.
 Requested convergence on MAX density matrix=1.00D-06.
 Requested convergence on             energy=1.00D-06.
 No special actions if energy rises.
 Integral accuracy reduced to 1.0D-05 until final iterations.
 Initial convergence to 1.0D-05 achieved.  Increase integral accuracy.
 SCF Done:  E(RM062X) =  -535.529345008     A.U. after   13 cycles
            NFock= 13  Conv=0.60D-08     -V/T= 2.0045
 QCSCF skips out because SCF is already converged.
   1 Symmetry operations used in ECPInt.
 ECPInt:  NShTT=   11325 NPrTT=   34180 LenC2=   10752 LenP2D=   24825.
 LDataN:  DoStor=T MaxTD1= 7 Len=  274
 Calling FoFJK, ICntrl=      2127 FMM=F ISym2X=0 I1Cent= 0 IOpClX= 0 NMat=1 NMatS=1 NMatT=0.
 -------------------------------------------------------------------
 Center     Atomic                   Forces (Hartrees/Bohr)
 Number     Number              X              Y              Z
 -------------------------------------------------------------------
      1        6          -0.007163983    0.004902920   -0.004591589
      2        8           0.000437578    0.000164595    0.000983631
      3        8           0.001599278    0.000310954   -0.000170377
      4        6           0.052711847   -0.013737083    0.013844674
      5        1          -0.005809012    0.004502453   -0.003262317
      6        6          -0.001320021   -0.007658734    0.011844961
      7        1          -0.001512991    0.001143959   -0.004420804
      8        1          -0.000728428    0.002797360   -0.001872395
      9        1          -0.017457181    0.005344539   -0.008907973
     10        8          -0.034276239    0.009350502   -0.018337601
     11        6           0.000009000   -0.000057142    0.000475391
     12        1           0.000033813    0.000180769   -0.000027838
     13        1           0.000006245   -0.000137653   -0.000046443
     14        1          -0.000035152   -0.000099960   -0.000002145
     15        6          -0.006139564   -0.005195334    0.011935446
     16        6           0.001273650    0.003014257   -0.001141231
     17        1           0.000095780    0.000060178   -0.000194082
     18        1          -0.000638917    0.000394277   -0.000034444
     19        1           0.000646183   -0.000596562   -0.000121781
     20        8           0.018268113   -0.004684296    0.004046918
 -------------------------------------------------------------------
 Cartesian Forces:  Max     0.052711847 RMS     0.010135518

 GradGradGradGradGradGradGradGradGradGradGradGradGradGradGradGradGradGrad
 Berny optimization.
 Using GEDIIS/GDIIS optimizer.
 FormGI is forming the generalized inverse of G from B-inverse, IUseBI=4.
 Internal  Forces:  Max     0.035316139 RMS     0.004839525
 Search for a local minimum.
 Step number   2 out of a maximum of  101
 All quantities printed in internal units (Hartrees-Bohrs-Radians)
 Mixed Optimization -- RFO/linear search
 Update second derivatives using D2CorX and points    1    2
 DE= -1.61D-02 DEPred=-1.19D-02 R= 1.35D+00
 TightC=F SS=  1.41D+00  RLast= 3.24D-01 DXNew= 5.0454D-01 9.7209D-01
 Trust test= 1.35D+00 RLast= 3.24D-01 DXMaxT set to 5.05D-01
 ITU=  1  0
 Use linear search instead of GDIIS.
     Eigenvalues ---    0.00401   0.00619   0.00723   0.00884   0.01238
     Eigenvalues ---    0.01346   0.01898   0.02570   0.02642   0.03139
     Eigenvalues ---    0.05105   0.05496   0.05562   0.07113   0.07214
     Eigenvalues ---    0.07748   0.10185   0.10309   0.10653   0.10670
     Eigenvalues ---    0.10974   0.11392   0.16000   0.16000   0.16000
     Eigenvalues ---    0.16000   0.16000   0.16037   0.17006   0.17956
     Eigenvalues ---    0.20990   0.23361   0.24960   0.25000   0.25000
     Eigenvalues ---    0.26027   0.31247   0.32009   0.34149   0.34658
     Eigenvalues ---    0.34940   0.34945   0.35034   0.35157   0.35181
     Eigenvalues ---    0.35357   0.35383   0.35696   0.41089   0.42094
     Eigenvalues ---    0.59895   0.60852   0.96385   1.06558
 RFO step:  Lambda=-1.48966460D-02 EMin= 4.00808223D-03
 Quartic linear search produced a step of  1.36119.
 Iteration  1 RMS(Cart)=  0.09288940 RMS(Int)=  0.03695609
 Iteration  2 RMS(Cart)=  0.05689912 RMS(Int)=  0.01201668
 Iteration  3 RMS(Cart)=  0.02383396 RMS(Int)=  0.00263891
 Iteration  4 RMS(Cart)=  0.00012702 RMS(Int)=  0.00263723
 Iteration  5 RMS(Cart)=  0.00000022 RMS(Int)=  0.00263723
 Variable       Old X    -DE/DX   Delta X   Delta X   Delta X     New X
                                 (Linear)    (Quad)   (Total)
    R1        2.26093   0.00076  -0.00057   0.00176   0.00119   2.26213
    R2        2.51566   0.00086   0.00759  -0.00046   0.00712   2.52278
    R3        2.85536   0.00297   0.02002   0.00863   0.02865   2.88401
    R4        2.69822  -0.00002   0.00436  -0.00227   0.00209   2.70031
    R5        2.04496   0.00097  -0.00070   0.00602   0.00533   2.05029
    R6        2.79635   0.01030   0.02369   0.04694   0.06737   2.86372
    R7        3.12593  -0.03532  -0.29306  -0.24433  -0.53850   2.58743
    R8        2.05666  -0.00015   0.00065  -0.00124  -0.00059   2.05607
    R9        2.05221  -0.00007   0.00168  -0.00128   0.00041   2.05262
   R10        2.08760  -0.00269   0.04735  -0.04929  -0.00311   2.08449
   R11        3.21315   0.01551   0.20002   0.12647   0.32750   3.54065
   R12        2.49694   0.00592   0.00424   0.02328   0.02921   2.52615
   R13        2.05768  -0.00000   0.00005  -0.00005  -0.00000   2.05768
   R14        2.05075   0.00000   0.00022  -0.00010   0.00013   2.05087
   R15        2.05777  -0.00003   0.00007  -0.00024  -0.00017   2.05760
   R16        2.84964  -0.00057  -0.00815   0.00054  -0.00761   2.84203
   R17        2.29221  -0.00660   0.00327  -0.01504  -0.00876   2.28346
   R18        2.06192   0.00004  -0.00057   0.00056  -0.00001   2.06192
   R19        2.05533  -0.00032   0.00156  -0.00268  -0.00112   2.05421
   R20        2.05256   0.00018  -0.00169   0.00192   0.00023   2.05279
    A1        2.17618  -0.00053  -0.01037   0.00163  -0.01304   2.16315
    A2        2.16650  -0.00037  -0.01061   0.00299  -0.01188   2.15462
    A3        1.94050   0.00090   0.02205  -0.00509   0.01270   1.95321
    A4        2.01091  -0.00056   0.00594  -0.00796  -0.00203   2.00888
    A5        1.96867  -0.00052  -0.01840  -0.02968  -0.05651   1.91215
    A6        2.03482  -0.00183   0.01103  -0.03620  -0.03039   2.00443
    A7        1.65895   0.00534   0.01431   0.07909   0.09356   1.75251
    A8        2.06154  -0.00104  -0.01304  -0.03916  -0.05718   2.00436
    A9        1.64849   0.00215  -0.01086   0.07917   0.07348   1.72197
   A10        2.01188  -0.00203   0.02353   0.00102   0.02212   2.03400
   A11        1.94113  -0.00161  -0.03100   0.00018  -0.03296   1.90817
   A12        1.97228  -0.00245  -0.03113  -0.01515  -0.04625   1.92603
   A13        1.80865   0.00330  -0.00080   0.02901   0.02267   1.83132
   A14        1.97368  -0.00059  -0.01576  -0.01708  -0.03928   1.93440
   A15        1.84638   0.00148   0.04720   0.00863   0.05954   1.90593
   A16        1.90957   0.00057   0.04442   0.00030   0.04538   1.95495
   A17        2.57053  -0.00703  -0.04773  -0.05857  -0.10898   2.46155
   A18        2.10053   0.00975   0.08304   0.06778   0.15114   2.25167
   A19        1.91906   0.00036  -0.00010   0.00472   0.00462   1.92368
   A20        1.84961  -0.00025   0.00152  -0.00425  -0.00273   1.84688
   A21        1.92408  -0.00017   0.00113  -0.00285  -0.00172   1.92236
   A22        1.93338  -0.00002  -0.00087   0.00036  -0.00051   1.93287
   A23        1.90364  -0.00003  -0.00070   0.00050  -0.00020   1.90345
   A24        1.93376   0.00011  -0.00091   0.00145   0.00053   1.93430
   A25        1.97985  -0.00679  -0.08113  -0.01592  -0.09816   1.88170
   A26        2.18495   0.00168   0.03902   0.00422   0.04538   2.23033
   A27        2.11829   0.00512   0.04256   0.01142   0.05281   2.17110
   A28        1.88062   0.00000  -0.00177   0.00046  -0.00141   1.87921
   A29        1.95933  -0.00134  -0.00488  -0.01431  -0.01920   1.94014
   A30        1.88832   0.00158   0.00381   0.01864   0.02247   1.91079
   A31        1.89507   0.00018  -0.00257   0.00073  -0.00196   1.89311
   A32        1.89800  -0.00034   0.00520  -0.00557  -0.00045   1.89755
   A33        1.94074  -0.00006   0.00049   0.00011   0.00068   1.94143
   A34        1.79017  -0.00539  -0.09836  -0.02618  -0.11973   1.67045
    D1        0.06040  -0.00054   0.02435  -0.10006  -0.07550  -0.01510
    D2       -3.07883   0.00067  -0.02839   0.11334   0.08474  -2.99410
    D3        2.88458  -0.00284  -0.04937   0.02538  -0.02246   2.86212
    D4        0.41591   0.00201  -0.01640   0.17923   0.16017   0.57608
    D5       -1.70584   0.00175  -0.05749   0.14216   0.08537  -1.62048
    D6       -0.25936  -0.00405   0.00302  -0.18661  -0.18178  -0.44114
    D7       -2.72803   0.00081   0.03599  -0.03276   0.00085  -2.72718
    D8        1.43340   0.00055  -0.00510  -0.06984  -0.07395   1.35945
    D9        1.05563   0.00002  -0.00043   0.00088   0.00045   1.05608
   D10       -3.13727   0.00004  -0.00064   0.00137   0.00073  -3.13654
   D11       -1.04382  -0.00007  -0.00021  -0.00095  -0.00116  -1.04498
   D12        0.21840  -0.00062   0.02458  -0.05394  -0.03011   0.18829
   D13        2.46017  -0.00484  -0.05371  -0.08977  -0.13998   2.32019
   D14       -1.75790  -0.00337  -0.01645  -0.07927  -0.09611  -1.85400
   D15       -2.21366   0.00432   0.06073   0.10456   0.16129  -2.05237
   D16        0.02811   0.00010  -0.01756   0.06872   0.05142   0.07953
   D17        2.09322   0.00157   0.01969   0.07923   0.09530   2.18852
   D18        2.14160   0.00370   0.06662   0.02571   0.08859   2.23019
   D19       -1.89981  -0.00052  -0.01167  -0.01013  -0.02128  -1.92110
   D20        0.16530   0.00095   0.02559   0.00038   0.02259   0.18789
   D21        2.15147  -0.00164  -0.01013  -0.01935  -0.03052   2.12096
   D22       -2.15264  -0.00123  -0.02832  -0.02935  -0.05732  -2.20996
   D23        0.01193  -0.00196  -0.04060  -0.02589  -0.06742  -0.05549
   D24       -0.07060   0.00053   0.00862   0.01904   0.02622  -0.04438
   D25       -2.11441   0.00026   0.02408   0.00242   0.02620  -2.08821
   D26        2.03744  -0.00023  -0.00639   0.01756   0.00799   2.04542
   D27       -0.25341  -0.00011  -0.00971   0.00445  -0.00214  -0.25555
   D28        2.70825   0.00065   0.02083   0.02382   0.04970   2.75795
   D29       -0.41898   0.00017  -0.00229   0.04538   0.04678  -0.37220
   D30       -1.61294   0.00022  -0.00653   0.02433   0.01713  -1.59581
   D31        0.47286  -0.00037  -0.01382   0.01695   0.00256   0.47542
   D32        2.62097  -0.00022  -0.01373   0.02075   0.00630   2.62728
   D33        1.51491   0.00065   0.01564   0.00364   0.01991   1.53482
   D34       -2.68248   0.00007   0.00835  -0.00374   0.00535  -2.67713
   D35       -0.53437   0.00021   0.00844   0.00006   0.00909  -0.52528
   D36        0.46072  -0.00159  -0.00898  -0.04714  -0.04729   0.41344
   D37       -2.66543  -0.00201  -0.03174  -0.02377  -0.04952  -2.71495
         Item               Value     Threshold  Converged?
 Maximum Force            0.035316     0.000450     NO 
 RMS     Force            0.004840     0.000300     NO 
 Maximum Displacement     0.602518     0.001800     NO 
 RMS     Displacement     0.158757     0.001200     NO 
 Predicted change in Energy=-2.479848D-02
 GradGradGradGradGradGradGradGradGradGradGradGradGradGradGradGradGradGrad

                          Input orientation:                          
 ---------------------------------------------------------------------
 Center     Atomic      Atomic             Coordinates (Angstroms)
 Number     Number       Type             X           Y           Z
 ---------------------------------------------------------------------
      1          6           0       -0.438083    1.181508   -0.379686
      2          8           0       -0.789849    1.770153    0.601500
      3          8           0        0.426733    1.669706   -1.271862
      4          6           0       -0.747617   -0.291221   -0.633448
      5          1           0       -0.583224   -0.521686   -1.680833
      6          6           0       -2.074166   -0.768080   -0.077252
      7          1           0       -2.658883    0.090743    0.245749
      8          1           0       -2.612728   -1.342850   -0.825195
      9          1           0       -1.810298   -1.378919    0.802522
     10          8           0        0.377953   -0.873533   -0.115048
     11          6           0        0.910374    2.984563   -0.990586
     12          1           0        1.432319    2.997141   -0.035039
     13          1           0        1.587901    3.230428   -1.801962
     14          1           0        0.080922    3.688890   -0.951962
     15          6           0        0.483091   -1.775714    0.865768
     16          6           0        1.800406   -2.482489    0.701501
     17          1           0        1.628461   -3.363588    0.081306
     18          1           0        2.527319   -1.846689    0.202491
     19          1           0        2.161894   -2.805515    1.673614
     20          8           0       -0.317846   -2.018622    1.737326
 ---------------------------------------------------------------------
                    Distance matrix (angstroms):
                    1          2          3          4          5
     1  C    0.000000
     2  O    1.197066   0.000000
     3  O    1.334999   2.235988   0.000000
     4  C    1.526152   2.403360   2.373164   0.000000
     5  H    2.148237   3.241028   2.447339   1.084967   0.000000
     6  C    2.563031   2.924517   3.691123   1.515415   2.203427
     7  H    2.552037   2.537767   3.783820   2.138182   2.897438
     8  H    3.361539   3.879321   4.302712   2.149728   2.350599
     9  H    3.136300   3.316380   4.312945   2.091504   2.899588
    10  O    2.226913   2.977629   2.794398   1.369208   1.870652
    11  C    2.332925   2.626840   1.428941   3.688799   3.873119
    12  H    2.629393   2.617005   2.074372   3.990431   4.376437
    13  H    3.213339   3.682761   2.016226   4.384299   4.336682
    14  H    2.623705   2.617831   2.073409   4.077893   4.324499
    15  C    3.338395   3.776690   4.055066   2.442542   3.032291
    16  C    4.427717   4.980400   4.798111   3.616098   3.898969
    17  H    5.014082   5.698607   5.348763   3.949185   4.009126
    18  H    4.278144   4.923856   4.353300   3.720683   3.870145
    19  H    5.183847   5.549681   5.631538   4.484357   4.899373
    20  O    3.838884   3.983429   4.818026   2.964656   3.740996
                    6          7          8          9         10
     6  C    0.000000
     7  H    1.088026   0.000000
     8  H    1.086199   1.790039   0.000000
     9  H    1.103065   1.786057   1.815119   0.000000
    10  O    2.454676   3.206614   3.109460   2.426065   0.000000
    11  C    4.880982   4.758394   5.582661   5.445848   3.991859
    12  H    5.145300   5.026324   5.985171   5.510533   4.012506
    13  H    5.689765   5.664443   6.286034   6.291039   4.599146
    14  H    5.027335   4.678429   5.708785   5.686617   4.648048
    15  C    2.905886   3.706762   3.553987   2.328321   1.336782
    16  C    4.307896   5.168607   4.806801   3.776938   2.297579
    17  H    4.524517   5.508245   4.784644   4.035360   2.793332
    18  H    4.734482   5.536444   5.265936   4.403836   2.380681
    19  H    5.016062   5.802327   5.583946   4.309557   3.180301
    20  O    2.818015   3.486356   3.505662   1.873630   2.286188
                   11         12         13         14         15
    11  C    0.000000
    12  H    1.088878   0.000000
    13  H    1.085276   1.789035   0.000000
    14  H    1.088834   1.773567   1.789881   0.000000
    15  C    5.127266   4.949003   5.779173   5.773022   0.000000
    16  C    5.791716   5.541148   6.240986   6.616380   1.503940
    17  H    6.477933   6.364816   6.857798   7.293831   2.109170
    18  H    5.232489   4.971734   5.538723   6.161190   2.150312
    19  H    6.495326   6.092831   6.988684   7.307626   2.128728
    20  O    5.829399   5.600200   6.611426   6.321944   1.208353
                   16         17         18         19         20
    16  C    0.000000
    17  H    1.091120   0.000000
    18  H    1.087039   1.767375   0.000000
    19  H    1.086288   1.769587   1.793624   0.000000
    20  O    2.403144   2.887810   3.237321   2.602378   0.000000
 Symmetry turned off by external request.
 Stoichiometry    C6H10O4
 Framework group  C1[X(C6H10O4)]
 Deg. of freedom    54
 Full point group                 C1      NOp   1
 Rotational constants (GHZ):           2.2472855           0.8431117           0.7163274
 Standard basis: def2TZVP (5D, 7F)
   370 basis functions,   590 primitive gaussians,   420 cartesian basis functions
    39 alpha electrons       39 beta electrons
       nuclear repulsion energy       568.5850643115 Hartrees.
 NAtoms=   20 NActive=   20 NUniq=   20 SFac= 1.00D+00 NAtFMM=   60 NAOKFM=F Big=F
 Integral buffers will be    131072 words long.
 Raffenetti 2 integral format.
 Two-electron integral symmetry is turned off.
 One-electron integrals computed using PRISM.
   1 Symmetry operations used in ECPInt.
 ECPInt:  NShTT=   11325 NPrTT=   34180 LenC2=   10800 LenP2D=   24988.
 LDataN:  DoStor=T MaxTD1= 6 Len=  172
 NBasis=   370 RedAO= T EigKep=  1.28D-04  NBF=   370
 NBsUse=   370 1.00D-06 EigRej= -1.00D+00 NBFU=   370
 Initial guess from the checkpoint file:  "/oasis/scratch/comet/mayes/temp_project/lme2acetoxprpnt_ts4_ircf_opt.chk"
 B after Tr=    -0.029451   -0.046467    0.046508
         Rot=    0.999984    0.004199   -0.000638    0.003644 Ang=   0.64 deg.
 ExpMin= 9.52D-02 ExpMax= 2.70D+04 ExpMxC= 9.22D+02 IAcc=3 IRadAn=         5 AccDes= 0.00D+00
 Harris functional with IExCor= 1009 and IRadAn=       5 diagonalized for initial guess.
 HarFok:  IExCor= 1009 AccDes= 0.00D+00 IRadAn=         5 IDoV= 1 UseB2=F ITyADJ=14
 ICtDFT=  3500011 ScaDFX=  1.000000  1.000000  1.000000  1.000000
 FoFCou: FMM=F IPFlag=           0 FMFlag=      100000 FMFlg1=           0
         NFxFlg=           0 DoJE=T BraDBF=F KetDBF=T FulRan=T
         wScrn=  0.000000 ICntrl=       500 IOpCl=  0 I1Cent=   200000004 NGrid=           0
         NMat0=    1 NMatS0=      1 NMatT0=    0 NMatD0=    1 NMtDS0=    0 NMtDT0=    0
 Symmetry not used in FoFCou.
 Requested convergence on RMS density matrix=1.00D-08 within  32 cycles.
 Requested convergence on MAX density matrix=1.00D-06.
 Requested convergence on             energy=1.00D-06.
 No special actions if energy rises.
 Integral accuracy reduced to 1.0D-05 until final iterations.
 Initial convergence to 1.0D-05 achieved.  Increase integral accuracy.
 SCF Done:  E(RM062X) =  -535.540240525     A.U. after   14 cycles
            NFock= 14  Conv=0.21D-08     -V/T= 2.0040
 QCSCF skips out because SCF is already converged.
   1 Symmetry operations used in ECPInt.
 ECPInt:  NShTT=   11325 NPrTT=   34180 LenC2=   10800 LenP2D=   24988.
 LDataN:  DoStor=T MaxTD1= 7 Len=  274
 Calling FoFJK, ICntrl=      2127 FMM=F ISym2X=0 I1Cent= 0 IOpClX= 0 NMat=1 NMatS=1 NMatT=0.
 -------------------------------------------------------------------
 Center     Atomic                   Forces (Hartrees/Bohr)
 Number     Number              X              Y              Z
 -------------------------------------------------------------------
      1        6           0.002094864    0.002596644    0.004784706
      2        8          -0.004889727    0.003700182   -0.001200980
      3        8          -0.003542305    0.000407713   -0.002041822
      4        6          -0.022478202    0.020355747   -0.020419026
      5        1          -0.014303038    0.007534026   -0.009371300
      6        6           0.004966380   -0.000756971    0.007224534
      7        1          -0.002133659   -0.001755454   -0.000117592
      8        1          -0.001455695   -0.000969020    0.001567105
      9        1          -0.018154605    0.007085375   -0.011352946
     10        8           0.041973059   -0.029450068    0.021605032
     11        6          -0.000373973   -0.000728234   -0.000440840
     12        1          -0.000175333   -0.000245007    0.000094342
     13        1          -0.000037196    0.000134733   -0.000100861
     14        1           0.000206816    0.000153193    0.000061307
     15        6           0.001478986   -0.008502390    0.014843537
     16        6           0.001449592   -0.001468919    0.005226837
     17        1           0.000081162   -0.000261712   -0.000123571
     18        1          -0.000372601   -0.000280314    0.000638189
     19        1           0.000267607   -0.000919878   -0.000029785
     20        8           0.015397869    0.003370355   -0.010846863
 -------------------------------------------------------------------
 Cartesian Forces:  Max     0.041973059 RMS     0.010137359

 GradGradGradGradGradGradGradGradGradGradGradGradGradGradGradGradGradGrad
 Berny optimization.
 Using GEDIIS/GDIIS optimizer.
 FormGI is forming the generalized inverse of G from B-inverse, IUseBI=4.
 Internal  Forces:  Max     0.064223843 RMS     0.008080204
 Search for a local minimum.
 Step number   3 out of a maximum of  101
 All quantities printed in internal units (Hartrees-Bohrs-Radians)
 Mixed Optimization -- RFO/linear search
 Update second derivatives using D2CorX and points    2    3
 DE= -1.09D-02 DEPred=-2.48D-02 R= 4.39D-01
 Trust test= 4.39D-01 RLast= 8.26D-01 DXMaxT set to 5.05D-01
 ITU=  0  1  0
 Use linear search instead of GDIIS.
     Eigenvalues ---    0.00458   0.00619   0.00724   0.00900   0.01346
     Eigenvalues ---    0.01502   0.01955   0.02641   0.03008   0.03647
     Eigenvalues ---    0.04928   0.05449   0.06288   0.07207   0.07682
     Eigenvalues ---    0.07928   0.09444   0.10296   0.10616   0.10676
     Eigenvalues ---    0.11225   0.15978   0.16000   0.16000   0.16000
     Eigenvalues ---    0.16000   0.16022   0.16775   0.18203   0.20465
     Eigenvalues ---    0.22211   0.24106   0.24814   0.24989   0.25022
     Eigenvalues ---    0.26968   0.31255   0.32152   0.34076   0.34658
     Eigenvalues ---    0.34940   0.34945   0.35035   0.35158   0.35182
     Eigenvalues ---    0.35358   0.35383   0.35760   0.41257   0.42440
     Eigenvalues ---    0.59841   0.60709   0.96867   1.06563
 RFO step:  Lambda=-1.47229750D-02 EMin= 4.58464076D-03
 Quartic linear search produced a step of -0.28881.
 Iteration  1 RMS(Cart)=  0.09323724 RMS(Int)=  0.00241999
 Iteration  2 RMS(Cart)=  0.00293455 RMS(Int)=  0.00055066
 Iteration  3 RMS(Cart)=  0.00000882 RMS(Int)=  0.00055062
 Iteration  4 RMS(Cart)=  0.00000000 RMS(Int)=  0.00055062
 Variable       Old X    -DE/DX   Delta X   Delta X   Delta X     New X
                                 (Linear)    (Quad)   (Total)
    R1        2.26213   0.00227  -0.00034   0.00144   0.00110   2.26322
    R2        2.52278  -0.00102  -0.00206   0.00260   0.00055   2.52333
    R3        2.88401   0.00464  -0.00828   0.02142   0.01315   2.89715
    R4        2.70031  -0.00083  -0.00060   0.00048  -0.00013   2.70018
    R5        2.05029   0.00528  -0.00154   0.01027   0.00873   2.05902
    R6        2.86372   0.00384  -0.01946   0.02802   0.00919   2.87291
    R7        2.58743   0.06422   0.15553   0.02661   0.18213   2.76956
    R8        2.05607  -0.00027   0.00017  -0.00043  -0.00026   2.05582
    R9        2.05262   0.00016  -0.00012   0.00087   0.00075   2.05337
   R10        2.08449  -0.00975   0.00090  -0.00542  -0.00417   2.08032
   R11        3.54065   0.01288  -0.09459   0.24541   0.15074   3.69139
   R12        2.52615   0.00821  -0.00844   0.01663   0.00771   2.53386
   R13        2.05768  -0.00000   0.00000   0.00001   0.00001   2.05769
   R14        2.05087   0.00008  -0.00004   0.00024   0.00020   2.05108
   R15        2.05760  -0.00006   0.00005  -0.00012  -0.00007   2.05753
   R16        2.84203   0.00200   0.00220  -0.00011   0.00208   2.84412
   R17        2.28346  -0.01336   0.00253  -0.00925  -0.00716   2.27630
   R18        2.06192   0.00027   0.00000   0.00032   0.00032   2.06224
   R19        2.05421  -0.00071   0.00032  -0.00104  -0.00071   2.05349
   R20        2.05279   0.00034  -0.00007   0.00014   0.00008   2.05286
    A1        2.16315   0.00056   0.00376  -0.00262   0.00125   2.16440
    A2        2.15462   0.00300   0.00343   0.00325   0.00680   2.16142
    A3        1.95321  -0.00278  -0.00367   0.00464   0.00109   1.95430
    A4        2.00888   0.00007   0.00059   0.00150   0.00209   2.01097
    A5        1.91215  -0.00014   0.01632  -0.05336  -0.03855   1.87361
    A6        2.00443  -0.00535   0.00878  -0.03243  -0.02360   1.98083
    A7        1.75251   0.01017  -0.02702   0.08053   0.05358   1.80609
    A8        2.00436  -0.00277   0.01651  -0.06451  -0.04879   1.95557
    A9        1.72197   0.00868  -0.02122   0.10006   0.07884   1.80082
   A10        2.03400  -0.00734  -0.00639   0.00141  -0.00434   2.02966
   A11        1.90817   0.00076   0.00952  -0.00787   0.00183   1.91000
   A12        1.92603   0.00118   0.01336  -0.01738  -0.00380   1.92224
   A13        1.83132   0.00444  -0.00655   0.01302   0.00734   1.83865
   A14        1.93440  -0.00116   0.01134  -0.03180  -0.01927   1.91513
   A15        1.90593  -0.00179  -0.01720   0.02615   0.00852   1.91445
   A16        1.95495  -0.00311  -0.01311   0.02023   0.00676   1.96172
   A17        2.46155   0.00136   0.03147  -0.04726  -0.01552   2.44603
[...]
 281,-0.00384171,0.00231168,0.00413298,0.00121379,-0.00014794,-0.000685
 65,-0.00100726,-0.00226431,-0.00045438,-0.00958114,-0.02785695,-0.0067
 8763,0.00101649,0.00073863,-0.00032299,-0.06197973,-0.06016056,-0.0185
 2841,0.00827085,0.02277684,0.00776804,0.06655527,0.00062609,0.00038317
 ,0.00077042,-0.00104349,0.00000095,0.00027256,-0.00085608,-0.00066286,
 -0.00000630,-0.00027610,-0.00988348,-0.00259291,0.00001616,0.00024868,
 0.00026342,-0.06326793,-0.28493016,-0.06866163,-0.00578712,-0.01589162
 ,-0.00507189,0.06972083,0.30797565,0.00350620,-0.00102536,-0.00222054,
 -0.00042059,0.00017893,0.00069709,0.00063084,0.00155622,0.00037786,0.0
 0447395,0.01927022,0.00386990,-0.00085038,0.00012491,0.00081801,-0.018
 47163,-0.07160237,-0.06966089,0.00259569,0.00665467,0.00050633,0.01699
 890,0.07506855,0.07051681,0.00090649,0.00151363,0.00056693,0.00015732,
 -0.00021148,-0.00000002,-0.00042590,-0.00000051,-0.00021072,0.00536249
 ,-0.00050817,0.03033687,-0.00423222,-0.00242054,0.00284019,-0.05654555
 ,-0.00140282,-0.05568087,-0.00396555,-0.00244218,-0.02423475,-0.002559
 52,0.00070427,-0.00633639,0.06182371,-0.00048924,0.00130394,0.00197609
 ,0.00051268,-0.00012162,-0.00117120,0.00036812,-0.00011202,-0.00016657
 ,0.00328284,-0.00143093,0.01114744,-0.00211572,0.00002039,0.00099539,-
 0.00286516,-0.04898855,-0.01164181,0.00252771,0.00075590,0.02010075,-0
 .00541139,0.00099415,-0.02994863,0.00409601,0.04746522,0.00009713,-0.0
 0199930,-0.00045800,-0.00057398,0.00066797,0.00061040,0.00002849,0.000
 28434,0.00012764,-0.00263220,0.00126021,-0.01791797,0.00271288,0.00098
 273,0.00001440,-0.05111010,-0.00966161,-0.31596815,-0.00062038,-0.0004
 7046,-0.00416618,-0.00098544,0.00024665,-0.00510284,0.05508096,0.00982
 508,0.34215924,-0.01196450,0.00077143,0.00039275,0.00312404,0.00519496
 ,0.00059340,0.00587540,-0.00067548,-0.00003143,-0.14167008,0.06811463,
 0.00311930,-0.01840165,0.01742020,-0.00488987,-0.03799927,0.03149267,-
 0.00659781,-0.00667809,-0.00350331,0.00658091,0.00330210,0.00052295,-0
 .00162422,0.00162016,-0.00036444,0.00017038,0.34515934,0.03813495,-0.0
 2187741,0.00690256,-0.00141508,-0.01273426,-0.00559120,-0.00341872,-0.
 00349238,-0.00170487,0.05878080,-0.12938954,-0.00957771,0.00771461,-0.
 00434893,0.00193164,0.00189283,0.00248319,-0.00357910,-0.00123980,0.00
 053722,0.00026170,0.00027799,0.00158057,-0.00014558,0.00063618,0.00017
 402,-0.00054659,-0.15261869,0.24656059,0.00074904,-0.01018823,-0.00625
 232,-0.00082125,0.00324522,0.00310880,0.00387796,0.00480493,0.00224300
 ,-0.00875093,-0.00004617,-0.08488195,-0.03266787,0.02881661,-0.0023733
 3,0.01079258,-0.00863044,0.00527302,0.00185863,0.00055711,0.00032468,-
 0.00012310,-0.00012944,0.00033249,-0.00316359,-0.00123340,0.00166059,0
 .14081780,0.03460325,0.39209063,-0.03442993,-0.04892987,-0.00433422,0.
 00414563,-0.00440312,-0.00435622,-0.09049868,-0.01770935,0.00169040,-0
 .00403187,0.00091431,0.00378543,0.00001882,0.00022646,-0.00023593,0.00
 000402,-0.00100433,-0.00063073,-0.00006718,-0.00003810,-0.00003464,-0.
 00026266,0.00000193,0.00021136,0.00003894,-0.00000129,-0.00000916,0.00
 076819,0.00157030,-0.00110392,0.62271011,-0.04324082,-0.01609772,0.008
 66157,0.01635065,-0.00714498,-0.00449964,-0.04211395,-0.20522829,-0.03
 373949,0.00181207,0.00192925,-0.00147228,-0.00019878,-0.00051152,-0.00
 046111,-0.00004840,0.00090687,0.00003053,-0.00016237,-0.00012787,-0.00
 001123,0.00023142,0.00033971,-0.00013150,0.00005550,0.00000360,-0.0000
 1712,-0.00052915,0.00179167,-0.00146860,-0.03785391,0.48553540,-0.0009
 3428,0.00974118,0.00586010,0.00242968,0.00172194,-0.00617653,-0.008339
 04,-0.04384356,-0.07926139,0.00308840,-0.00095985,0.00442456,0.0003273
 7,0.00089693,0.00018812,0.00019765,0.00034136,0.00019954,-0.00007110,-
 0.00004528,0.00001181,0.00011732,0.00005675,-0.00009566,-0.00000082,-0
 .00000331,-0.00002092,-0.00036484,-0.00003929,-0.00126678,-0.02344239,
 -0.02756368,0.59374853,0.00420623,-0.00236432,-0.00381247,-0.00067996,
 0.00196434,0.00097284,-0.00276430,-0.00704097,-0.01317737,0.00007035,-
 0.00017790,0.00063126,0.00002322,0.00009615,0.00005964,0.00001412,-0.0
 0005728,-0.00000662,-0.00003767,-0.00000886,-0.00000831,-0.00002073,0.
 00000747,0.00001857,-0.00000943,-0.00002855,0.00000879,-0.00010671,0.0
 0004618,-0.00006597,-0.05280619,0.00376630,0.02288872,0.04941624,0.006
 49238,0.00023123,-0.00374462,-0.00209093,0.00117123,0.00083369,-0.0079
 6789,-0.02084648,-0.03767387,-0.00015258,-0.00011297,0.00078717,0.0000
 8597,0.00014618,0.00012570,0.00010636,-0.00020085,-0.00003906,0.000018
 05,0.00001695,0.00000924,-0.00006489,-0.00003704,0.00003843,-0.0000562
 3,-0.00001268,0.00002451,0.00038760,-0.00030051,0.00078662,0.00246474,
 -0.05202143,-0.02527859,0.00173441,0.06526024,0.00420276,-0.00016645,-
 0.00071766,-0.00054881,0.00162258,0.00082498,-0.00424241,-0.00943029,-
 0.00165724,-0.00024392,0.00000919,-0.00026356,0.00000858,0.00004070,0.
 00002357,0.00003381,-0.00006570,0.00000526,0.00000434,0.00001216,-0.00
 001123,-0.00002209,-0.00000597,0.00001463,-0.00000887,-0.00001550,0.00
 001223,-0.00003954,0.00003633,0.00019423,0.01732930,-0.03402902,-0.318
 66533,-0.01871304,0.04306236,0.34014839,0.00156920,-0.00060719,-0.0008
 7167,0.00005348,-0.00073566,-0.00001148,-0.01133276,-0.00563452,0.0019
 9708,-0.00050897,0.00030556,0.00022761,-0.00001133,-0.00003782,0.00000
 433,0.00002940,-0.00022440,-0.00010953,0.00003452,0.00002013,0.0000010
 9,-0.00005886,-0.00004396,0.00004083,-0.00000186,0.00001685,0.00000164
 ,0.00022757,-0.00021544,0.00018520,-0.30360568,-0.00619707,0.08292968,
 0.00104988,0.00122864,-0.00010967,0.32646089,0.00296211,-0.00746083,-0
 .00362906,0.00018335,0.00304854,0.00070643,-0.04307060,-0.01346675,0.0
 0992702,-0.00171724,0.00043979,0.00048658,-0.00002538,-0.00006699,-0.0
 0001529,0.00003536,-0.00048346,-0.00021152,0.00000824,0.00002233,-0.00
 001137,-0.00014148,-0.00005139,0.00010348,-0.00000968,0.00000130,0.000
 01761,0.00037515,-0.00001798,0.00024980,0.00642834,-0.04629233,0.00025
 051,0.00385686,0.00097558,0.00048434,0.01244867,0.05999795,0.00029928,
 -0.00236328,-0.00070628,0.00021033,0.00089891,0.00086665,-0.01119076,-
 0.00277918,0.00302949,-0.00034301,-0.00007465,0.00034872,-0.00000710,0
 .00004807,-0.00000682,-0.00000999,-0.00012204,-0.00006002,-0.00001268,
 0.00000299,-0.00000587,-0.00003734,-0.00000936,0.00002400,0.00000358,-
 0.00001008,-0.00000116,-0.00003134,0.00007300,-0.00007429,0.08753665,0
 .00463838,-0.08146667,0.03002231,0.00084017,-0.00612829,-0.09059429,0.
 00013052,0.07795105,0.00309820,-0.00220294,-0.00023575,-0.00113386,0.0
 0036522,0.00081304,0.00782957,-0.01319040,0.00901854,-0.00031666,0.000
 09647,-0.00098507,-0.00006741,-0.00022934,-0.00003708,0.00003724,0.000
 02865,0.00001055,-0.00001030,-0.00000033,-0.00000764,-0.00000706,0.000
 01487,0.00000715,-0.00000423,-0.00000540,0.00002185,-0.00004125,0.0001
 6208,0.00012498,-0.14268982,0.10721658,-0.07924297,0.00172969,-0.00200
 744,0.00243960,-0.01380759,0.01880313,-0.01586443,0.14544033,0.0089009
 7,-0.00095417,-0.00242133,-0.00223781,0.00258669,0.00123648,0.00662295
 ,-0.03887664,0.01201244,-0.00011244,0.00004290,-0.00051279,-0.00005771
 ,-0.00017605,-0.00000541,-0.00001774,-0.00006621,-0.00003807,-0.000019
 38,0.00001386,0.00001091,-0.00003794,-0.00000915,0.00003005,-0.0000013
 9,-0.00000660,0.00001089,-0.00018575,-0.00021979,0.00033190,0.09870209
 ,-0.16291014,0.08506959,-0.00190388,0.00525462,-0.00124761,-0.00031664
 ,0.00337578,-0.00133071,-0.10907254,0.19171753,-0.00106621,0.00143265,
 0.00117413,-0.00032455,-0.00148691,-0.00040298,0.00682739,-0.00919276,
 0.00704632,0.00001259,0.00010058,-0.00033594,-0.00002203,-0.00009240,-
 0.00004152,0.00000271,0.00000148,-0.00004160,0.00002631,0.00000898,0.0
 0001222,-0.00000433,-0.00001438,0.00000329,-0.00000340,0.00001479,0.00
 000010,0.00014978,-0.00015705,0.00029579,-0.07697023,0.08971990,-0.118
 19395,-0.01893229,0.02096971,-0.01373098,0.00641679,-0.00837914,0.0061
 5244,0.08394344,-0.09293478,0.11825835,0.00572254,0.00675989,0.0006763
 5,-0.00109129,-0.00425483,-0.00140725,-0.00385600,-0.00405835,-0.00008
 612,-0.03424928,0.01357433,-0.03551216,-0.00178058,0.00158689,0.001110
 51,-0.00033759,-0.00165283,-0.00111337,0.00115357,-0.00019457,0.000121
 44,-0.00058207,-0.00014677,-0.00001965,-0.00102393,0.00055872,0.000377
 78,-0.14600981,0.03383095,-0.07417803,0.00124007,0.00149594,0.00034918
 ,0.00003108,-0.00034622,-0.00011629,-0.00026720,-0.00032833,0.00015171
 ,-0.00011808,-0.00032074,-0.00013119,0.50793991,0.01009685,-0.00223442
 ,0.00741129,-0.00173017,-0.00034225,-0.00110185,-0.00229380,-0.0009795
 7,-0.00138463,0.01187975,0.00257983,0.02776255,0.00444705,-0.00464539,
 0.00042550,0.00020242,-0.00065635,0.00103305,0.00045214,0.00015058,-0.
 00088119,-0.00052767,-0.00026208,-0.00063668,0.00159325,0.00072455,-0.
 00078339,0.03309483,-0.09861799,-0.00718959,-0.00125878,-0.00171262,0.
 00029172,0.00008871,-0.00032052,-0.00000591,0.00010768,0.00002208,-0.0
 0001334,0.00004535,0.00039755,-0.00012905,-0.24716597,0.60856171,0.011
 19981,0.00975356,0.01397692,-0.00026891,-0.01012094,-0.00699350,-0.006
 10349,-0.00364288,-0.00655538,-0.03705814,0.02945858,-0.00849625,0.002
 36245,-0.00375456,0.00168515,0.00477607,-0.00685753,0.00498551,0.00287
 577,0.00065097,-0.00348740,-0.00163638,-0.00031613,-0.00035033,0.00291
 668,0.00060141,-0.00144810,-0.07054799,-0.00543316,-0.20354213,0.00134
 402,0.00155506,0.00192183,0.00005136,-0.00152972,-0.00014859,-0.000244
 06,-0.00031306,0.00007265,-0.00017027,-0.00054864,-0.00049260,-0.02021
 839,0.28421937,0.75539296,-0.00096555,-0.00072393,-0.00026757,0.000039
 46,0.00055148,0.00014863,0.00058700,0.00030099,-0.00010654,0.00396551,
 -0.00039673,-0.00225777,-0.00057212,0.00061473,-0.00006463,0.00033853,
 -0.00014142,0.00013129,0.00003665,0.00001130,0.00010935,-0.00003418,-0
 .00002273,0.00000262,-0.00009661,-0.00002535,0.00018175,-0.02248230,0.
 02200488,-0.01348883,-0.00015108,-0.00025827,0.00001267,-0.00001075,0.
 00000397,0.00002128,0.00003371,0.00002363,-0.00002465,0.00000150,0.000
 03129,0.00000603,-0.16213671,0.05974673,-0.00352517,0.52166224,0.00004
 930,0.00006675,-0.00088611,-0.00015045,0.00003620,0.00033476,-0.000260
 45,0.00015942,-0.00009079,-0.00056265,0.00382418,-0.00226866,-0.000162
 19,0.00024511,0.00000504,0.00080325,-0.00048017,0.00017379,0.00021091,
 0.00008953,0.00004259,-0.00002868,0.00002028,0.00011022,-0.00028950,-0
 .00008466,0.00020039,0.01124075,0.00287156,0.00303523,-0.00000660,0.00
 001474,-0.00004488,-0.00000111,0.00000570,0.00001326,-0.00001099,-0.00
 000216,-0.00000459,0.00000758,0.00000419,0.00001248,0.06074065,-0.1415
 5525,0.00876051,0.02975212,0.53064108,-0.00108567,-0.00098705,-0.00111
 176,0.00030588,0.00047202,0.00051757,0.00048796,0.00013177,0.00048879,
 -0.00138448,-0.00237882,-0.00335519,-0.00102691,0.00089775,-0.00019767
 ,-0.00059906,0.00071586,-0.00036176,-0.00025071,-0.00016821,0.00029271
 ,0.00003351,-0.00000249,0.00004616,-0.00020016,-0.00011506,0.00011026,
 -0.03678016,0.02317508,-0.00566361,0.00006628,0.00014559,-0.00009364,0
 .00001904,0.00009263,-0.00001618,0.00000500,0.00004522,0.00001007,0.00
 001507,-0.00001315,0.00001711,-0.00278753,0.00797830,-0.07978342,0.030
 08398,0.00818159,0.61220518,0.00003857,-0.00007053,0.00028376,-0.00000
 213,-0.00000255,-0.00009908,0.00006573,0.00002985,-0.00004663,-0.00002
 680,-0.00041895,0.00035001,0.00004052,-0.00005157,-0.00000680,-0.00004
 700,0.00009881,-0.00003018,-0.00005630,-0.00004236,-0.00000555,-0.0000
 6536,-0.00002191,-0.00006478,0.00008559,0.00004919,-0.00002064,-0.0011
 4000,-0.00120676,-0.00021214,-0.00003947,-0.00002313,0.00000585,-0.000
 00757,-0.00000158,0.00000473,0.00000442,0.00001547,-0.00001377,0.00001
 057,0.00000658,0.00000101,0.01410108,0.02466211,0.00658582,-0.07679512
 ,-0.08498791,-0.02925858,0.08225133,-0.00042090,-0.00001570,-0.0002852
 6,0.00008394,0.00011258,0.00011157,0.00014476,0.00002206,0.00008477,0.
 00070501,0.00037133,-0.00010247,-0.00000934,0.00002154,0.00000116,0.00
 008317,-0.00010873,-0.00000606,0.00003442,0.00003207,0.00002648,0.0000
 4761,0.00002518,0.00003962,-0.00005965,-0.00003465,0.00005908,0.000332
 71,0.00212731,0.00031288,0.00000390,0.00002610,-0.00001298,-0.00000233
 ,0.00001823,0.00000213,0.00000313,0.00001007,-0.00000530,0.00000461,-0
 .00000466,0.00000605,-0.01173329,-0.01998973,-0.00713841,-0.08471775,-
 0.27319977,-0.06394191,0.09197517,0.29482895,-0.00002768,0.00002337,-0
 .00008376,-0.00001468,0.00003942,0.00003507,-0.00000010,0.00000011,-0.
 00000378,0.00029765,0.00000052,0.00003015,-0.00000616,0.00002317,-0.00
 000540,0.00000338,0.00000563,-0.00000646,-0.00000319,0.00001267,-0.000
 00746,0.00000437,-0.00000414,0.00003336,0.00000413,-0.00003454,-0.0000
 0681,-0.00150630,0.00054024,-0.00076525,-0.00000774,-0.00004291,-0.000
 00862,-0.00000231,0.00000398,0.00000077,0.00000132,-0.00000715,0.00000
 232,-0.00000449,0.00000788,0.00000371,0.00238753,-0.00163698,-0.003174
 69,-0.02938149,-0.06554070,-0.06345366,0.02803510,0.07230735,0.0647133
 6,-0.00036996,-0.00014698,0.00022021,0.00010824,-0.00000741,-0.0001082
 0,0.00023348,0.00006339,-0.00020229,0.00026294,0.00069845,-0.00040695,
 -0.00005820,0.00006550,-0.00001134,0.00017258,-0.00012241,0.00004907,0
 .00004315,0.00002296,-0.00004087,-0.00000327,-0.00000282,0.00001092,0.
 00003139,-0.00000488,-0.00001339,0.00114475,0.00108124,-0.00169081,0.0
 0002117,0.00005319,0.00003211,-0.00000357,-0.00002796,-0.00000215,0.00
 000734,0.00002051,-0.00000050,0.00000153,-0.00001228,-0.00000282,-0.01
 737635,-0.01128632,0.02001424,-0.17010388,-0.05255558,0.12572844,-0.00
 714110,-0.00232625,0.00675125,0.18181797,0.00059818,0.00031806,-0.0003
 0944,-0.00018731,-0.00004173,0.00013441,-0.00054856,0.00001226,0.00015
 516,-0.00037599,-0.00036618,0.00010662,0.00001231,-0.00001956,0.000010
 93,-0.00011028,0.00002923,-0.00005134,-0.00001517,-0.00000187,0.000010
 89,0.00000559,-0.00000168,0.00002441,-0.00002316,-0.00001560,-0.000009
 61,-0.00094192,-0.00045316,0.00071726,0.00003184,-0.00004620,-0.000053
 77,0.00000929,0.00001381,-0.00000619,-0.00001530,-0.00004853,0.0000256
 8,-0.00001946,0.00001269,0.00000222,0.01607918,0.00942971,-0.01850868,
 -0.05073803,-0.06324771,0.05557394,-0.02028467,-0.00745523,0.02137767,
 0.05568024,0.06941077,0.00002827,-0.00000420,-0.00006721,-0.00002578,0
 .00003287,0.00003852,-0.00000626,-0.00009220,-0.00002127,0.00024983,-0
 .00039832,0.00021873,-0.00001589,0.00002316,-0.00000670,-0.00006946,0.
 00009462,-0.00006515,-0.00003630,-0.00000994,0.00002061,0.00000750,-0.
 00000474,-0.00000043,0.00001209,0.00000269,-0.00000242,-0.00124718,0.0
 0091244,-0.00084570,0.00004276,0.00001387,0.00001284,0.00001672,-0.000
 01240,-0.00001339,0.00000019,-0.00001548,0.00002872,-0.00001731,-0.000
 00472,-0.00000755,0.00057026,-0.00324202,-0.00215569,0.12573559,0.0570
 0462,-0.17483309,-0.00691329,-0.00228155,0.00606223,-0.13918428,-0.059
 70922,0.18635090,-0.00045771,-0.00037664,-0.00028817,0.00005141,0.0002
 6572,0.00016836,0.00020296,0.00012961,0.00005677,0.00060792,-0.0001957
 7,-0.00096016,-0.00030510,0.00026750,-0.00005492,-0.00006582,0.0001078
 0,-0.00008620,-0.00005323,-0.00002685,0.00006278,0.00001323,-0.0000092
 9,0.00000994,-0.00002897,-0.00001073,0.00002971,-0.00519087,0.00507259
 ,-0.00084090,-0.00001240,-0.00002495,-0.00002601,0.00000512,0.00001838
 ,-0.00000210,0.00000963,0.00001338,0.00000673,0.00000019,0.00000643,0.
 00000604,-0.01045550,-0.00271198,-0.02511396,-0.09812102,0.00454246,-0
 .10650018,-0.00496482,0.00136075,-0.00784890,0.01169737,0.00012207,0.0
 2006158,0.10502472,0.00017810,0.00037123,0.00017362,-0.00003293,-0.000
 15892,-0.00009186,-0.00018791,-0.00015398,-0.00006528,0.00029960,0.000
 84615,0.00054299,0.00022713,-0.00019851,0.00005058,0.00014506,-0.00022
 901,0.00009877,0.00008022,0.00004150,-0.00007418,-0.00000107,0.0000044
 0,-0.00000643,0.00001537,0.00002541,-0.00002530,0.00518846,-0.00294475
 ,0.00056531,0.00005354,0.00008042,0.00004667,0.00001535,-0.00003205,-0
 .00001199,-0.00001081,-0.00001600,0.00001715,-0.00001183,-0.00001850,-
 0.00001633,0.00663996,-0.00048881,0.02237375,0.00226983,-0.04920135,0.
 00406512,-0.01138971,0.00403983,-0.02644308,0.00474456,-0.00148811,0.0
 0788152,-0.00653240,0.04861632,-0.00007983,-0.00008519,-0.00005825,-0.
 00000769,0.00009595,0.00003725,0.00006673,0.00009167,0.00003794,0.0004
 5881,-0.00049345,0.00038134,0.00003538,-0.00001390,0.00002003,-0.00011
 917,0.00010196,-0.00002641,-0.00003109,-0.00001449,0.00002015,0.000017
 50,0.00000213,0.00000019,-0.00000933,-0.00000651,-0.00000125,-0.000099
 38,0.00010166,0.00084634,-0.00004553,-0.00005941,-0.00001972,-0.000008
 54,0.00001598,0.00000947,0.00000457,0.00000528,-0.00001425,0.00000704,
 0.00001210,0.00000654,0.00226537,-0.00143504,-0.00059148,-0.11227404,0
 .00932942,-0.28284540,-0.00111344,0.00083313,-0.00440434,-0.00975882,-
 0.00016615,-0.01615331,0.11971085,-0.00828040,0.30144291,-0.00350912,-
 0.00208239,0.00272907,0.00106949,0.00009192,-0.00187399,0.00244116,0.0
 0060231,0.00006516,-0.00125444,-0.00242224,0.00218853,0.00059271,-0.00
 115502,-0.00022006,-0.00229430,0.00018521,0.00193985,-0.00022216,-0.00
 017427,-0.00137114,-0.00036819,-0.00013636,-0.00071932,-0.00113233,-0.
 00008999,-0.00274604,0.03046299,-0.01109110,-0.02129885,-0.00035199,-0
 .00033083,0.00004283,-0.00009905,0.00017525,0.00000449,0.00011421,0.00
 011850,-0.00010075,0.00004744,0.00002592,0.00006497,-0.15090388,0.1205
 5784,0.11276056,0.00480472,0.03166909,0.02312828,-0.00631214,0.0044903
 2,0.00131832,-0.00048559,0.00072114,0.00079095,0.00204288,-0.00169051,
 0.00098061,0.12535758,-0.00551043,-0.00272054,-0.00533353,0.00143184,0
 .00174122,0.00290239,0.00248523,-0.00207589,0.00670376,0.00544576,-0.0
 0945506,0.00295812,-0.00080777,0.00192861,0.00015004,-0.00181990,0.002
 21323,-0.00028079,-0.00086594,-0.00029067,0.00044721,0.00053230,0.0001
 5673,0.00029685,-0.00118890,-0.00066119,-0.00006609,-0.01531760,0.0162
 7056,-0.04914026,0.00080790,0.00146533,-0.00057146,0.00000014,0.000790
 75,-0.00029840,-0.00008087,0.00001301,0.00003766,-0.00000487,-0.000163
 91,0.00013398,0.12893539,-0.35006104,-0.29920950,0.02171325,-0.0102077
 0,-0.03386821,0.00166444,-0.00082680,-0.00063251,0.00406287,-0.0060409
 7,-0.00019102,-0.00201806,0.00090474,-0.00003473,-0.13946479,0.3570195
 6,-0.00363517,-0.00589134,-0.00552621,-0.00042753,0.00459462,0.0030146
 8,0.00213756,0.00390353,-0.00082786,0.01655460,-0.00984460,0.00132889,
 -0.00050055,0.00055635,0.00028418,-0.00088726,0.00209960,-0.00141736,-
 0.00084121,-0.00021664,0.00121574,0.00050763,0.00013890,0.00019058,-0.
 00191250,-0.00031702,0.00039892,-0.02806426,-0.04176335,-0.10070421,-0
 .00083549,-0.00126890,-0.00109811,0.00003767,0.00068806,0.00011892,0.0
 0012536,0.00017530,-0.00002248,0.00016375,0.00033496,0.00027711,0.1275
 5985,-0.31068211,-0.46081547,0.00495752,-0.01836817,-0.00197247,0.0025
 1860,-0.00001027,0.00103925,-0.00138382,0.00067519,0.00143935,0.001608
 72,-0.00080062,0.00131225,-0.11768347,0.37599651,0.56176431\\-0.000028
 69,-0.00000343,0.00000356,0.00001746,0.00000078,-0.00000264,0.00001216
 ,0.00001600,-0.00000280,-0.00000614,0.00001119,0.00000283,0.00000548,-
 0.00000558,0.00000085,-0.00000425,-0.00000176,-0.00000623,0.00000049,0
 .00000401,0.00000607,0.00000084,0.00000217,0.00000071,-0.00001186,-0.0
 0000441,-0.00000312,0.00001215,-0.00000652,-0.00000492,-0.00000786,-0.
 00002087,-0.00000313,0.00000106,0.00000097,0.00000114,0.00000156,0.000
 00164,0.,0.00000007,0.00000182,-0.00000146,-0.00000319,0.00000244,0.00
 001519,-0.00000160,0.00000035,0.00000657,0.00000102,-0.00000069,-0.000
 00680,-0.00000030,-0.00000324,-0.00000551,-0.00000482,0.00000118,-0.00
 000058,0.00001641,0.00000397,0.00000025\\\@


 HE THAT FOLLOWS NATURE IS NEVER LOST.

                             -- BACON
 Job cpu time:       0 days  3 hours 40 minutes  3.8 seconds.
 Elapsed time:       0 days  0 hours  9 minutes 11.9 seconds.
 File lengths (MBytes):  RWF=    239 Int=      0 D2E=      0 Chk=     19 Scr=      1
 Normal termination of Gaussian 16 at Thu Oct  3 12:46:50 2019.
