 Entering Gaussian System, Link 0=g16
 Initial command:
 /nopt/nrel/apps/gaussian/g16B/g16/l1.exe "/dev/shm/Gau-156142.inp" -scrdir="/dev/shm/"
 Default is to use a total of  36 processors:
                               36 via shared-memory
                                1 via Linda
 Entering Link 1 = /nopt/nrel/apps/gaussian/g16B/g16/l1.exe PID=    156143.
  
 Copyright (c) 1988-2017, Gaussian, Inc.  All Rights Reserved.
  
 This is part of the Gaussian(R) 16 program.  It is based on
 the Gaussian(R) 09 system (copyright 2009, Gaussian, Inc.),
 the Gaussian(R) 03 system (copyright 2003, Gaussian, Inc.),
 the Gaussian(R) 98 system (copyright 1998, Gaussian, Inc.),
 the Gaussian(R) 94 system (copyright 1995, Gaussian, Inc.),
 the Gaussian 92(TM) system (copyright 1992, Gaussian, Inc.),
 the Gaussian 90(TM) system (copyright 1990, Gaussian, Inc.),
 the Gaussian 88(TM) system (copyright 1988, Gaussian, Inc.),
 the Gaussian 86(TM) system (copyright 1986, Carnegie Mellon
 University), and the Gaussian 82(TM) system (copyright 1983,
 Carnegie Mellon University). Gaussian is a federally registered
 trademark of Gaussian, Inc.
  
 This software contains proprietary and confidential information,
 including trade secrets, belonging to Gaussian, Inc.
  
 This software is provided under written license and may be
 used, copied, transmitted, or stored only in accord with that
 written license.
  
 The following legend is applicable only to US Government
 contracts under FAR:
  
                    RESTRICTED RIGHTS LEGEND
  
 Use, reproduction and disclosure by the US Government is
 subject to restrictions as set forth in subparagraphs (a)
 and (c) of the Commercial Computer Software - Restricted
 Rights clause in FAR 52.227-19.
  
 Gaussian, Inc.
 340 Quinnipiac St., Bldg. 40, Wallingford CT 06492
  
  
 ---------------------------------------------------------------
 Warning -- This program may not be used in any manner that
 competes with the business of Gaussian, Inc. or will provide
 assistance to any competitor of Gaussian, Inc.  The licensee
 of this program is prohibited from giving any competitor of
 Gaussian, Inc. access to this program.  By using this program,
 the user acknowledges that Gaussian, Inc. is engaged in the
 business of creating and licensing software in the field of
 computational chemistry and represents and warrants to the
 licensee that it is not a competitor of Gaussian, Inc. and that
 it will not use this program in any manner prohibited above.
 ---------------------------------------------------------------
  

 Cite this work as:
 Gaussian 16, Revision B.01,
 M. J. Frisch, G. W. Trucks, H. B. Schlegel, G. E. Scuseria, 
 M. A. Robb, J. R. Cheeseman, G. Scalmani, V. Barone, 
 G. A. Petersson, H. Nakatsuji, X. Li, M. Caricato, A. V. Marenich, 
 J. Bloino, B. G. Janesko, R. Gomperts, B. Mennucci, H. P. Hratchian, 
 J. V. Ortiz, A. F. Izmaylov, J. L. Sonnenberg, D. Williams-Young, 
 F. Ding, F. Lipparini, F. Egidi, J. Goings, B. Peng, A. Petrone, 
 T. Henderson, D. Ranasinghe, V. G. Zakrzewski, J. Gao, N. Rega, 
 G. Zheng, W. Liang, M. Hada, M. Ehara, K. Toyota, R. Fukuda, 
 J. Hasegawa, M. Ishida, T. Nakajima, Y. Honda, O. Kitao, H. Nakai, 
 T. Vreven, K. Throssell, J. A. Montgomery, Jr., J. E. Peralta, 
 F. Ogliaro, M. J. Bearpark, J. J. Heyd, E. N. Brothers, K. N. Kudin, 
 V. N. Staroverov, T. A. Keith, R. Kobayashi, J. Normand, 
 K. Raghavachari, A. P. Rendell, J. C. Burant, S. S. Iyengar, 
 J. Tomasi, M. Cossi, J. M. Millam, M. Klene, C. Adamo, R. Cammi, 
 J. W. Ochterski, R. L. Martin, K. Morokuma, O. Farkas, 
 J. B. Foresman, and D. J. Fox, Gaussian, Inc., Wallingford CT, 2016.
 
 ******************************************
 Gaussian 16:  ES64L-G16RevB.01 20-Dec-2017
                 8-Oct-2019 
 ******************************************
 %RWF=/dev/shm/,5GB,/tmp/scratch/1501386/,-1
 %NoSave
 %OldChk=lme2acetoxprpnt_ts4_b_ts_ircf.chk
 %Chk=/dev/shm/lme2acetoxprpnt_ts4_b_ts_ircf_opt.chk
 Copying data from "lme2acetoxprpnt_ts4_b_ts_ircf.chk" to current chk file "/dev/shm/lme2acetoxprpnt_ts4_b_ts_ircf_opt.chk"
 IOpt=  2 FromEx=T IUOpen= 4 IOptOp= 5 NList=   0 IFRang= 0 IUIn= 4 IUOut= 2.
 Default route: CacheSize=180224 MaxDisk=256GB
 ----------------------------------------------------------------------
 # m062x/Def2TZVP nosymm scf=xqc opt freq=NoRaman CPHF=Grid=Fine guess=
 read geom=allcheck
 ----------------------------------------------------------------------
 1/4=180224,18=20,19=15,26=3,29=7,38=1/1,3;
 2/4=180224,9=110,12=2,15=1,40=1/2;
 3/4=180224,5=44,7=101,11=2,14=-4,25=1,30=1,71=1,74=-55,116=-2/1,2,3;
 4/4=180224,5=1/1;
 5/4=180224,5=2,8=3,13=1,38=6/2,8;
 6/4=180224,7=2,8=2,9=2,10=2,28=1/1;
 7/4=180224,30=1/1,2,3,16;
 1/4=180224,18=20,19=15,26=3/3(2);
 2/4=180224,9=110,15=1/2;
 99/4=180224/99;
 2/4=180224,9=110,15=1/2;
 3/4=180224,5=44,7=101,11=2,14=-2,25=1,30=1,71=1,74=-55/1,2,3;
 4/4=180224,5=5,16=3,69=1/1;
 5/4=180224,5=2,8=3,13=1,38=5/2,8;
 7/4=180224,30=1/1,2,3,16;
 1/4=180224,18=20,19=15,26=3/3(-5);
 2/4=180224,9=110,15=1/2;
 6/4=180224,7=2,8=2,9=2,10=2,19=2,28=1/1;
 99/4=180224,9=1/99;
 Structure from the checkpoint file:  "/dev/shm/lme2acetoxprpnt_ts4_b_ts_ircf_opt.chk"
 -------------------------------
 rotated lme2acetoxprpnt_ts4.log
 -------------------------------
 Charge =  0 Multiplicity = 1
 No Z-Matrix found in chk file; cartesian coordinates used.
  C                                                -0.441338104716      1.084422062215      0.186550803606
  O                                                 0.092535355283      0.990004972292      1.256216382901
  O                                                -0.463747765362      2.180520798289     -0.560266281451
  C                                                -1.130914370957     -0.060855730749     -0.501318569711
  H                                                -1.521441570014      0.182518429333     -1.479944562935
  C                                                -1.935371625658     -0.932100039899      0.374203657268
  H                                                -2.013874076278     -0.564515756969      1.394081176069
  H                                                -2.888902212261     -1.225675055288     -0.055093572773
  H                                                -1.346014418223     -1.845780114893      0.442539580731
  O                                                 0.361946211748     -0.783265691813     -1.046639856602
  C                                                 0.233276337590      3.300108830838     -0.013392164277
  H                                                 1.286333549528      3.055045200627      0.114358671114
  H                                                 0.108788196991      4.105712455941     -0.729473277312
  H                                                -0.190415010503      3.570599751309      0.952303777103
  C                                                 0.812813558840     -1.716145750176     -0.218154471907
  C                                                 2.258386340287     -1.636417575249      0.192782628944
  H                                                 2.569392218520     -2.603785037199      0.576506068625
  H                                                 2.896546020872     -1.315882230991     -0.628036942779
  H                                                 2.324516238434     -0.891207090363      0.988975112528
  O                                                 0.084347579290     -2.571850585684      0.235884740487
 Recover connectivity data from disk.

 GradGradGradGradGradGradGradGradGradGradGradGradGradGradGradGradGradGrad
 Berny optimization.
 Initialization pass.
                           ----------------------------
                           !    Initial Parameters    !
                           ! (Angstroms and Degrees)  !
 --------------------------                            --------------------------
 ! Name  Definition              Value          Derivative Info.                !
 --------------------------------------------------------------------------------
 ! R1    R(1,2)                  1.1992         estimate D2E/DX2                !
 ! R2    R(1,3)                  1.3265         estimate D2E/DX2                !
 ! R3    R(1,4)                  1.5034         estimate D2E/DX2                !
 ! R4    R(3,11)                 1.4277         estimate D2E/DX2                !
 ! R5    R(4,5)                  1.0814         estimate D2E/DX2                !
 ! R6    R(4,6)                  1.474          estimate D2E/DX2                !
 ! R7    R(6,7)                  1.0869         estimate D2E/DX2                !
 ! R8    R(6,8)                  1.0861         estimate D2E/DX2                !
 ! R9    R(6,9)                  1.0894         estimate D2E/DX2                !
 ! R10   R(9,20)                 1.6173         estimate D2E/DX2                !
 ! R11   R(10,15)                1.3266         estimate D2E/DX2                !
 ! R12   R(11,12)                1.0887         estimate D2E/DX2                !
 ! R13   R(11,13)                1.085          estimate D2E/DX2                !
 ! R14   R(11,14)                1.0887         estimate D2E/DX2                !
 ! R15   R(15,16)                1.505          estimate D2E/DX2                !
 ! R16   R(15,20)                1.212          estimate D2E/DX2                !
 ! R17   R(16,17)                1.0862         estimate D2E/DX2                !
 ! R18   R(16,18)                1.088          estimate D2E/DX2                !
 ! R19   R(16,19)                1.0925         estimate D2E/DX2                !
 ! A1    A(2,1,3)              125.0818         estimate D2E/DX2                !
 ! A2    A(2,1,4)              123.5262         estimate D2E/DX2                !
 ! A3    A(3,1,4)              111.353          estimate D2E/DX2                !
 ! A4    A(1,3,11)             115.0916         estimate D2E/DX2                !
 ! A5    A(1,4,5)              114.0944         estimate D2E/DX2                !
 ! A6    A(1,4,6)              115.3925         estimate D2E/DX2                !
 ! A7    A(5,4,6)              118.2581         estimate D2E/DX2                !
 ! A8    A(4,6,7)              113.3814         estimate D2E/DX2                !
 ! A9    A(4,6,8)              113.8358         estimate D2E/DX2                !
 ! A10   A(4,6,9)              103.7527         estimate D2E/DX2                !
 ! A11   A(7,6,8)              113.5074         estimate D2E/DX2                !
 ! A12   A(7,6,9)              105.2984         estimate D2E/DX2                !
 ! A13   A(8,6,9)              105.8451         estimate D2E/DX2                !
 ! A14   A(6,9,20)             147.8798         estimate D2E/DX2                !
 ! A15   A(3,11,12)            109.9164         estimate D2E/DX2                !
 ! A16   A(3,11,13)            105.8683         estimate D2E/DX2                !
 ! A17   A(3,11,14)            110.1574         estimate D2E/DX2                !
 ! A18   A(12,11,13)           110.8268         estimate D2E/DX2                !
 ! A19   A(12,11,14)           109.1638         estimate D2E/DX2                !
 ! A20   A(13,11,14)           110.8723         estimate D2E/DX2                !
 ! A21   A(10,15,16)           117.3691         estimate D2E/DX2                !
 ! A22   A(10,15,20)           121.745          estimate D2E/DX2                !
 ! A23   A(16,15,20)           120.8252         estimate D2E/DX2                !
 ! A24   A(15,16,17)           108.9241         estimate D2E/DX2                !
 ! A25   A(15,16,18)           111.9011         estimate D2E/DX2                !
 ! A26   A(15,16,19)           107.0536         estimate D2E/DX2                !
 ! A27   A(17,16,18)           111.1595         estimate D2E/DX2                !
 ! A28   A(17,16,19)           109.4327         estimate D2E/DX2                !
 ! A29   A(18,16,19)           108.2608         estimate D2E/DX2                !
 ! A30   A(9,20,15)            105.216          estimate D2E/DX2                !
 ! D1    D(2,1,3,11)             1.0101         estimate D2E/DX2                !
 ! D2    D(4,1,3,11)          -176.7774         estimate D2E/DX2                !
 ! D3    D(2,1,4,5)           -177.3672         estimate D2E/DX2                !
 ! D4    D(2,1,4,6)             40.7854         estimate D2E/DX2                !
 ! D5    D(3,1,4,5)              0.461          estimate D2E/DX2                !
 ! D6    D(3,1,4,6)           -141.3864         estimate D2E/DX2                !
 ! D7    D(1,3,11,12)           60.9959         estimate D2E/DX2                !
 ! D8    D(1,3,11,13)         -179.2595         estimate D2E/DX2                !
 ! D9    D(1,3,11,14)          -59.3312         estimate D2E/DX2                !
 ! D10   D(1,4,6,7)              6.4444         estimate D2E/DX2                !
 ! D11   D(1,4,6,8)            138.2099         estimate D2E/DX2                !
 ! D12   D(1,4,6,9)           -107.2433         estimate D2E/DX2                !
 ! D13   D(5,4,6,7)           -133.7461         estimate D2E/DX2                !
 ! D14   D(5,4,6,8)             -1.9806         estimate D2E/DX2                !
 ! D15   D(5,4,6,9)            112.5662         estimate D2E/DX2                !
 ! D16   D(4,6,9,20)            16.7464         estimate D2E/DX2                !
 ! D17   D(7,6,9,20)          -102.6283         estimate D2E/DX2                !
 ! D18   D(8,6,9,20)           136.8749         estimate D2E/DX2                !
 ! D19   D(6,9,20,15)           -1.9635         estimate D2E/DX2                !
 ! D20   D(10,15,16,17)       -161.1751         estimate D2E/DX2                !
 ! D21   D(10,15,16,18)        -37.8695         estimate D2E/DX2                !
 ! D22   D(10,15,16,19)         80.5921         estimate D2E/DX2                !
 ! D23   D(20,15,16,17)         21.6113         estimate D2E/DX2                !
 ! D24   D(20,15,16,18)        144.917          estimate D2E/DX2                !
 ! D25   D(20,15,16,19)        -96.6214         estimate D2E/DX2                !
 ! D26   D(10,15,20,9)         -34.7114         estimate D2E/DX2                !
 ! D27   D(16,15,20,9)         142.3786         estimate D2E/DX2                !
 --------------------------------------------------------------------------------
 Trust Radius=3.00D-01 FncErr=1.00D-07 GrdErr=1.00D-06 EigMax=2.50D+02 EigMin=1.00D-04
 Number of steps in this run=     86 maximum allowed number of steps=    120.
 GradGradGradGradGradGradGradGradGradGradGradGradGradGradGradGradGradGrad

                          Input orientation:                          
 ---------------------------------------------------------------------
 Center     Atomic      Atomic             Coordinates (Angstroms)
 Number     Number       Type             X           Y           Z
 ---------------------------------------------------------------------
      1          6           0       -0.441338    1.084422    0.186551
      2          8           0        0.092535    0.990005    1.256216
      3          8           0       -0.463748    2.180521   -0.560266
      4          6           0       -1.130914   -0.060856   -0.501319
      5          1           0       -1.521442    0.182518   -1.479945
      6          6           0       -1.935372   -0.932100    0.374204
      7          1           0       -2.013874   -0.564516    1.394081
      8          1           0       -2.888902   -1.225675   -0.055094
      9          1           0       -1.346014   -1.845780    0.442540
     10          8           0        0.361946   -0.783266   -1.046640
     11          6           0        0.233276    3.300109   -0.013392
     12          1           0        1.286334    3.055045    0.114359
     13          1           0        0.108788    4.105712   -0.729473
     14          1           0       -0.190415    3.570600    0.952304
     15          6           0        0.812814   -1.716146   -0.218154
     16          6           0        2.258386   -1.636418    0.192783
     17          1           0        2.569392   -2.603785    0.576506
     18          1           0        2.896546   -1.315882   -0.628037
     19          1           0        2.324516   -0.891207    0.988975
     20          8           0        0.084348   -2.571851    0.235885
 ---------------------------------------------------------------------
                    Distance matrix (angstroms):
                    1          2          3          4          5
     1  C    0.000000
     2  O    1.199216   0.000000
     3  O    1.326526   2.241961   0.000000
     4  C    1.503443   2.385386   2.339306   0.000000
     5  H    2.181115   3.277733   2.440602   1.081412   0.000000
     6  C    2.516687   2.929990   3.567537   1.474028   2.202630
     7  H    2.578758   2.621546   3.709123   2.150775   3.010079
     8  H    3.374242   3.939256   4.211739   2.155561   2.425522
     9  H    3.077345   3.282251   4.242065   2.030540   2.800128
    10  O    2.377874   2.918941   3.114861   1.745819   2.160473
    11  C    2.324726   2.639753   1.427722   3.659941   3.866417
    12  H    2.621720   2.644501   2.069468   3.991364   4.321668
    13  H    3.204674   3.694707   2.015637   4.353069   4.314198
    14  H    2.613507   2.613789   2.072414   4.023062   4.377963
    15  C    3.095135   3.164778   4.114688   2.568705   3.262788
    16  C    3.832952   3.566496   4.748275   3.801517   4.515932
    17  H    4.776969   4.417256   5.777696   4.617409   5.359795
    18  H    4.191239   4.090233   4.849845   4.220378   4.742316
    19  H    3.492413   2.931231   4.428327   3.853629   4.694661
    20  O    3.694199   3.705126   4.849670   2.885381   3.620660
                    6          7          8          9         10
     6  C    0.000000
     7  H    1.086937   0.000000
     8  H    1.086141   1.817392   0.000000
     9  H    1.089414   1.730060   1.735705   0.000000
    10  O    2.705294   3.413135   3.427376   2.502743   0.000000
    11  C    4.771253   4.686789   5.498405   5.402056   4.214037
    12  H    5.132663   5.062636   5.982130   5.572706   4.115221
    13  H    5.547634   5.552136   6.153424   6.237814   4.905792
    14  H    4.863474   4.540853   5.594724   5.561694   4.822554
    15  C    2.918585   3.451915   3.737626   2.261385   1.326625
    16  C    4.256358   4.565556   5.169597   3.619104   2.420851
    17  H    4.809195   5.082655   5.664899   3.990354   3.289637
    18  H    4.949667   5.363370   5.814449   4.407521   2.623567
    19  H    4.304214   4.369493   5.327446   3.831788   2.829675
    20  O    2.605222   3.126235   3.276747   1.617350   2.218325
                   11         12         13         14         15
    11  C    0.000000
    12  H    1.088718   0.000000
    13  H    1.085019   1.789572   0.000000
    14  H    1.088691   1.774467   1.790040   0.000000
    15  C    5.053771   4.806147   5.886521   5.506915   0.000000
    16  C    5.339745   4.791749   6.200273   5.804010   1.504961
    17  H    6.376628   5.820840   7.264813   6.773536   2.122489
    18  H    5.364529   4.716878   6.097177   5.992037   2.161054
    19  H    4.790110   4.173210   5.729897   5.121908   2.103076
    20  O    5.879135   5.755128   6.747026   6.190190   1.212042
                   16         17         18         19         20
    16  C    0.000000
    17  H    1.086171   0.000000
    18  H    1.087996   1.793501   0.000000
    19  H    1.092536   1.778488   1.767002   0.000000
    20  O    2.367137   2.508484   3.198793   2.900011   0.000000
 Symmetry turned off by external request.
 Stoichiometry    C6H10O4
 Framework group  C1[X(C6H10O4)]
 Deg. of freedom    54
 Full point group                 C1      NOp   1
 Rotational constants (GHZ):           2.2143330           0.9063414           0.7643862
 Standard basis: def2TZVP (5D, 7F)
   370 basis functions,   590 primitive gaussians,   420 cartesian basis functions
    39 alpha electrons       39 beta electrons
       nuclear repulsion energy       570.5774753228 Hartrees.
 NAtoms=   20 NActive=   20 NUniq=   20 SFac= 1.00D+00 NAtFMM=   60 NAOKFM=F Big=F
 Integral buffers will be    131072 words long.
 Raffenetti 2 integral format.
 Two-electron integral symmetry is turned off.
 One-electron integrals computed using PRISM.
   1 Symmetry operations used in ECPInt.
 ECPInt:  NShTT=   11325 NPrTT=   34180 LenC2=   10874 LenP2D=   25246.
 LDataN:  DoStor=T MaxTD1= 6 Len=  172
 NBasis=   370 RedAO= T EigKep=  1.06D-04  NBF=   370
 NBsUse=   370 1.00D-06 EigRej= -1.00D+00 NBFU=   370
 Initial guess from the checkpoint file:  "/dev/shm/lme2acetoxprpnt_ts4_b_ts_ircf_opt.chk"
 B after Tr=     0.000000    0.000000    0.000000
         Rot=    1.000000    0.000000    0.000000    0.000000 Ang=   0.00 deg.
 Requested convergence on RMS density matrix=1.00D-08 within  32 cycles.
 Requested convergence on MAX density matrix=1.00D-06.
 Requested convergence on             energy=1.00D-06.
 No special actions if energy rises.
 SCF Done:  E(RM062X) =  -535.514554700     A.U. after    1 cycles
            NFock=  1  Conv=0.18D-08     -V/T= 2.0044
 QCSCF skips out because SCF is already converged.

 **********************************************************************

            Population analysis using the SCF Density.

 **********************************************************************

 Alpha  occ. eigenvalues --  -19.69353 -19.65767 -19.63335 -19.60583 -10.68972
 Alpha  occ. eigenvalues --  -10.66489 -10.64006 -10.60378 -10.53662 -10.52377
 Alpha  occ. eigenvalues --   -1.26247  -1.21263  -1.16524  -1.11487  -0.91575
 Alpha  occ. eigenvalues --   -0.84526  -0.83255  -0.75006  -0.66814  -0.64247
 Alpha  occ. eigenvalues --   -0.61706  -0.59081  -0.58313  -0.56662  -0.55299
 Alpha  occ. eigenvalues --   -0.53987  -0.52536  -0.49053  -0.48907  -0.46886
 Alpha  occ. eigenvalues --   -0.46525  -0.45729  -0.44972  -0.43630  -0.40543
 Alpha  occ. eigenvalues --   -0.39649  -0.38522  -0.36454  -0.32905
 Alpha virt. eigenvalues --   -0.01842   0.06074   0.06395   0.08667   0.09282
 Alpha virt. eigenvalues --    0.09860   0.10984   0.11612   0.13476   0.14500
 Alpha virt. eigenvalues --    0.15267   0.15744   0.16557   0.17827   0.19727
 Alpha virt. eigenvalues --    0.19823   0.20678   0.21999   0.22499   0.23727
 Alpha virt. eigenvalues --    0.24523   0.25192   0.26241   0.27251   0.27833
 Alpha virt. eigenvalues --    0.29821   0.30689   0.30981   0.33676   0.36152
 Alpha virt. eigenvalues --    0.37293   0.38132   0.39261   0.39731   0.41035
 Alpha virt. eigenvalues --    0.41610   0.44066   0.44364   0.44815   0.45133
 Alpha virt. eigenvalues --    0.46461   0.47189   0.47294   0.49127   0.49259
 Alpha virt. eigenvalues --    0.50029   0.51155   0.51729   0.52318   0.54441
 Alpha virt. eigenvalues --    0.54864   0.56347   0.58501   0.58913   0.59725
 Alpha virt. eigenvalues --    0.60663   0.60917   0.61915   0.64472   0.64946
 Alpha virt. eigenvalues --    0.66462   0.67801   0.70439   0.71268   0.74198
 Alpha virt. eigenvalues --    0.74700   0.76041   0.78544   0.82705   0.85176
 Alpha virt. eigenvalues --    0.86478   0.86517   0.88105   0.90173   0.92018
 Alpha virt. eigenvalues --    0.92898   0.93779   0.94347   0.96463   0.98053
 Alpha virt. eigenvalues --    0.99871   1.00572   1.01867   1.03357   1.05078
 Alpha virt. eigenvalues --    1.06265   1.08616   1.10295   1.11639   1.13007
 Alpha virt. eigenvalues --    1.14332   1.15380   1.16419   1.18898   1.19776
 Alpha virt. eigenvalues --    1.25997   1.28024   1.31728   1.36023   1.40541
 Alpha virt. eigenvalues --    1.42561   1.45879   1.46045   1.49416   1.50252
 Alpha virt. eigenvalues --    1.50961   1.53073   1.55008   1.55912   1.56490
 Alpha virt. eigenvalues --    1.57481   1.58834   1.59276   1.60592   1.61577
 Alpha virt. eigenvalues --    1.61973   1.63042   1.63787   1.65778   1.67726
 Alpha virt. eigenvalues --    1.68146   1.70507   1.73551   1.74163   1.76051
 Alpha virt. eigenvalues --    1.77521   1.78646   1.82053   1.83479   1.86387
 Alpha virt. eigenvalues --    1.89494   1.91711   1.92500   1.93330   1.96939
 Alpha virt. eigenvalues --    1.97543   2.00014   2.00729   2.02437   2.04011
 Alpha virt. eigenvalues --    2.07205   2.07581   2.08713   2.12412   2.12574
 Alpha virt. eigenvalues --    2.15261   2.15643   2.17073   2.18935   2.21883
 Alpha virt. eigenvalues --    2.23784   2.24993   2.25860   2.28307   2.28399
 Alpha virt. eigenvalues --    2.29739   2.32146   2.34190   2.35250   2.36453
 Alpha virt. eigenvalues --    2.37750   2.38358   2.41256   2.43310   2.44691
 Alpha virt. eigenvalues --    2.45941   2.48821   2.51349   2.53797   2.54370
 Alpha virt. eigenvalues --    2.54730   2.55591   2.57407   2.59606   2.61973
 Alpha virt. eigenvalues --    2.64083   2.65441   2.66680   2.68613   2.71324
 Alpha virt. eigenvalues --    2.74212   2.76152   2.78454   2.79368   2.80869
 Alpha virt. eigenvalues --    2.83310   2.84496   2.86672   2.88048   2.89799
 Alpha virt. eigenvalues --    2.91482   2.94025   2.95989   2.97636   2.99283
 Alpha virt. eigenvalues --    3.01710   3.03332   3.03856   3.06123   3.07062
 Alpha virt. eigenvalues --    3.08369   3.10268   3.11597   3.13412   3.14337
 Alpha virt. eigenvalues --    3.14739   3.17496   3.19351   3.20837   3.22165
 Alpha virt. eigenvalues --    3.22584   3.23476   3.25540   3.27496   3.28430
 Alpha virt. eigenvalues --    3.30683   3.32022   3.32685   3.33902   3.35471
 Alpha virt. eigenvalues --    3.37603   3.39578   3.40683   3.40885   3.43120
 Alpha virt. eigenvalues --    3.45230   3.46103   3.47008   3.49778   3.53234
 Alpha virt. eigenvalues --    3.55070   3.55852   3.56595   3.57564   3.59727
 Alpha virt. eigenvalues --    3.62142   3.63037   3.65564   3.71467   3.71936
 Alpha virt. eigenvalues --    3.74716   3.78264   3.82435   3.86602   3.87501
 Alpha virt. eigenvalues --    3.90119   3.92387   3.95734   3.98944   4.02787
 Alpha virt. eigenvalues --    4.06585   4.08430   4.11124   4.16724   4.19702
 Alpha virt. eigenvalues --    4.24827   4.31755   4.35136   4.37738   4.39551
 Alpha virt. eigenvalues --    4.41382   4.43043   4.46483   4.46821   4.50609
 Alpha virt. eigenvalues --    4.51197   4.55474   4.59495   4.67171   4.71236
 Alpha virt. eigenvalues --    4.74036   4.80198   4.84132   5.17496   5.21829
 Alpha virt. eigenvalues --    5.22452   5.26010   5.30006   5.34250   5.35919
 Alpha virt. eigenvalues --    5.43572   5.49224   5.50399   5.57380   5.61192
 Alpha virt. eigenvalues --    5.63610   5.64929   5.67636   5.79433   5.82526
 Alpha virt. eigenvalues --    5.98181   6.02056   6.03380   6.06485   6.12441
 Alpha virt. eigenvalues --    6.15652   6.18485   6.35403   6.38428   6.40610
 Alpha virt. eigenvalues --    6.48099   6.50543   6.59521   6.62240   6.63849
 Alpha virt. eigenvalues --    6.64678   6.69995   6.75153   6.77044   6.82402
 Alpha virt. eigenvalues --    6.83755   6.88145   6.96261   6.99200   7.00896
 Alpha virt. eigenvalues --    7.10485   7.12718   7.16472   7.25204   7.26179
 Alpha virt. eigenvalues --    7.35570  22.42373  22.43596  22.46437  22.58957
 Alpha virt. eigenvalues --   23.40424  23.49167  44.01875  44.09151  44.14718
 Alpha virt. eigenvalues --   44.27910
          Condensed to atoms (all electrons):
               1          2          3          4          5          6
     1  C    4.515207   0.612714   0.361236   0.291456  -0.053501  -0.019099
     2  O    0.612714   7.850331  -0.080885  -0.076782   0.004073   0.003749
     3  O    0.361236  -0.080885   7.930181  -0.080044   0.008106   0.004513
     4  C    0.291456  -0.076782  -0.080044   5.097811   0.420928   0.235826
     5  H   -0.053501   0.004073   0.008106   0.420928   0.516103  -0.029101
     6  C   -0.019099   0.003749   0.004513   0.235826  -0.029101   5.227771
     7  H    0.009745   0.004595   0.000761  -0.052464   0.003712   0.397113
     8  H    0.006657   0.000545  -0.000085  -0.048185  -0.010874   0.414080
     9  H   -0.008317  -0.001830  -0.000210   0.010419  -0.000337   0.377602
    10  O    0.014452  -0.009477  -0.001222   0.116777  -0.021031  -0.008206
    11  C   -0.056716   0.005342   0.206512   0.007092  -0.000343  -0.000063
    12  H   -0.005677   0.003874  -0.035956  -0.001151   0.000118  -0.000083
    13  H    0.004719   0.001834  -0.029470   0.000866  -0.000333  -0.000036
    14  H   -0.009832   0.003487  -0.033070  -0.000118   0.000038   0.000277
    15  C   -0.001230   0.019468   0.000793  -0.013679   0.000768  -0.013645
    16  C    0.001976  -0.008659  -0.000252   0.004505  -0.000764  -0.010235
    17  H    0.000125   0.000100  -0.000004  -0.000370   0.000023   0.000408
    18  H   -0.000624   0.000040   0.000028  -0.000169  -0.000005   0.000514
    19  H   -0.000135   0.004283  -0.000052   0.000460   0.000018   0.000620
    20  O    0.000363  -0.001283  -0.000036  -0.005848  -0.000382  -0.101617
               7          8          9         10         11         12
     1  C    0.009745   0.006657  -0.008317   0.014452  -0.056716  -0.005677
     2  O    0.004595   0.000545  -0.001830  -0.009477   0.005342   0.003874
     3  O    0.000761  -0.000085  -0.000210  -0.001222   0.206512  -0.035956
     4  C   -0.052464  -0.048185   0.010419   0.116777   0.007092  -0.001151
     5  H    0.003712  -0.010874  -0.000337  -0.021031  -0.000343   0.000118
     6  C    0.397113   0.414080   0.377602  -0.008206  -0.000063  -0.000083
     7  H    0.501922  -0.022572  -0.014884   0.002273   0.000159  -0.000023
     8  H   -0.022572   0.522371  -0.016123   0.002411   0.000030  -0.000001
     9  H   -0.014884  -0.016123   0.392527  -0.007558   0.000007  -0.000003
    10  O    0.002273   0.002411  -0.007558   8.088854  -0.000270   0.000237
    11  C    0.000159   0.000030   0.000007  -0.000270   4.854318   0.419785
    12  H   -0.000023  -0.000001  -0.000003   0.000237   0.419785   0.527038
    13  H   -0.000001  -0.000001   0.000001  -0.000012   0.395778  -0.023900
    14  H    0.000016  -0.000002   0.000001  -0.000001   0.420244  -0.040244
    15  C    0.000055   0.002254  -0.026064   0.342300  -0.000060   0.000133
    16  C    0.000953  -0.000069   0.002919  -0.079553   0.000200  -0.000019
    17  H   -0.000030  -0.000005   0.000063   0.005522  -0.000004   0.000003
    18  H   -0.000036   0.000007  -0.000215   0.005449  -0.000021  -0.000004
    19  H   -0.000080  -0.000017  -0.000163  -0.000373   0.000036   0.000088
    20  O    0.001863   0.001798   0.036258  -0.087708   0.000003  -0.000000
              13         14         15         16         17         18
     1  C    0.004719  -0.009832  -0.001230   0.001976   0.000125  -0.000624
     2  O    0.001834   0.003487   0.019468  -0.008659   0.000100   0.000040
     3  O   -0.029470  -0.033070   0.000793  -0.000252  -0.000004   0.000028
     4  C    0.000866  -0.000118  -0.013679   0.004505  -0.000370  -0.000169
     5  H   -0.000333   0.000038   0.000768  -0.000764   0.000023  -0.000005
     6  C   -0.000036   0.000277  -0.013645  -0.010235   0.000408   0.000514
     7  H   -0.000001   0.000016   0.000055   0.000953  -0.000030  -0.000036
     8  H   -0.000001  -0.000002   0.002254  -0.000069  -0.000005   0.000007
     9  H    0.000001   0.000001  -0.026064   0.002919   0.000063  -0.000215
    10  O   -0.000012  -0.000001   0.342300  -0.079553   0.005522   0.005449
    11  C    0.395778   0.420244  -0.000060   0.000200  -0.000004  -0.000021
    12  H   -0.023900  -0.040244   0.000133  -0.000019   0.000003  -0.000004
    13  H    0.526144  -0.025243  -0.000025   0.000008  -0.000000  -0.000000
    14  H   -0.025243   0.528796  -0.000046   0.000011  -0.000000   0.000000
    15  C   -0.000025  -0.000046   4.513704   0.296317  -0.046354  -0.033279
    16  C    0.000008   0.000011   0.296317   5.121194   0.409974   0.387047
    17  H   -0.000000  -0.000000  -0.046354   0.409974   0.507315  -0.020464
    18  H   -0.000000   0.000000  -0.033279   0.387047  -0.020464   0.530489
    19  H   -0.000000  -0.000008  -0.007616   0.374226  -0.017230  -0.021871
    20  O    0.000000   0.000000   0.593560  -0.082274   0.006111   0.003738
              19         20
     1  C   -0.000135   0.000363
     2  O    0.004283  -0.001283
     3  O   -0.000052  -0.000036
     4  C    0.000460  -0.005848
     5  H    0.000018  -0.000382
     6  C    0.000620  -0.101617
     7  H   -0.000080   0.001863
     8  H   -0.000017   0.001798
     9  H   -0.000163   0.036258
    10  O   -0.000373  -0.087708
    11  C    0.000036   0.000003
    12  H    0.000088  -0.000000
    13  H   -0.000000   0.000000
    14  H   -0.000008   0.000000
    15  C   -0.007616   0.593560
    16  C    0.374226  -0.082274
    17  H   -0.017230   0.006111
    18  H   -0.021871   0.003738
    19  H    0.499557   0.000172
    20  O    0.000172   8.004742
 Mulliken charges:
               1
     1  C    0.336480
     2  O   -0.335520
     3  O   -0.250846
     4  C    0.092669
     5  H    0.162784
     6  C   -0.480390
     7  H    0.166923
     8  H    0.147781
     9  H    0.255904
    10  O   -0.362865
    11  C   -0.252029
    12  H    0.155784
    13  H    0.149672
    14  H    0.155694
    15  C    0.372649
    16  C   -0.417505
    17  H    0.154816
    18  H    0.149374
    19  H    0.168085
    20  O   -0.369459
 Sum of Mulliken charges =  -0.00000
 Mulliken charges with hydrogens summed into heavy atoms:
               1
     1  C    0.336480
     2  O   -0.335520
     3  O   -0.250846
     4  C    0.255453
     6  C    0.090219
    10  O   -0.362865
    11  C    0.209121
    15  C    0.372649
    16  C    0.054770
    20  O   -0.369459
 Electronic spatial extent (au):  <R**2>=           1596.9717
 Charge=             -0.0000 electrons
 Dipole moment (field-independent basis, Debye):
    X=             -0.2027    Y=              3.1657    Z=             -0.8524  Tot=              3.2847
 Quadrupole moment (field-independent basis, Debye-Ang):
   XX=            -52.1514   YY=            -57.4707   ZZ=            -63.2327
   XY=             -0.8124   XZ=              0.4794   YZ=              0.1073
 Traceless Quadrupole moment (field-independent basis, Debye-Ang):
   XX=              5.4669   YY=              0.1475   ZZ=             -5.6144
   XY=             -0.8124   XZ=              0.4794   YZ=              0.1073
 Octapole moment (field-independent basis, Debye-Ang**2):
  XXX=              2.0030  YYY=             58.2458  ZZZ=             -5.3723  XYY=              9.3339
  XXY=             -9.3347  XXZ=             -2.0526  XZZ=             -3.6819  YZZ=             -1.6620
  YYZ=             -3.5924  XYZ=             -1.7809
 Hexadecapole moment (field-independent basis, Debye-Ang**3):
 XXXX=           -554.6271 YYYY=          -1198.8275 ZZZZ=           -209.7225 XXXY=             69.4665
 XXXZ=              1.4033 YYYX=             72.4195 YYYZ=             10.7540 ZZZX=             -0.3818
 ZZZY=             -1.2632 XXYY=           -290.3419 XXZZ=           -122.9325 YYZZ=           -247.6619
 XXYZ=              2.0614 YYXZ=             -5.0359 ZZXY=             21.8279
 N-N= 5.705774753228D+02 E-N=-2.395744748758D+03  KE= 5.331560009152D+02
   1 Symmetry operations used in ECPInt.
 ECPInt:  NShTT=   11325 NPrTT=   34180 LenC2=   10874 LenP2D=   25246.
 LDataN:  DoStor=T MaxTD1= 7 Len=  274
 Calling FoFJK, ICntrl=      2127 FMM=F ISym2X=0 I1Cent= 0 IOpClX= 0 NMat=1 NMatS=1 NMatT=0.
 -------------------------------------------------------------------
 Center     Atomic                   Forces (Hartrees/Bohr)
 Number     Number              X              Y              Z
 -------------------------------------------------------------------
      1        6           0.002102271    0.001048338   -0.001510038
      2        8          -0.001485101    0.001195316    0.000509241
      3        8           0.000163028    0.002718707    0.000234005
      4        6           0.041406650   -0.016882671   -0.018080904
      5        1          -0.000026901    0.001253214    0.000451710
      6        6          -0.007575433   -0.003121728    0.002193193
      7        1          -0.002589752    0.004752928   -0.001745394
      8        1          -0.002342269    0.006342212   -0.000519237
      9        1          -0.008062295   -0.002951487    0.004507016
     10        8          -0.036702906    0.021844524    0.015894288
     11        6           0.000220056    0.001096968    0.000118842
     12        1           0.000013111    0.000036869    0.000004030
     13        1           0.000067689    0.000132756    0.000043105
     14        1           0.000062005    0.000100463    0.000023048
     15        6          -0.005048415   -0.005827754    0.008011067
     16        6          -0.000424648    0.004046643   -0.005061466
     17        1           0.000106649    0.000401205   -0.000403088
     18        1          -0.000135943    0.000381332   -0.000472331
     19        1          -0.000082135    0.000414746   -0.000490146
     20        8           0.020334340   -0.016982578   -0.003706942
 -------------------------------------------------------------------
 Cartesian Forces:  Max     0.041406650 RMS     0.009619843

 GradGradGradGradGradGradGradGradGradGradGradGradGradGradGradGradGradGrad
 Berny optimization.
 FormGI is forming the generalized inverse of G from B-inverse, IUseBI=4.
 Internal  Forces:  Max     0.201951336 RMS     0.034324370
 Search for a local minimum.
 Step number   1 out of a maximum of   86
 All quantities printed in internal units (Hartrees-Bohrs-Radians)
 Mixed Optimization -- RFO/linear search
 Second derivative matrix not updated -- first step.
 ITU=  0
     Eigenvalues ---    0.00230   0.00243   0.00700   0.00720   0.01110
     Eigenvalues ---    0.01325   0.01391   0.01635   0.01891   0.02664
     Eigenvalues ---    0.04178   0.06491   0.07230   0.07297   0.07805
     Eigenvalues ---    0.08767   0.10312   0.10674   0.11004   0.13307
     Eigenvalues ---    0.13597   0.16000   0.16000   0.16000   0.16000
     Eigenvalues ---    0.16000   0.16000   0.16000   0.16000   0.22535
     Eigenvalues ---    0.24987   0.24989   0.25000   0.25000   0.25000
     Eigenvalues ---    0.25000   0.31862   0.32019   0.34521   0.34880
     Eigenvalues ---    0.34961   0.34964   0.35045   0.35169   0.35259
     Eigenvalues ---    0.35262   0.35262   0.35395   0.35824   0.41318
     Eigenvalues ---    0.60310   0.60334   0.98998   1.05218
 RFO step:  Lambda=-2.22082788D-01 EMin= 2.30000000D-03
 Linear search not attempted -- first point.
 Maximum step size (   0.300) exceeded in Quadratic search.
    -- Step size scaled by   0.424
 Iteration  1 RMS(Cart)=  0.26093442 RMS(Int)=  0.02099011
 Iteration  2 RMS(Cart)=  0.25464003 RMS(Int)=  0.01063927
 Iteration  3 RMS(Cart)=  0.03876670 RMS(Int)=  0.00030574
 Iteration  4 RMS(Cart)=  0.00060470 RMS(Int)=  0.00016076
 Iteration  5 RMS(Cart)=  0.00000018 RMS(Int)=  0.00016076
 Variable       Old X    -DE/DX   Delta X   Delta X   Delta X     New X
                                 (Linear)    (Quad)   (Total)
    R1        2.26619  -0.00030   0.00000  -0.00010  -0.00010   2.26609
    R2        2.50677   0.00313   0.00000   0.00161   0.00161   2.50838
    R3        2.84110   0.00508   0.00000   0.00397   0.00397   2.84507
    R4        2.69800   0.00132   0.00000   0.00088   0.00088   2.69889
    R5        2.04357  -0.00012   0.00000  -0.00009  -0.00009   2.04349
    R6        2.78551   0.02853   0.00000   0.02105   0.02105   2.80656
    R7        2.05401   0.00016   0.00000   0.00011   0.00011   2.05413
    R8        2.05251   0.00055   0.00000   0.00040   0.00040   2.05291
    R9        2.05869  -0.01620   0.00000  -0.01204  -0.01204   2.04666
   R10        3.05635  -0.02310   0.00000  -0.03162  -0.03162   3.02473
   R11        2.50696   0.01791   0.00000   0.00920   0.00920   2.51616
   R12        2.05738   0.00000   0.00000   0.00000   0.00000   2.05738
   R13        2.05039   0.00006   0.00000   0.00005   0.00005   2.05044
   R14        2.05733   0.00002   0.00000   0.00001   0.00001   2.05734
   R15        2.84396  -0.00199   0.00000  -0.00156  -0.00156   2.84240
   R16        2.29043  -0.01696   0.00000  -0.00593  -0.00593   2.28449
   R17        2.05257  -0.00047   0.00000  -0.00035  -0.00035   2.05222
   R18        2.05601   0.00039   0.00000   0.00029   0.00029   2.05630
   R19        2.06459  -0.00008   0.00000  -0.00006  -0.00006   2.06454
    A1        2.18309  -0.00227   0.00000  -0.00201  -0.00202   2.18107
    A2        2.15594  -0.00060   0.00000  -0.00052  -0.00052   2.15542
    A3        1.94348   0.00293   0.00000   0.00266   0.00266   1.94613
    A4        2.00873   0.00126   0.00000   0.00113   0.00113   2.00986
    A5        1.99132  -0.00244   0.00000  -0.00293  -0.00293   1.98839
    A6        2.01398   0.00149   0.00000   0.00125   0.00125   2.01522
    A7        2.06399   0.00031   0.00000   0.00031   0.00031   2.06431
    A8        1.97888   0.01084   0.00000   0.01136   0.01148   1.99036
    A9        1.98681   0.01297   0.00000   0.01383   0.01394   2.00074
   A10        1.81083  -0.08118   0.00000  -0.09277  -0.09269   1.71813
   A11        1.98108  -0.00593   0.00000  -0.00174  -0.00241   1.97867
   A12        1.83780   0.02974   0.00000   0.03216   0.03183   1.86963
   A13        1.84734   0.02922   0.00000   0.03146   0.03119   1.87854
   A14        2.58099  -0.17092   0.00000  -0.15354  -0.15354   2.42745
   A15        1.91840  -0.00001   0.00000  -0.00001  -0.00001   1.91839
   A16        1.84775   0.00018   0.00000   0.00020   0.00020   1.84795
   A17        1.92261   0.00014   0.00000   0.00016   0.00016   1.92277
   A18        1.93429  -0.00010   0.00000  -0.00011  -0.00011   1.93418
   A19        1.90527  -0.00008   0.00000  -0.00009  -0.00009   1.90518
   A20        1.93509  -0.00013   0.00000  -0.00013  -0.00013   1.93495
   A21        2.04848   0.01264   0.00000   0.01116   0.01103   2.05950
   A22        2.12485  -0.05079   0.00000  -0.04589  -0.04599   2.07886
   A23        2.10880   0.03745   0.00000   0.03342   0.03330   2.14210
   A24        1.90108   0.00058   0.00000   0.00071   0.00071   1.90179
   A25        1.95304  -0.00080   0.00000  -0.00095  -0.00095   1.95209
   A26        1.86844  -0.00021   0.00000  -0.00024  -0.00024   1.86820
   A27        1.94010   0.00011   0.00000   0.00013   0.00013   1.94023
   A28        1.90996   0.00036   0.00000   0.00053   0.00053   1.91049
   A29        1.88951  -0.00003   0.00000  -0.00017  -0.00017   1.88934
   A30        1.83637  -0.20195   0.00000  -0.22415  -0.22415   1.61221
    D1        0.01763   0.00084   0.00000   0.00151   0.00151   0.01914
    D2       -3.08535  -0.00117   0.00000  -0.00207  -0.00207  -3.08741
    D3       -3.09564  -0.00169   0.00000  -0.00325  -0.00325  -3.09889
    D4        0.71184  -0.00094   0.00000  -0.00152  -0.00152   0.71031
    D5        0.00805   0.00024   0.00000   0.00022   0.00023   0.00827
    D6       -2.46766   0.00099   0.00000   0.00195   0.00195  -2.46571
    D7        1.06458   0.00000   0.00000   0.00000   0.00000   1.06458
    D8       -3.12867  -0.00002   0.00000  -0.00003  -0.00003  -3.12869
    D9       -1.03552   0.00001   0.00000   0.00002   0.00002  -1.03551
   D10        0.11248  -0.00912   0.00000  -0.01426  -0.01424   0.09824
   D11        2.41222   0.00545   0.00000   0.00778   0.00778   2.42000
   D12       -1.87175  -0.00217   0.00000  -0.00369  -0.00372  -1.87547
   D13       -2.33431  -0.00727   0.00000  -0.01120  -0.01118  -2.34549
   D14       -0.03457   0.00729   0.00000   0.01084   0.01085  -0.02372
   D15        1.96465  -0.00032   0.00000  -0.00063  -0.00066   1.96399
   D16        0.29228  -0.00225   0.00000  -0.00396  -0.00399   0.28829
   D17       -1.79120   0.00929   0.00000   0.01118   0.01187  -1.77934
   D18        2.38892  -0.01266   0.00000  -0.01785  -0.01851   2.37041
   D19       -0.03427   0.02537   0.00000   0.04796   0.04796   0.01369
   D20       -2.81304  -0.00870   0.00000  -0.01537  -0.01548  -2.82852
   D21       -0.66095  -0.00869   0.00000  -0.01534  -0.01546  -0.67641
   D22        1.40660  -0.00932   0.00000  -0.01623  -0.01635   1.39025
   D23        0.37719   0.00905   0.00000   0.01582   0.01594   0.39313
   D24        2.52928   0.00906   0.00000   0.01584   0.01596   2.54524
   D25       -1.68636   0.00843   0.00000   0.01495   0.01507  -1.67129
   D26       -0.60583   0.04524   0.00000   0.07478   0.07442  -0.53141
   D27        2.48497   0.02863   0.00000   0.04394   0.04430   2.52928
         Item               Value     Threshold  Converged?
 Maximum Force            0.201951     0.000450     NO 
 RMS     Force            0.034324     0.000300     NO 
 Maximum Displacement     1.937118     0.001800     NO 
 RMS     Displacement     0.545231     0.001200     NO 
 Predicted change in Energy=-8.555682D-02
 GradGradGradGradGradGradGradGradGradGradGradGradGradGradGradGradGradGrad

                          Input orientation:                          
 ---------------------------------------------------------------------
 Center     Atomic      Atomic             Coordinates (Angstroms)
 Number     Number       Type             X           Y           Z
 ---------------------------------------------------------------------
      1          6           0       -0.251276    0.780201    0.194732
      2          8           0        0.202651    0.681385    1.300254
      3          8           0       -0.126445    1.846122   -0.586395
      4          6           0       -1.000445   -0.326910   -0.497882
      5          1           0       -1.305511   -0.085636   -1.506880
      6          6           0       -1.942061   -1.093245    0.357580
      7          1           0       -2.047854   -0.697465    1.364421
      8          1           0       -2.891453   -1.330736   -0.114034
      9          1           0       -1.374817   -2.012662    0.434354
     10          8           0       -0.351654   -0.611788   -0.745269
     11          6           0        0.633563    2.920178   -0.030954
     12          1           0        1.649979    2.588151    0.173907
     13          1           0        0.627949    3.705899   -0.779240
     14          1           0        0.176353    3.263706    0.895444
     15          6           0        0.501064   -1.441381   -0.147331
     16          6           0        1.879197   -0.929271    0.170339
     17          1           0        2.537169   -1.774461    0.349496
     18          1           0        2.266350   -0.290804   -0.621203
     19          1           0        1.796772   -0.332515    1.081743
     20          8           0        0.117333   -2.537316    0.189001
 ---------------------------------------------------------------------
                    Distance matrix (angstroms):
                    1          2          3          4          5
     1  C    0.000000
     2  O    1.199163   0.000000
     3  O    1.327377   2.241508   0.000000
     4  C    1.505544   2.386921   2.343882   0.000000
     5  H    2.180956   3.277633   2.443191   1.081367   0.000000
     6  C    2.528848   2.939003   3.581541   1.485169   2.212845
     7  H    2.603721   2.640099   3.737290   2.168537   3.028164
     8  H    3.394397   3.952509   4.238021   2.175067   2.450613
     9  H    3.019908   3.239765   4.182174   1.962391   2.736168
    10  O    1.682650   2.482683   2.473315   0.750524   1.329185
    11  C    2.326667   2.640075   1.428189   3.664913   3.869533
    12  H    2.623716   2.645595   2.069866   3.996702   4.325402
    13  H    3.206457   3.694977   2.016201   4.358253   4.317808
    14  H    2.615657   2.613990   2.072939   4.027249   4.380088
    15  C    2.370327   2.586636   3.375533   1.902488   2.636310
    16  C    2.731630   2.584903   3.506858   3.016902   3.696911
    17  H    3.784927   3.519246   4.591225   3.915121   4.589603
    18  H    2.855037   2.982616   3.208291   3.269321   3.685744
    19  H    2.493877   1.901831   3.350807   3.212424   4.047972
    20  O    3.337937   3.406200   4.458161   2.570434   3.303215
                    6          7          8          9         10
     6  C    0.000000
     7  H    1.086997   0.000000
     8  H    1.086355   1.816183   0.000000
     9  H    1.083045   1.745779   1.750982   0.000000
    10  O    1.994360   2.708363   2.714023   2.097813   0.000000
    11  C    4.784597   4.714278   5.522945   5.346308   3.735731
    12  H    5.146762   5.087884   6.005430   5.512232   3.884717
    13  H    5.561393   5.580755   6.180322   6.179467   4.427550
    14  H    4.874423   4.567047   5.615993   5.518948   4.241484
    15  C    2.518927   3.055452   3.394484   2.045397   1.331495
    16  C    3.829355   4.111119   4.795951   3.439774   2.432247
    17  H    4.530742   4.817928   5.466415   3.920150   3.300851
    18  H    4.394616   4.766595   5.285982   4.163783   2.640524
    19  H    3.883554   3.872240   4.940220   3.647051   2.834025
    20  O    2.520885   3.074849   3.255834   1.600616   2.190996
                   11         12         13         14         15
    11  C    0.000000
    12  H    1.088719   0.000000
    13  H    1.085044   1.789523   0.000000
    14  H    1.088699   1.774419   1.789983   0.000000
    15  C    4.365123   4.202419   5.187475   4.830182   0.000000
    16  C    4.050973   3.524884   4.894090   4.583285   1.504135
    17  H    5.080167   4.455370   5.912149   5.590584   2.122146
    18  H    3.650314   3.049671   4.322379   4.393500   2.159772
    19  H    3.629210   3.062026   4.597629   3.948831   2.102157
    20  O    5.486267   5.349733   6.338450   5.844177   1.208902
                   16         17         18         19         20
    16  C    0.000000
    17  H    1.085988   0.000000
    18  H    1.088148   1.793554   0.000000
    19  H    1.092505   1.778645   1.766993   0.000000
    20  O    2.385440   2.542305   3.212713   2.911812   0.000000
 Symmetry turned off by external request.
 Stoichiometry    C6H10O4
 Framework group  C1[X(C6H10O4)]
 Deg. of freedom    54
 Full point group                 C1      NOp   1
 Rotational constants (GHZ):           2.5587926           1.1787545           0.9735471
 Standard basis: def2TZVP (5D, 7F)
   370 basis functions,   590 primitive gaussians,   420 cartesian basis functions
    39 alpha electrons       39 beta electrons
       nuclear repulsion energy       635.1310073571 Hartrees.
 NAtoms=   20 NActive=   20 NUniq=   20 SFac= 1.00D+00 NAtFMM=   60 NAOKFM=F Big=F
 Integral buffers will be    131072 words long.
 Raffenetti 2 integral format.
 Two-electron integral symmetry is turned off.
 One-electron integrals computed using PRISM.
   1 Symmetry operations used in ECPInt.
 ECPInt:  NShTT=   11325 NPrTT=   34180 LenC2=   11034 LenP2D=   26296.
 LDataN:  DoStor=T MaxTD1= 6 Len=  172
 NBasis=   370 RedAO= T EigKep=  5.69D-05  NBF=   370
 NBsUse=   370 1.00D-06 EigRej= -1.00D+00 NBFU=   370
 Initial guess from the checkpoint file:  "/dev/shm/lme2acetoxprpnt_ts4_b_ts_ircf_opt.chk"
 B after Tr=    -0.038144   -0.089333    0.049757
         Rot=    0.999784   -0.000508   -0.015063    0.014290 Ang=  -2.38 deg.
 ExpMin= 9.52D-02 ExpMax= 2.70D+04 ExpMxC= 9.22D+02 IAcc=3 IRadAn=         5 AccDes= 0.00D+00
 Harris functional with IExCor= 1009 and IRadAn=       5 diagonalized for initial guess.
 HarFok:  IExCor= 1009 AccDes= 0.00D+00 IRadAn=         5 IDoV= 1 UseB2=F ITyADJ=14
 ICtDFT=  3500011 ScaDFX=  1.000000  1.000000  1.000000  1.000000
 FoFCou: FMM=F IPFlag=           0 FMFlag=      100000 FMFlg1=           0
         NFxFlg=           0 DoJE=T BraDBF=F KetDBF=T FulRan=T
         wScrn=  0.000000 ICntrl=       500 IOpCl=  0 I1Cent=   200000004 NGrid=           0
         NMat0=    1 NMatS0=      1 NMatT0=    0 NMatD0=    1 NMtDS0=    0 NMtDT0=    0
 Symmetry not used in FoFCou.
 Requested convergence on RMS density matrix=1.00D-08 within  32 cycles.
 Requested convergence on MAX density matrix=1.00D-06.
 Requested convergence on             energy=1.00D-06.
 No special actions if energy rises.
 Integral accuracy reduced to 1.0D-05 until final iterations.
 Initial convergence to 1.0D-05 achieved.  Increase integral accuracy.
 SCF Done:  E(RM062X) =  -533.975004041     A.U. after   18 cycles
            NFock= 18  Conv=0.51D-08     -V/T= 1.9894
 QCSCF skips out because SCF is already converged.
   1 Symmetry operations used in ECPInt.
 ECPInt:  NShTT=   11325 NPrTT=   34180 LenC2=   11034 LenP2D=   26296.
 LDataN:  DoStor=T MaxTD1= 7 Len=  274
 Calling FoFJK, ICntrl=      2127 FMM=F ISym2X=0 I1Cent= 0 IOpClX= 0 NMat=1 NMatS=1 NMatT=0.
 -------------------------------------------------------------------
 Center     Atomic                   Forces (Hartrees/Bohr)
 Number     Number              X              Y              Z
 -------------------------------------------------------------------
      1        6          -0.109910013    0.211429001    0.110724302
      2        8           0.016801735   -0.007656655    0.006654122
      3        8           0.020409056    0.005988081   -0.008567536
      4        6          -3.734490455    1.720508517    1.319338910
      5        1          -0.146589778    0.092541061   -0.056718396
      6        6          -0.064064493   -0.035017975    0.039289844
      7        1          -0.004259618    0.004256943   -0.002086050
      8        1          -0.004178907    0.007483873    0.001894312
      9        1          -0.036645394   -0.001792864    0.012867742
     10        8           3.903393545   -1.891686643   -1.430074196
     11        6           0.008162674   -0.000487435   -0.003754508
     12        1           0.001483819    0.002608928    0.000582533
     13        1           0.000727586    0.000552496    0.000122969
     14        1          -0.000936575   -0.001028761    0.000030942
     15        6           0.101761770   -0.096295809    0.050875848
     16        6           0.005693542   -0.005303418   -0.013703300
     17        1          -0.000854017   -0.001157308   -0.004312514
     18        1           0.002055818    0.001467363   -0.001176697
     19        1           0.005419397   -0.005590799   -0.004472620
     20        8           0.036020306   -0.000818594   -0.017515708
 -------------------------------------------------------------------
 Cartesian Forces:  Max     3.903393545 RMS     0.812847810

 GradGradGradGradGradGradGradGradGradGradGradGradGradGradGradGradGradGrad
 Berny optimization.
 Using GEDIIS/GDIIS optimizer.
 FormGI is forming the generalized inverse of G from B-inverse, IUseBI=4.
 Internal  Forces:  Max    16.969666204 RMS     3.121816383
 Search for a local minimum.
 Step number  48 out of a maximum of   86
 All quantities printed in internal units (Hartrees-Bohrs-Radians)
 Mixed Optimization -- En-DIIS/RFO-DIIS
 Swapping is turned off.
 Update second derivatives using D2CorX and points   32   33   34   35   36
                                                     37   38   39   40   41
                                                     42   43   44   45   46
                                                     47   48
 DE= -6.15D-07 DEPred=-6.46D-07 R= 9.52D-01
 Trust test= 9.52D-01 RLast= 9.70D-03 DXMaxT set to 7.25D-01
 ITU=  0  1  1  1  1  1  1  1  1  1  1  1  1  1  1  1  1  1  1  1
 ITU=  1  1  1 -1  1  0  1  1  1  1  1 -1  1  0 -1  0  1  1 -1  1
 ITU=  1  1  1 -1  0 -1 -1  0
     Eigenvalues ---    0.00123   0.00228   0.00402   0.01228   0.01381
     Eigenvalues ---    0.02253   0.02543   0.03929   0.04837   0.06064
     Eigenvalues ---    0.06264   0.06455   0.07207   0.07597   0.07733
     Eigenvalues ---    0.08440   0.10301   0.10667   0.11426   0.13366
     Eigenvalues ---    0.15349   0.15828   0.15972   0.16017   0.16031
     Eigenvalues ---    0.16117   0.16704   0.22588   0.24581   0.25209
     Eigenvalues ---    0.26185   0.27037   0.30326   0.32211   0.33157
     Eigenvalues ---    0.34541   0.34949   0.34963   0.35041   0.35211
     Eigenvalues ---    0.35266   0.35391   0.35505   0.36009   0.36823
     Eigenvalues ---    0.38356   0.41314   0.49245   0.59048   0.95618
     Eigenvalues ---    1.04640   1.87080   3.39436  14.03225
 En-DIIS/RFO-DIIS/Sim-DIIS IScMMF=       -3 using points:    48   47   46   45   44   43   42   41   40   39
 RFO step:  Lambda=-1.95953560D-07.
 DIIS inversion failure, remove point  10.
 DIIS inversion failure, remove point   9.
 DIIS inversion failure, remove point   8.
 DIIS inversion failure, remove point   7.
 RFO-DIIS uses    6 points instead of   10
 DidBck=F Rises=F RFO-DIIS coefs:    1.47050   -0.34557   -0.62406    0.78663   -0.24083
                  RFO-DIIS coefs:   -0.04667    0.00000    0.00000    0.00000    0.00000
 Iteration  1 RMS(Cart)=  0.00066753 RMS(Int)=  0.00000035
 Iteration  2 RMS(Cart)=  0.00000091 RMS(Int)=  0.00000012
 Variable       Old X    -DE/DX   Delta X   Delta X   Delta X     New X
                                 (Linear)    (Quad)   (Total)
    R1        2.26150   0.00003   0.00000   0.00003   0.00004   2.26154
    R2        2.51971  -0.00005   0.00002  -0.00010  -0.00009   2.51962
    R3        2.88553   0.00005   0.00002   0.00010   0.00012   2.88565
    R4        2.69850  -0.00000  -0.00005   0.00003  -0.00002   2.69848
    R5        2.06477   0.00001  -0.00001   0.00000  -0.00001   2.06477
    R6        2.86818  -0.00005  -0.00005  -0.00002  -0.00007   2.86810
    R7        2.05641  -0.00000  -0.00005   0.00002  -0.00003   2.05639
    R8        2.05905   0.00000   0.00002  -0.00001   0.00001   2.05906
    R9        2.05354   0.00002  -0.00012   0.00012  -0.00000   2.05354
   R10        4.67612   0.00004  -0.00313  -0.00020  -0.00333   4.67279
   R11        2.54733   0.00001   0.00011   0.00006   0.00016   2.54750
   R12        2.05773  -0.00000  -0.00000  -0.00001  -0.00001   2.05772
   R13        2.05111  -0.00000   0.00000  -0.00001  -0.00000   2.05111
   R14        2.05709   0.00000   0.00001  -0.00001   0.00001   2.05710
   R15        2.83185  -0.00001   0.00003  -0.00008  -0.00006   2.83180
   R16        2.26567   0.00000  -0.00000  -0.00005  -0.00005   2.26562
   R17        2.05079   0.00000   0.00000  -0.00000   0.00000   2.05079
   R18        2.05699  -0.00001   0.00001  -0.00001  -0.00001   2.05698
   R19        2.06067   0.00000  -0.00001   0.00001  -0.00000   2.06067
    A1        2.16932   0.00000  -0.00007   0.00010   0.00003   2.16936
    A2        2.16354  -0.00002   0.00002  -0.00011  -0.00009   2.16344
    A3        1.94833   0.00002   0.00005   0.00001   0.00006   1.94839
    A4        2.00667   0.00000  -0.00000   0.00003   0.00003   2.00670
    A5        1.83829   0.00000   0.00009  -0.00002   0.00006   1.83835
    A6        2.01603  -0.00003  -0.00010   0.00005  -0.00005   2.01598
    A7        1.90892   0.00000   0.00021   0.00002   0.00024   1.90916
    A8        1.91369  -0.00012   0.00029  -0.00022   0.00006   1.91375
    A9        1.89987   0.00005  -0.00001  -0.00000  -0.00001   1.89986
   A10        1.93983   0.00012  -0.00045   0.00026  -0.00019   1.93964
   A11        1.89761   0.00001   0.00013  -0.00007   0.00006   1.89768
   A12        1.90122  -0.00004   0.00014  -0.00001   0.00013   1.90135
   A13        1.91117  -0.00003  -0.00009   0.00003  -0.00006   1.91111
   A14        1.89112   0.00035   0.00112  -0.00017   0.00095   1.89207
   A15        1.92438   0.00000   0.00004  -0.00002   0.00002   1.92440
   A16        1.84810  -0.00000   0.00003  -0.00004  -0.00001   1.84808
   A17        1.91857  -0.00000  -0.00000  -0.00002  -0.00002   1.91855
   A18        1.93395   0.00000  -0.00002   0.00004   0.00002   1.93397
   A19        1.90446   0.00000  -0.00001   0.00001   0.00000   1.90446
   A20        1.93401   0.00000  -0.00003   0.00003  -0.00000   1.93401
   A21        1.93762  -0.00011   0.00004  -0.00020  -0.00015   1.93747
   A22        2.15109   0.00018  -0.00011   0.00013   0.00002   2.15111
   A23        2.19440  -0.00006   0.00007   0.00006   0.00013   2.19454
   A24        1.90998   0.00001   0.00001   0.00007   0.00008   1.91006
   A25        1.92619  -0.00000  -0.00004  -0.00008  -0.00012   1.92607
   A26        1.88996  -0.00001   0.00003  -0.00005  -0.00002   1.88994
   A27        1.93603   0.00000  -0.00007   0.00005  -0.00002   1.93601
   A28        1.91763  -0.00000   0.00007  -0.00002   0.00005   1.91768
   A29        1.88336   0.00001   0.00000   0.00002   0.00003   1.88339
   A30        1.71310   0.00037  -0.00003   0.00008   0.00005   1.71314
    D1       -0.02931  -0.00000  -0.00018   0.00008  -0.00010  -0.02941
    D2       -3.10521   0.00000  -0.00018   0.00009  -0.00009  -3.10530
    D3       -1.44977   0.00000   0.00030   0.00012   0.00042  -1.44935
    D4        2.72525   0.00001   0.00003   0.00008   0.00011   2.72535
    D5        1.62638  -0.00000   0.00030   0.00012   0.00042   1.62680
    D6       -0.48179   0.00001   0.00003   0.00008   0.00011  -0.48168
    D7        1.05212  -0.00000  -0.00032  -0.00010  -0.00043   1.05170
    D8       -3.13812  -0.00000  -0.00030  -0.00010  -0.00040  -3.13852
    D9       -1.04822  -0.00000  -0.00033  -0.00010  -0.00042  -1.04864
   D10        1.11290  -0.00002  -0.00075  -0.00005  -0.00080   1.11210
   D11       -3.09643  -0.00004  -0.00042  -0.00027  -0.00069  -3.09712
   D12       -0.99010   0.00003  -0.00082  -0.00007  -0.00089  -0.99099
   D13       -0.95654  -0.00000  -0.00095  -0.00007  -0.00102  -0.95757
   D14        1.11731  -0.00003  -0.00062  -0.00029  -0.00091   1.11640
   D15       -3.05954   0.00004  -0.00102  -0.00009  -0.00111  -3.06065
   D16       -0.33599  -0.00019   0.00109  -0.00018   0.00091  -0.33508
   D17       -2.44633  -0.00010   0.00093  -0.00007   0.00086  -2.44547
   D18        1.76367  -0.00007   0.00074   0.00000   0.00074   1.76441
   D19       -0.51594  -0.00039  -0.00114   0.00012  -0.00102  -0.51696
   D20       -2.97187   0.00001  -0.00092  -0.00010  -0.00102  -2.97290
   D21       -0.83664   0.00002  -0.00103  -0.00004  -0.00107  -0.83772
   D22        1.22128   0.00002  -0.00103  -0.00009  -0.00112   1.22016
   D23        0.18248  -0.00001  -0.00111   0.00007  -0.00104   0.18144
   D24        2.31770  -0.00001  -0.00122   0.00013  -0.00109   2.31662
   D25       -1.90756  -0.00001  -0.00122   0.00009  -0.00113  -1.90869
   D26        0.58484  -0.00006   0.00038  -0.00005   0.00034   0.58518
   D27       -2.57099  -0.00004   0.00060  -0.00025   0.00035  -2.57063
         Item               Value     Threshold  Converged?
 Maximum Force            0.000395     0.000450     YES
 RMS     Force            0.000087     0.000300     YES
 Maximum Displacement     0.002079     0.001800     NO 
 RMS     Displacement     0.000667     0.001200     YES
 Predicted change in Energy=-8.528479D-08
 GradGradGradGradGradGradGradGradGradGradGradGradGradGradGradGradGradGrad

                          Input orientation:                          
 ---------------------------------------------------------------------
 Center     Atomic      Atomic             Coordinates (Angstroms)
 Number     Number       Type             X           Y           Z
 ---------------------------------------------------------------------
      1          6           0        0.047914    1.193661   -0.252938
      2          8           0        1.205718    1.488016   -0.324135
      3          8           0       -0.896832    1.980162    0.263428
      4          6           0       -0.542050   -0.092436   -0.827125
      5          1           0       -0.717779    0.117453   -1.884906
      6          6           0       -1.834665   -0.562083   -0.185176
      7          1           0       -2.617609    0.173561   -0.358353
      8          1           0       -2.132920   -1.504810   -0.642948
      9          1           0       -1.712277   -0.701501    0.885557
     10          8           0        0.465313   -1.098964   -0.846649
     11          6           0       -0.428125    3.226252    0.779836
     12          1           0        0.047304    3.806598   -0.009382
     13          1           0       -1.305752    3.739181    1.160314
     14          1           0        0.292603    3.050157    1.576405
     15          6           0        1.045871   -1.394891    0.333475
     16          6           0        2.162377   -2.377670    0.151466
     17          1           0        2.497619   -2.727342    1.122585
     18          1           0        1.836786   -3.209767   -0.470190
     19          1           0        2.980787   -1.874105   -0.364023
     20          8           0        0.702579   -0.910021    1.374841
 ---------------------------------------------------------------------
                    Distance matrix (angstroms):
                    1          2          3          4          5
     1  C    0.000000
     2  O    1.196756   0.000000
     3  O    1.333327   2.237891   0.000000
     4  C    1.527021   2.409465   2.368721   0.000000
     5  H    2.099483   2.830952   2.849050   1.092627   0.000000
     6  C    2.575138   3.669625   2.746596   1.517736   2.144362
     7  H    2.855998   4.043117   2.571282   2.144399   2.437799
     8  H    3.491402   4.495014   3.807160   2.135320   2.485321
     9  H    2.825965   3.843440   2.871117   2.161868   3.055352
    10  O    2.404755   2.741110   3.545241   1.424171   1.989311
    11  C    2.329090   2.628623   1.427972   3.689036   4.104799
    12  H    2.624264   2.610904   2.074050   4.027221   4.208650
    13  H    3.210820   3.684945   2.016375   4.383428   4.768227
    14  H    2.617813   2.624141   2.069674   4.043450   4.647827
    15  C    2.835561   2.961276   3.894867   2.358999   3.212299
    16  C    4.170001   4.010601   5.325599   3.673400   4.320620
    17  H    4.823627   4.640177   5.866945   4.470312   5.241817
    18  H    4.757882   4.742230   5.911534   3.937514   4.426920
    19  H    4.245618   3.802146   5.503181   3.974820   4.467526
    20  O    2.739294   2.981652   3.485186   2.658233   3.701226
                    6          7          8          9         10
     6  C    0.000000
     7  H    1.088193   0.000000
     8  H    1.089608   1.769986   0.000000
     9  H    1.086686   1.769936   1.777238   0.000000
    10  O    2.452690   3.370781   2.637616   2.810768   0.000000
    11  C    4.154647   3.925332   5.226241   4.133699   4.706504
    12  H    4.760051   4.519126   5.776317   4.921382   4.994026
    13  H    4.537727   4.091572   5.606729   4.467707   5.529216
    14  H    4.547166   4.526303   5.617510   4.309495   4.807934
    15  C    3.043034   4.044719   3.327190   2.897061   1.348078
    16  C    4.402957   5.442147   4.454498   4.285018   2.347626
    17  H    5.016699   6.064155   5.104271   4.677974   3.264929
    18  H    4.535528   5.594734   4.323805   4.552505   2.545220
    19  H    4.994194   5.961125   5.134606   4.996129   2.676076
    20  O    2.998721   3.898944   3.530624   2.472733   2.242101
                   11         12         13         14         15
    11  C    0.000000
    12  H    1.088898   0.000000
    13  H    1.085399   1.789831   0.000000
    14  H    1.088568   1.774006   1.789588   0.000000
    15  C    4.871023   5.307559   5.707232   4.676616   0.000000
    16  C    6.205602   6.537934   7.103630   5.915050   1.498522
    17  H    6.642494   7.069495   7.502198   6.200608   2.122661
    18  H    6.936478   7.255617   7.798844   6.764592   2.136633
    19  H    6.240411   6.403240   7.225441   5.936325   2.111883
    20  O    4.329120   4.959028   5.068975   3.986442   1.198912
                   16         17         18         19         20
    16  C    0.000000
    17  H    1.085232   0.000000
    18  H    1.088509   1.790633   0.000000
    19  H    1.090460   1.780861   1.761819   0.000000
    20  O    2.404506   2.566798   3.159018   3.023795   0.000000
 Symmetry turned off by external request.
 Stoichiometry    C6H10O4
 Framework group  C1[X(C6H10O4)]
 Deg. of freedom    54
 Full point group                 C1      NOp   1
 Rotational constants (GHZ):           2.3844813           0.9251316           0.8085598
 Standard basis: def2TZVP (5D, 7F)
   370 basis functions,   590 primitive gaussians,   420 cartesian basis functions
    39 alpha electrons       39 beta electrons
       nuclear repulsion energy       579.5656350817 Hartrees.
 NAtoms=   20 NActive=   20 NUniq=   20 SFac= 1.00D+00 NAtFMM=   60 NAOKFM=F Big=F
 Integral buffers will be    131072 words long.
 Raffenetti 2 integral format.
 Two-electron integral symmetry is turned off.
 One-electron integrals computed using PRISM.
   1 Symmetry operations used in ECPInt.
 ECPInt:  NShTT=   11325 NPrTT=   34180 LenC2=   10868 LenP2D=   25284.
 LDataN:  DoStor=T MaxTD1= 6 Len=  172
 NBasis=   370 RedAO= T EigKep=  1.22D-04  NBF=   370
 NBsUse=   370 1.00D-06 EigRej= -1.00D+00 NBFU=   370
 Initial guess from the checkpoint file:  "/dev/shm/lme2acetoxprpnt_ts4_b_ts_ircf_opt.chk"
 B after Tr=    -0.000116    0.000087   -0.000246
         Rot=    1.000000    0.000004    0.000015    0.000005 Ang=   0.00 deg.
 Requested convergence on RMS density matrix=1.00D-08 within  32 cycles.
 Requested convergence on MAX density matrix=1.00D-06.
 Requested convergence on             energy=1.00D-06.
 No special actions if energy rises.
 SCF Done:  E(RM062X) =  -535.575022190     A.U. after    7 cycles
            NFock=  7  Conv=0.58D-08     -V/T= 2.0044
 QCSCF skips out because SCF is already converged.
   1 Symmetry operations used in ECPInt.
 ECPInt:  NShTT=   11325 NPrTT=   34180 LenC2=   10868 LenP2D=   25284.
 LDataN:  DoStor=T MaxTD1= 7 Len=  274
 Calling FoFJK, ICntrl=      2127 FMM=F ISym2X=0 I1Cent= 0 IOpClX= 0 NMat=1 NMatS=1 NMatT=0.
 -------------------------------------------------------------------
 Center     Atomic                   Forces (Hartrees/Bohr)
 Number     Number              X              Y              Z
 -------------------------------------------------------------------
      1        6          -0.000039265    0.000031172    0.000013635
      2        8           0.000005503   -0.000000646    0.000000132
      3        8           0.000027513   -0.000023530   -0.000006862
      4        6          -0.000006032   -0.000029480    0.000012073
      5        1           0.000002046   -0.000003262   -0.000001012
      6        6           0.000015132    0.000002594    0.000003933
      7        1          -0.000003077    0.000002779    0.000002094
      8        1          -0.000001612    0.000000961   -0.000000392
      9        1           0.000012875    0.000001556   -0.000012751
     10        8          -0.000030297    0.000004606   -0.000000441
     11        6           0.000000258    0.000009608    0.000001567
     12        1          -0.000000307   -0.000001461   -0.000000271
     13        1           0.000000305   -0.000000437    0.000000751
     14        1          -0.000000406   -0.000001324    0.000000309
     15        6           0.000034149    0.000006287    0.000021963
     16        6          -0.000008067   -0.000014175   -0.000005570
     17        1           0.000004686   -0.000000361   -0.000002799
     18        1           0.000004271    0.000004777   -0.000003702
     19        1           0.000002718    0.000005443    0.000001448
     20        8          -0.000020392    0.000004895   -0.000024107
 -------------------------------------------------------------------
 Cartesian Forces:  Max     0.000039265 RMS     0.000012865

 GradGradGradGradGradGradGradGradGradGradGradGradGradGradGradGradGradGrad
 Berny optimization.
 Using GEDIIS/GDIIS optimizer.
 FormGI is forming the generalized inverse of G from B-inverse, IUseBI=4.
 Internal  Forces:  Max     0.000057652 RMS     0.000013873
 Search for a local minimum.
 Step number  49 out of a maximum of   86
 All quantities printed in internal units (Hartrees-Bohrs-Radians)
 Mixed Optimization -- En-DIIS/RFO-DIIS
 Swapping is turned off.
 Update second derivatives using D2CorX and points   32   33   34   35   36
                                                     37   38   39   40   41
                                                     42   43   44   45   46
                                                     47   48   49
 DE= -1.33D-07 DEPred=-8.53D-08 R= 1.55D+00
 Trust test= 1.55D+00 RLast= 5.35D-03 DXMaxT set to 7.25D-01
 ITU=  0  0  1  1  1  1  1  1  1  1  1  1  1  1  1  1  1  1  1  1
 ITU=  1  1  1  1 -1  1  0  1  1  1  1  1 -1  1  0 -1  0  1  1 -1
 ITU=  1  1  1  1 -1  0 -1 -1  0
     Eigenvalues ---    0.00140   0.00257   0.00395   0.00969   0.01337
     Eigenvalues ---    0.02256   0.02543   0.03989   0.04762   0.06068
     Eigenvalues ---    0.06317   0.06393   0.07196   0.07526   0.07651
     Eigenvalues ---    0.08566   0.10300   0.10665   0.11364   0.13429
     Eigenvalues ---    0.15277   0.15568   0.15947   0.16013   0.16029
     Eigenvalues ---    0.16092   0.16724   0.21460   0.24219   0.25186
     Eigenvalues ---    0.26702   0.27334   0.30535   0.31936   0.33153
     Eigenvalues ---    0.34530   0.34959   0.34963   0.35036   0.35216
     Eigenvalues ---    0.35260   0.35392   0.35479   0.35978   0.37647
     Eigenvalues ---    0.38270   0.41366   0.49300   0.57236   0.95320
     Eigenvalues ---    1.04397   1.84511   3.25229  13.67214
 En-DIIS/RFO-DIIS/Sim-DIIS IScMMF=       -3 using points:    49   48   47   46   45   44   43   42   41   40
 RFO step:  Lambda=-3.87372376D-08.
 DIIS inversion failure, remove point  10.
 DIIS inversion failure, remove point   9.
 DIIS inversion failure, remove point   8.
 DIIS inversion failure, remove point   7.
 DIIS inversion failure, remove point   6.
 RFO-DIIS uses    5 points instead of   10
 DidBck=F Rises=F RFO-DIIS coefs:    1.54417   -0.41293   -0.15500    0.16705   -0.14329
                  RFO-DIIS coefs:    0.00000    0.00000    0.00000    0.00000    0.00000
 Iteration  1 RMS(Cart)=  0.00039896 RMS(Int)=  0.00000006
 Iteration  2 RMS(Cart)=  0.00000012 RMS(Int)=  0.00000004
 Variable       Old X    -DE/DX   Delta X   Delta X   Delta X     New X
                                 (Linear)    (Quad)   (Total)
    R1        2.26154   0.00001   0.00002  -0.00000   0.00002   2.26156
    R2        2.51962  -0.00003  -0.00003  -0.00006  -0.00009   2.51953
    R3        2.88565   0.00001   0.00004   0.00004   0.00008   2.88573
    R4        2.69848   0.00001  -0.00002   0.00003   0.00001   2.69849
    R5        2.06477   0.00000  -0.00002   0.00001  -0.00000   2.06476
    R6        2.86810  -0.00002  -0.00002  -0.00008  -0.00009   2.86801
    R7        2.05639   0.00000  -0.00001   0.00002   0.00001   2.05639
    R8        2.05906  -0.00000   0.00001  -0.00001   0.00000   2.05906
    R9        2.05354  -0.00002   0.00005  -0.00009  -0.00004   2.05349
   R10        4.67279  -0.00002  -0.00072  -0.00004  -0.00075   4.67203
   R11        2.54750   0.00001   0.00006  -0.00002   0.00004   2.54754
   R12        2.05772  -0.00000  -0.00001   0.00000  -0.00000   2.05772
   R13        2.05111  -0.00000   0.00000  -0.00000  -0.00000   2.05110
   R14        2.05710   0.00000   0.00001  -0.00000   0.00000   2.05710
   R15        2.83180   0.00001  -0.00002   0.00003   0.00001   2.83181
   R16        2.26562  -0.00002  -0.00001  -0.00000  -0.00001   2.26560
   R17        2.05079   0.00000   0.00000  -0.00000   0.00000   2.05079
   R18        2.05698  -0.00000  -0.00001   0.00000  -0.00001   2.05697
   R19        2.06067   0.00000   0.00001   0.00000   0.00001   2.06068
    A1        2.16936  -0.00001   0.00004  -0.00008  -0.00003   2.16932
    A2        2.16344  -0.00001  -0.00004  -0.00001  -0.00005   2.16339
    A3        1.94839   0.00002  -0.00000   0.00009   0.00009   1.94848
    A4        2.00670  -0.00000   0.00003  -0.00003  -0.00000   2.00669
    A5        1.83835   0.00000   0.00002  -0.00003  -0.00001   1.83834
    A6        2.01598  -0.00000  -0.00004   0.00001  -0.00003   2.01595
    A7        1.90916   0.00000   0.00010  -0.00003   0.00007   1.90923
    A8        1.91375   0.00002   0.00006   0.00001   0.00007   1.91382
    A9        1.89986   0.00000  -0.00001   0.00005   0.00004   1.89990
   A10        1.93964  -0.00004   0.00007  -0.00022  -0.00014   1.93949
   A11        1.89768  -0.00000  -0.00000   0.00002   0.00002   1.89770
   A12        1.90135   0.00001  -0.00000   0.00002   0.00001   1.90137
   A13        1.91111   0.00001  -0.00012   0.00012   0.00000   1.91112
   A14        1.89207  -0.00006   0.00011   0.00018   0.00029   1.89236
   A15        1.92440  -0.00000   0.00002  -0.00002  -0.00000   1.92440
   A16        1.84808   0.00000   0.00000   0.00001   0.00002   1.84810
   A17        1.91855  -0.00000  -0.00001  -0.00002  -0.00003   1.91852
   A18        1.93397   0.00000   0.00000   0.00001   0.00001   1.93398
   A19        1.90446   0.00000  -0.00000   0.00001   0.00000   1.90447
   A20        1.93401   0.00000  -0.00001   0.00001  -0.00000   1.93401
   A21        1.93747   0.00001  -0.00006   0.00007   0.00001   1.93748
   A22        2.15111  -0.00004   0.00004  -0.00016  -0.00013   2.15098
   A23        2.19454   0.00003   0.00002   0.00009   0.00011   2.19465
   A24        1.91006   0.00001   0.00003   0.00002   0.00005   1.91011
   A25        1.92607   0.00000   0.00002   0.00000   0.00003   1.92610
   A26        1.88994  -0.00001  -0.00009   0.00001  -0.00008   1.88986
   A27        1.93601  -0.00000   0.00002  -0.00000   0.00002   1.93603
   A28        1.91768  -0.00000  -0.00002  -0.00001  -0.00003   1.91765
   A29        1.88339   0.00000   0.00004  -0.00003   0.00001   1.88340
   A30        1.71314  -0.00004  -0.00009   0.00012   0.00003   1.71317
    D1       -0.02941   0.00000  -0.00018   0.00017  -0.00001  -0.02942
    D2       -3.10530  -0.00000  -0.00022   0.00010  -0.00011  -3.10541
    D3       -1.44935   0.00000   0.00030   0.00001   0.00031  -1.44904
    D4        2.72535  -0.00000   0.00018   0.00006   0.00025   2.72560
    D5        1.62680   0.00000   0.00034   0.00008   0.00042   1.62722
    D6       -0.48168   0.00000   0.00023   0.00013   0.00036  -0.48132
    D7        1.05170  -0.00000  -0.00023  -0.00003  -0.00026   1.05144
    D8       -3.13852  -0.00000  -0.00022  -0.00002  -0.00024  -3.13876
    D9       -1.04864  -0.00000  -0.00023  -0.00001  -0.00025  -1.04889
   D10        1.11210  -0.00000  -0.00031  -0.00009  -0.00040   1.11170
   D11       -3.09712   0.00000  -0.00028  -0.00003  -0.00031  -3.09743
   D12       -0.99099  -0.00000  -0.00039   0.00002  -0.00037  -0.99136
   D13       -0.95757  -0.00000  -0.00038  -0.00003  -0.00042  -0.95798
   D14        1.11640   0.00000  -0.00036   0.00003  -0.00033   1.11607
   D15       -3.06065  -0.00000  -0.00047   0.00008  -0.00039  -3.06104
   D16       -0.33508   0.00002   0.00054  -0.00000   0.00054  -0.33454
   D17       -2.44547   0.00001   0.00042   0.00011   0.00053  -2.44494
   D18        1.76441   0.00000   0.00049   0.00000   0.00050   1.76490
   D19       -0.51696   0.00002  -0.00056   0.00006  -0.00050  -0.51745
   D20       -2.97290   0.00000   0.00021   0.00015   0.00036  -2.97254
   D21       -0.83772   0.00001   0.00027   0.00017   0.00044  -0.83728
   D22        1.22016   0.00001   0.00027   0.00014   0.00041   1.22058
   D23        0.18144  -0.00000   0.00035  -0.00004   0.00031   0.18175
   D24        2.31662   0.00000   0.00042  -0.00002   0.00039   2.31701
   D25       -1.90869   0.00000   0.00042  -0.00005   0.00037  -1.90832
   D26        0.58518  -0.00002   0.00016  -0.00016   0.00001   0.58519
   D27       -2.57063  -0.00001   0.00000   0.00006   0.00006  -2.57057
         Item               Value     Threshold  Converged?
 Maximum Force            0.000058     0.000450     YES
 RMS     Force            0.000014     0.000300     YES
 Maximum Displacement     0.001018     0.001800     YES
[...]
 00108483,0.00071641,-0.00018629,-0.06515478,-0.06158732,-0.03118683,0.
 00803968,0.01980285,0.01099820,0.07129132,0.00072260,0.00099059,0.0014
 3745,-0.00124426,-0.00050658,-0.00031021,-0.00058538,-0.00056599,-0.00
 032259,-0.00152872,-0.01071569,-0.00437852,0.00006162,0.00011622,0.000
 20093,-0.06465529,-0.25111706,-0.09962895,-0.00682768,-0.01683222,-0.0
 0862224,0.07150249,0.27120862,0.00294649,-0.00102863,-0.00205022,0.000
 84421,0.00125981,0.00069294,-0.00046188,0.00015257,0.00061693,0.004501
 42,0.01483385,0.00577742,-0.00077690,0.00008973,0.00074469,-0.03165853
 ,-0.10212280,-0.09901301,0.00247395,0.00553937,0.00135096,0.03171210,0
 .10944229,0.10184262,0.00136044,0.00121885,0.00078412,-0.00054702,0.00
 000563,-0.00031060,-0.00006421,-0.00013191,0.00005941,0.00403005,-0.00
 578323,0.03113470,-0.00479140,-0.00255012,0.00229144,-0.05030766,0.005
 28345,-0.03619110,-0.00223165,0.00122774,-0.02287131,-0.00203546,0.001
 94149,-0.00738661,0.05576896,-0.00034962,0.00099496,0.00186839,0.00036
 612,-0.00012824,-0.00025947,0.00052744,-0.00007969,-0.00059675,0.00189
 756,-0.00359524,0.01158805,-0.00236969,0.00015867,0.00076112,0.0034919
 6,-0.05319996,0.03311077,0.00121417,-0.00258360,0.02183561,-0.00296596
 ,0.00547705,-0.02846418,-0.00260155,0.05282745,0.00007338,-0.00146114,
 -0.00043693,0.00005228,0.00029916,0.00017838,-0.00044653,0.00029443,0.
 00049351,-0.00105486,0.00313895,-0.01332851,0.00213923,0.00055151,0.00
 055026,-0.03146856,0.03472874,-0.32048866,-0.00032395,-0.00012496,-0.0
 0223909,-0.00125558,0.00208639,-0.01027060,0.03508178,-0.03897260,0.34
 600903,-0.00879541,-0.00006098,0.00002839,0.00752074,-0.00227103,0.000
 60286,0.00263309,0.00338395,0.00083966,-0.13406596,0.07108947,0.014628
 45,-0.01433552,0.01756308,-0.00200570,-0.03471008,0.03448186,-0.002114
 31,-0.00721467,-0.00349786,0.00590497,0.00360936,0.00104008,-0.0014453
 1,0.00112268,-0.00031942,0.00040533,0.30402559,0.03213190,-0.03244447,
 0.00213519,0.00037153,0.00054708,-0.00319734,-0.00248701,-0.01244229,-
 0.00571850,0.06318571,-0.13915403,-0.01632852,0.01439000,-0.01333306,0
 .00114097,0.00320024,0.00178583,-0.00372948,-0.00094471,0.00106689,-0.
 00034434,0.00003182,0.00164666,0.00020109,0.00142829,0.00050701,-0.000
 77109,-0.18791390,0.27545158,0.00584497,-0.01585031,-0.00675337,0.0034
 5641,0.00342558,0.00312429,-0.00135923,0.00099687,0.00168778,0.0026171
 9,-0.00419956,-0.08970593,-0.02845970,0.03077034,0.00250004,0.00918544
 ,-0.00912203,0.00335004,0.00147599,0.00053515,0.00073392,-0.00006086,0
 .00012617,0.00034203,-0.00327052,-0.00091135,0.00108211,0.09192896,-0.
 01946511,0.40918641,0.01853535,0.02610711,0.00998665,-0.00526029,0.003
 69497,0.00161885,-0.10990506,-0.06254218,-0.02257854,-0.00331569,0.001
 09273,0.00188069,0.00018800,0.00015794,0.00013680,-0.00047343,-0.00005
 838,-0.00016986,0.00020955,-0.00027286,-0.00003408,0.00016111,-0.00002
 104,-0.00001117,0.00007809,-0.00001430,-0.00001839,-0.00071575,0.00230
 271,-0.00031193,0.61310035,0.02032383,-0.04985839,-0.02760113,-0.01680
 133,-0.00037782,0.00583203,-0.03670013,-0.17782238,-0.04554004,0.00163
 486,0.00162578,-0.00193346,-0.00032234,-0.00062534,-0.00056939,0.00032
 809,0.00085818,0.00042686,-0.00060107,-0.00014686,-0.00013886,0.000059
 13,0.00048502,0.00001691,-0.00009465,-0.00023274,0.00012515,-0.0007986
 7,0.00179908,-0.00073511,-0.05501638,0.50473861,0.00696094,-0.02932010
 ,-0.01270574,-0.00795067,0.00247648,-0.00370427,-0.01116997,-0.0431384
 6,-0.08680988,0.00316721,-0.00164230,0.00562000,0.00016535,0.00096417,
 0.00019041,-0.00038096,0.00030813,0.00022665,-0.00035184,-0.00007759,-
 0.00007262,-0.00001501,0.00026733,0.00008060,0.00001437,-0.00024430,0.
 00005353,-0.00085616,0.00001675,-0.00094920,-0.02795863,-0.03534524,0.
 58424825,-0.00008848,0.00235446,0.00059884,0.00030657,-0.00027561,-0.0
 0037116,-0.00569820,-0.01269560,0.00353894,-0.00011542,-0.00011043,0.0
 0023964,0.00001778,0.00001271,0.00000232,-0.00000869,-0.00011703,-0.00
 009579,0.00005035,0.00000458,0.00004861,-0.00002038,-0.00005813,-0.000
 00588,-0.00000848,0.00004193,-0.00002310,0.00007734,-0.00014835,0.0000
 4971,-0.10000141,-0.05883169,0.08631815,0.10386956,-0.00906180,0.00222
 250,0.00395228,0.00375343,0.00123986,-0.00014402,-0.01487229,-0.033470
 37,0.01397182,-0.00022157,0.00031446,-0.00094851,-0.00004596,-0.000284
 05,-0.00011466,0.00009405,0.00003048,-0.00007170,0.00011963,0.00000508
 ,0.00004595,0.00002616,-0.00006655,-0.00004780,0.00001957,0.00009401,-
 0.00002799,0.00029955,-0.00018317,0.00007470,-0.05522546,-0.11726323,0
 .09881655,0.07128777,0.13783930,-0.00060663,-0.00022216,0.00144047,0.0
 0022595,-0.00110693,-0.00038132,-0.00780055,-0.01289876,0.01508650,-0.
 00029497,0.00038190,-0.00085573,-0.00006712,-0.00022015,-0.00011569,0.
 00005921,0.00002676,-0.00003921,0.00002179,-0.00001196,0.00000577,0.00
 000224,-0.00001834,-0.00000098,-0.00000314,0.00000888,0.00000145,0.000
 09095,-0.00001153,0.00016870,0.08846701,0.10788262,-0.20607388,-0.0934
 3475,-0.10956596,0.21299651,-0.00325479,-0.00323872,-0.00093890,0.0014
 8779,0.00199140,0.00077788,0.01359104,-0.01159922,-0.00760744,0.000522
 21,-0.00017691,-0.00009936,-0.00001419,0.00001081,-0.00003096,0.000057
 26,0.00006447,0.00004284,-0.00003378,0.00000318,-0.00001408,-0.0000043
 2,0.00002115,-0.00000494,-0.00000396,-0.00000116,0.00001045,0.00008780
 ,-0.00020609,-0.00003269,-0.24478857,0.11197741,0.08290195,-0.00866903
 ,0.00570440,0.00199567,0.25494526,-0.00683636,-0.00341503,-0.00063642,
 0.00112903,0.00182367,0.00034598,0.02583809,-0.02839431,-0.01761540,0.
 00119199,0.00006095,-0.00031197,-0.00007991,-0.00011649,-0.00006912,0.
 00011811,-0.00000113,-0.00001270,-0.00002216,-0.00000921,-0.00005291,-
 0.00006166,-0.00002009,0.00003127,0.00001005,-0.00003222,0.00002471,0.
 00019054,-0.00079406,0.00006985,0.09926797,-0.10243936,-0.03870283,-0.
 01344592,0.01071233,0.00467473,-0.11199749,0.12381256,-0.00261956,-0.0
 0127510,-0.00006380,0.00034891,0.00020567,0.00070078,0.01012455,-0.011
 62140,-0.00698216,0.00053929,0.00000151,0.00010392,0.00001326,0.000000
 46,-0.00001504,0.00006265,-0.00004299,-0.00000442,-0.00000845,-0.00001
 831,0.00000401,-0.00003054,-0.00001386,-0.00000023,-0.00001636,0.00001
 523,0.00000445,0.00008099,-0.00043483,0.00005067,0.07688088,-0.0406943
 4,-0.08474877,0.01894301,-0.01138419,-0.00621911,-0.08555941,0.0537433
 4,0.08610061,-0.00063110,0.00204698,0.00173089,0.00063312,-0.00015861,
 -0.00004504,-0.00695392,-0.00770608,-0.00952223,-0.00006893,0.00016716
 ,-0.00017655,-0.00002021,0.00001547,0.00002493,-0.00004310,-0.00001215
 ,-0.00006286,0.00007647,0.00001571,0.00000863,0.00000978,-0.00005291,0
 .00003400,-0.00000965,-0.00002944,-0.00000416,0.00011899,-0.00019369,0
 .00017831,-0.16827677,0.03453891,-0.13104096,0.01034655,-0.00184769,0.
 01137188,-0.01392526,0.00487230,-0.01868588,0.17886025,-0.00666852,0.0
 0270400,0.00028545,0.00256415,0.00013208,-0.00055587,-0.02487498,-0.00
 780796,-0.03367947,0.00011166,-0.00022416,0.00108062,0.00008564,0.0001
 3099,0.00010879,-0.00008185,-0.00001846,-0.00013172,0.00011025,-0.0000
 1901,0.00002563,-0.00000139,-0.00005711,0.00001962,-0.00001131,-0.0000
 2335,-0.00000209,0.00029094,-0.00050240,0.00033908,0.04104969,-0.06055
 324,0.04591743,0.01188177,-0.00121718,0.01102540,0.00742249,-0.0013185
 6,0.01143588,-0.03173095,0.06846673,-0.00631860,0.00127468,0.00136149,
 0.00247651,0.00158249,0.00042677,-0.00705367,-0.00923143,-0.01011472,0
 .00017246,0.00003487,0.00013299,0.00003294,0.00006725,0.00003659,-0.00
 000883,0.00006061,0.00000638,0.00007119,0.00000181,0.00000661,0.000024
 32,-0.00002027,-0.00001434,0.00000649,0.00000474,-0.00000832,0.0001565
 5,-0.00021694,0.00008762,-0.12879062,0.03780020,-0.19577615,-0.0157283
 0,0.00554101,-0.01594504,0.00863834,-0.00125609,0.01121848,0.14631389,
 -0.03561450,0.20871788,0.00455210,0.00466839,0.00170509,-0.00270252,-0
 .00276064,-0.00126737,-0.00105384,-0.00337590,-0.00140363,-0.02844130,
 0.02160887,-0.03188510,-0.00165059,0.00164713,0.00131753,-0.00061597,-
 0.00091832,-0.00149757,0.00100335,-0.00036845,0.00029293,-0.00063578,-
 0.00018430,-0.00010805,-0.00109801,0.00059575,0.00032558,-0.13013930,0
 .05071813,-0.05709756,0.00055637,0.00104454,0.00041587,-0.00007303,-0.
 00016434,-0.00001678,0.00000837,-0.00019930,-0.00011053,-0.00005948,-0
 .00014512,-0.00007492,0.50301945,0.00861370,-0.00783379,0.00302796,-0.
 00228970,0.00135986,-0.00118707,-0.00211776,0.00317772,0.00199450,0.01
 990952,-0.01328346,0.03095526,0.00343338,-0.00397450,-0.00064255,-0.00
 055165,0.00108609,0.00020095,-0.00028600,0.00006582,-0.00014875,-0.000
 07624,-0.00009633,-0.00048073,0.00095500,0.00036167,-0.00033395,0.0486
 3242,-0.10713210,0.02240632,-0.00030352,-0.00132164,-0.00031789,0.0001
 3740,0.00008282,-0.00000232,-0.00010354,0.00016451,0.00007618,0.000077
 84,0.00005125,-0.00003623,-0.25216979,0.49882846,0.01139184,0.00564910
 ,0.01499180,-0.00508827,-0.00325386,-0.00850643,-0.00011649,-0.0091165
 4,-0.00598128,-0.03420448,0.03165548,0.00183400,0.00288177,-0.00512232
 ,0.00095832,0.00329060,-0.00689991,0.00374453,0.00300561,0.00086599,-0
 .00370559,-0.00170266,-0.00032540,-0.00040710,0.00377953,0.00041421,-0
 .00161545,-0.05254879,0.02609081,-0.20479764,0.00176554,0.00093367,0.0
 0105876,-0.00019067,-0.00015189,-0.00027338,-0.00013127,-0.00049889,-0
 .00029759,-0.00035368,-0.00084231,-0.00020479,-0.10449582,0.20124535,0
 .86856299,-0.00066403,-0.00067132,-0.00044087,0.00039594,0.00021802,-0
 .00010196,-0.00002113,0.00063663,0.00025531,0.00421137,-0.00003724,-0.
 00172764,-0.00041171,0.00055893,0.00003644,0.00035893,-0.00029312,0.00
 017082,0.00004967,-0.00000043,0.00007991,-0.00003469,-0.00002004,-0.00
 001068,-0.00006858,-0.00004063,0.00015522,-0.01784949,0.02313706,-0.00
 882847,-0.00006231,-0.00026117,-0.00002139,0.00001188,0.00002135,-0.00
 000394,-0.00000966,0.00003645,0.00001904,0.00000790,0.00000828,0.00001
 329,-0.15940401,0.06033830,0.00500458,0.51374271,0.00037411,0.00054100
 ,-0.00032373,-0.00041737,0.00008108,-0.00020557,-0.00015809,-0.0001565
 7,-0.00000086,0.00033085,0.00424282,-0.00031166,0.00012409,-0.00004884
 ,0.00005051,0.00088951,-0.00074540,0.00016631,0.00027175,0.00009135,0.
 00001863,-0.00004624,0.00000168,0.00009208,-0.00022506,-0.00003940,0.0
 0017218,0.02011626,-0.00523702,0.00508148,0.00003755,0.00004370,0.0000
 5535,-0.00000500,-0.00002272,-0.00000070,-0.00000309,-0.00000845,-0.00
 000388,0.00000073,-0.00000722,-0.00000345,0.06158903,-0.14641553,-0.00
 387180,0.02166731,0.53579253,-0.00098318,-0.00071245,-0.00123534,0.000
 57377,0.00017524,0.00062346,0.00016707,0.00029402,0.00033161,-0.001699
 94,-0.00084255,-0.00421992,-0.00096870,0.00108787,-0.00003267,-0.00031
 013,0.00069105,-0.00025249,-0.00023031,-0.00017840,0.00032671,0.000017
 06,-0.00000231,0.00008064,-0.00034002,-0.00011453,0.00015705,-0.032733
 82,0.02672023,-0.00210415,-0.00007453,0.00007520,-0.00003084,-0.000000
 57,-0.00000001,0.00001706,0.00001562,0.00001797,0.00001193,0.00002058,
 0.00006376,0.00001352,0.00618000,-0.00505547,-0.07818882,0.02884051,-0
 .01149241,0.61626789,-0.00041925,-0.00028510,-0.00031005,0.00021733,0.
 00010492,0.00009593,0.00004980,0.00020364,0.00013196,0.00038152,-0.000
 05634,-0.00093305,-0.00027028,0.00029290,-0.00001564,-0.00005549,0.000
 13900,-0.00007458,-0.00006506,-0.00003738,0.00006454,0.00000922,-0.000
 00960,0.00000269,-0.00003471,-0.00000602,0.00003118,-0.00489272,0.0053
 7206,-0.00002164,-0.00003193,-0.00003031,-0.00001016,0.00000293,0.0000
 0627,0.00000481,0.00000165,0.00001353,0.00000543,0.00000901,0.00001632
 ,0.00000374,-0.00768085,0.00585553,-0.02546076,-0.07291013,0.02786403,
 -0.07503536,0.07794763,0.00008950,0.00036046,0.00026848,-0.00012358,-0
 .00015614,-0.00014543,0.00001734,-0.00019010,-0.00011629,0.00022422,0.
 00088295,0.00065937,0.00020161,-0.00021627,0.00001279,0.00015257,-0.00
 026573,0.00007282,0.00009447,0.00004097,-0.00007166,-0.00001093,0.0000
 0095,-0.00000936,0.00002337,0.00002435,-0.00002076,0.00481800,-0.00307
 413,-0.00000882,0.00004066,0.00005904,0.00004124,-0.00000563,-0.000006
 70,-0.00000556,-0.00000092,-0.00000942,-0.00000674,-0.00000580,-0.0000
 1516,-0.00000589,0.00285134,-0.00674970,0.02199369,0.02805855,-0.07812
 444,0.07810068,-0.03324231,0.08023239,0.00000570,0.00000219,-0.0000394
 2,-0.00002646,0.00004281,0.00004505,-0.00002819,0.00008144,0.00003613,
 0.00052145,-0.00036793,0.00037844,0.00005890,-0.00005216,0.00002012,-0
 .00007482,0.00005791,-0.00000700,-0.00001639,-0.00000737,0.00000462,0.
 00001644,0.00000106,-0.00000169,-0.00000637,0.00000179,-0.00000094,0.0
 0082426,-0.00037477,0.00087410,-0.00001030,-0.00002518,-0.00001168,0.0
 0000198,0.00000143,0.00000020,-0.00000095,0.00000314,0.00000268,0.0000
 0146,0.00000253,0.00000210,0.00234260,-0.00299144,0.00290807,-0.080831
 36,0.08365005,-0.27851458,0.08502111,-0.08903310,0.29639408,0.00002054
 ,-0.00007738,0.00023125,0.00004194,0.00002057,-0.00003563,0.00002478,-
 0.00001859,-0.00006375,-0.00002742,-0.00038989,0.00024809,0.00004102,-
 0.00004962,-0.00001492,-0.00003832,0.00007938,0.00001142,-0.00004156,-
 0.00002271,-0.00003427,-0.00005675,-0.00000475,-0.00005969,0.00009262,
 0.00003058,-0.00002932,-0.00094472,-0.00117803,-0.00050978,-0.00000271
 ,0.00000013,-0.00000788,-0.00000172,0.00000244,-0.00000099,0.00000155,
 -0.00000067,-0.00000054,-0.00000524,-0.00000789,0.00000088,0.01256221,
 0.02034866,0.01580115,-0.06889362,-0.06243704,-0.05215208,-0.00380072,
 -0.00718355,-0.00335658,0.07435629,-0.00039882,0.00006591,-0.00023863,
 0.00017526,-0.00001444,0.00015349,0.00009090,0.00004805,0.00004738,0.0
 0051445,0.00026185,0.00001654,0.00000049,0.00001389,0.00000416,0.00006
 313,-0.00006812,-0.00003361,0.00002276,0.00000415,0.00005285,0.0000421
 2,0.00001775,0.00002612,-0.00008093,-0.00001606,0.00006453,0.00066314,
 0.00171287,0.00119155,-0.00001601,0.00003156,0.00000306,-0.00000247,-0
 .00000132,0.00000265,0.00000536,0.00000425,0.00000249,0.00000163,0.000
 01131,0.00000499,-0.01208878,-0.01574803,-0.01321926,-0.06148051,-0.21
 008220,-0.11962644,0.00352473,0.01102462,0.00637542,0.06790077,0.22467
 288,-0.00013877,0.00004823,-0.00012331,0.00002707,0.00000088,0.0000100
 8,0.00000271,0.00008674,0.00005965,0.00054905,0.00010806,0.00010429,-0
 .00000131,0.00001238,-0.00000057,0.00003107,-0.00004797,-0.00002337,0.
 00001131,0.00002143,0.00000970,0.00001541,-0.00000466,0.00003630,-0.00
 000903,-0.00003054,0.00000887,-0.00143411,0.00120619,-0.00042400,-0.00
 001899,-0.00001746,-0.00000153,0.00000272,0.00000168,0.00000062,0.0000
 0172,0.00000455,0.00000337,0.00000179,0.00000596,0.00000066,0.00087352
 ,-0.00304196,-0.00569251,-0.05175593,-0.12157230,-0.13620984,-0.006769
 96,-0.02220684,-0.01237432,0.05305833,0.13369513,0.14399520,-0.0005853
 2,-0.00007475,0.00010893,0.00036055,0.00003748,-0.00015066,0.00019911,
 -0.00005962,-0.00010917,0.00038858,0.00084240,-0.00023378,-0.00004721,
 0.00007885,-0.00000077,0.00017628,-0.00015321,0.00003985,0.00004884,0.
 00002420,-0.00003365,0.00000277,-0.00000124,0.00000947,0.00002946,-0.0
 0000911,-0.00000358,0.00121599,0.00143923,-0.00099921,0.00001049,0.000
 01639,0.00003242,-0.00000670,0.00000296,-0.00000347,0.00000379,-0.0000
 0046,-0.00000066,-0.00000797,-0.00000785,0.00000433,-0.02060633,-0.015
 33240,0.01372702,-0.20157301,-0.09594767,0.09736201,0.00988443,0.00558
 766,-0.00497554,-0.00664017,-0.00335631,0.00398681,0.21710331,0.000830
 25,0.00036997,-0.00012555,-0.00075132,0.00002757,0.00011183,-0.0002657
 0,-0.00000006,0.00009785,-0.00054586,-0.00030290,-0.00000185,0.0000119
 5,-0.00005092,0.00001071,-0.00009426,0.00001633,-0.00004597,-0.0000024
 4,-0.00000185,0.00000990,-0.00000388,-0.00000692,0.00002151,-0.0000355
 6,-0.00000159,-0.00001434,-0.00053191,-0.00104322,0.00078518,0.0000010
 4,-0.00000629,-0.00002816,0.00000897,-0.00000685,0.00000457,-0.0000064
 8,-0.00000313,-0.00000023,0.00001037,0.00000746,-0.00000999,0.01801578
 ,0.01482932,-0.01176110,-0.09352720,-0.10117364,0.06229330,-0.00712615
 ,-0.00518920,0.00293797,-0.01889092,-0.01095190,0.01299919,0.10288533,
 0.10903940,0.00006157,0.00003415,-0.00007999,-0.00006237,-0.00004731,-
 0.00008823,-0.00005088,0.00004596,0.00006547,0.00020311,-0.00029701,0.
 00005639,-0.00002434,0.00002195,-0.00000088,-0.00005307,0.00007578,-0.
 00005884,-0.00002975,-0.00000088,0.00001517,0.00001258,-0.00000562,0.0
 0000440,0.00000680,0.00000046,-0.00000382,-0.00123118,0.00092414,-0.00
 066799,0.00000218,-0.00001053,0.00001082,0.00000404,0.00000091,0.00000
 041,-0.00000312,0.00000344,-0.00000080,0.00000648,0.00000312,-0.000005
 28,0.00421314,0.00009573,-0.00492349,0.09759663,0.06364203,-0.10463339
 ,0.02233984,0.01168544,-0.01089092,-0.01535277,-0.00813108,0.00928913,
 -0.10813856,-0.06609826,0.11094552,-0.00239890,-0.00201622,0.00175658,
 0.00194042,0.00017901,0.00056694,0.00101138,-0.00026895,-0.00105634,-0
 .00309317,-0.00283193,0.00209037,0.00056301,-0.00098203,-0.00044885,-0
 .00338898,0.00071491,0.00180677,-0.00025287,0.00005145,-0.00191461,-0.
 00028419,-0.00009610,-0.00059472,-0.00128151,0.00054141,-0.00364643,0.
 03325203,-0.00463691,-0.01378539,-0.00000539,-0.00046556,-0.00021263,0
 .00000857,0.00010153,-0.00000715,-0.00000316,-0.00002412,0.00001390,-0
 .00006044,-0.00001133,0.00006002,-0.16754085,0.10492887,0.16364523,0.0
 0312397,0.02597434,0.03135204,0.00165764,-0.00158656,0.00053306,-0.006
 68799,0.00441909,0.00156658,0.00004311,0.00001802,0.00049967,0.1433973
 3,-0.00606296,0.00003339,-0.00241324,0.00279652,-0.00323112,0.00584994
 ,0.00134129,-0.00003848,0.00035769,0.00110113,-0.00659313,0.00027037,-
 0.00067845,0.00174622,0.00038797,-0.00105035,0.00169091,0.00019149,-0.
 00053926,-0.00011166,0.00028476,0.00047476,0.00004001,0.00042727,-0.00
 059913,-0.00051307,0.00024317,-0.00717555,0.03082293,-0.01550997,-0.00
 028224,0.00100632,-0.00004963,-0.00003371,-0.00001870,0.00005686,0.000
 13293,-0.00001681,0.00001511,-0.00000976,0.00026001,0.00002215,0.10963
 600,-0.21745245,-0.23378503,0.02165079,0.00126726,-0.03149475,-0.00259
 974,0.00137127,-0.00030579,0.00187851,-0.00098701,-0.00126869,0.004028
 13,-0.00555158,-0.00194242,-0.12400889,0.19627570,-0.00352052,-0.00447
 294,-0.00701765,0.00192835,0.00321488,0.00212296,-0.00047177,0.0040860
 3,0.00310727,0.01661430,-0.01357335,0.00050639,-0.00059361,0.00093574,
 0.00047056,-0.00123254,0.00271148,-0.00091114,-0.00114773,-0.00042793,
 0.00115792,0.00052950,0.00009137,0.00018864,-0.00275360,-0.00001550,-0
 .00014632,-0.02112199,-0.00784291,-0.11778542,-0.00076155,-0.00048192,
 -0.00060447,0.00010228,0.00005040,0.00018665,0.00003867,0.00023733,0.0
 0013100,0.00019851,0.00051267,0.00005755,0.18029106,-0.24576390,-0.579
 46440,0.01155048,-0.01514224,-0.01240782,0.00092996,-0.00120406,0.0011
 7497,0.00226707,-0.00039134,0.00133159,-0.00062182,-0.00118655,0.00096
 632,-0.18222506,0.27866275,0.70693542\\0.00003996,-0.00003121,-0.00001
 379,-0.00000588,0.00000055,-0.00000010,-0.00002775,0.00002365,0.000006
 92,0.00000598,0.00002942,-0.00001203,-0.00000205,0.00000327,0.00000101
 ,-0.00001510,-0.00000262,-0.00000396,0.00000304,-0.00000274,-0.0000021
 0,0.00000160,-0.00000098,0.00000038,-0.00001286,-0.00000156,0.00001279
 ,0.00003024,-0.00000457,0.00000030,-0.00000019,-0.00000952,-0.00000153
 ,0.00000030,0.00000144,0.00000027,-0.00000034,0.00000043,-0.00000075,0
 .00000039,0.00000131,-0.00000032,-0.00003417,-0.00000626,-0.00002187,0
 .00000816,0.00001414,0.00000556,-0.00000469,0.00000037,0.00000281,-0.0
 0000429,-0.00000480,0.00000369,-0.00000273,-0.00000544,-0.00000145,0.0
 0002038,-0.00000488,0.00002417\\\@


 THOSE WHO TRY TO PASS CHEMISTRY OFF AS A NEW SCIENCE
 SHOW HOW LITTLE KNOWLEDGE THEY HAVE OF THE CHARACTER
 AND LITERATURE OF THE ANCIENTS.
   -- NICOLAS LEFEVRE
 "COURS DE CHYMIE" J.-N.LELOUP, PARIS, 1751
 Job cpu time:       0 days  2 hours 45 minutes  0.2 seconds.
 Elapsed time:       0 days  0 hours  4 minutes 35.8 seconds.
 File lengths (MBytes):  RWF=    230 Int=      0 D2E=      0 Chk=     14 Scr=      1
 Normal termination of Gaussian 16 at Tue Oct  8 09:29:15 2019.
