 Entering Gaussian System, Link 0=g16
 Initial command:
 /opt/gaussian/16.B.01/g16/l1.exe "/oasis/scratch/comet/mayes/temp_project/Gau-2512.inp" -scrdir="/oasis/scratch/comet/mayes/temp_project/"
 Entering Link 1 = /opt/gaussian/16.B.01/g16/l1.exe PID=      2513.
  
 Copyright (c) 1988-2017, Gaussian, Inc.  All Rights Reserved.
 ...
 
 ******************************************
 Gaussian 16:  ES64L-G16RevB.01 20-Dec-2017
                 3-Oct-2019 
 ******************************************
 %RWF=/oasis/scratch/comet/mayes/temp_project/lme2acetoxypropionate_18_t.rwf
 %NoSave
 %OldChk=/oasis/scratch/comet/mayes/temp_project/lme2acetoxypropionate_18_w.chk
 %Chk=/oasis/scratch/comet/mayes/temp_project/lme2acetoxypropionate_18_t.chk
 %cpu=0-23
 SetSPE:  set environment variable "MP_BIND" = "yes"
 SetSPE:  set environment variable "MP_BLIST" = "0,1,2,3,4,5,6,7,8,9,10,11,12,13,14,15,16,17,18,19,20,21,22,23"
 Will use up to   24 processors via shared memory.
 %mem=112GB
 Copying data from "/oasis/scratch/comet/mayes/temp_project/lme2acetoxypropionate_18_w.chk" to current chk file "/oasis/scratch/comet/mayes/temp_project/lme2acetoxypropionate_18_t.chk"
 IOpt=  2 FromEx=T IUOpen= 4 IOptOp= 5 NList=   0 IFRang= 0 IUIn= 4 IUOut= 2.
 ----------------------------------------------------------------------
 # m062x/Def2TZVP nosymm scf=xqc opt=ReadFC freq=NoRaman CPHF=Grid=Fine
  guess=read geom=allcheck
 ----------------------------------------------------------------------
 1/10=3,18=20,19=15,26=3,29=7,38=1/1,3;
 2/9=110,12=2,15=1,40=1/2;
 3/5=44,7=101,11=2,14=-4,25=1,30=1,71=1,74=-55,116=-2/1,2,3;
 4/5=1/1;
 5/5=2,8=3,13=1,38=6/2,8;
 6/7=2,8=2,9=2,10=2,28=1/1;
 7/30=1/1,2,3,16;
 1/18=20,19=15,26=3/3(2);
 2/9=110,15=1/2;
 99//99;
 2/9=110,15=1/2;
 3/5=44,7=101,11=2,14=-2,25=1,30=1,71=1,74=-55/1,2,3;
 4/5=5,16=3,69=1/1;
 5/5=2,8=3,13=1,38=5/2,8;
 7/30=1/1,2,3,16;
 1/18=20,19=15,26=3/3(-5);
 2/9=110,15=1/2;
 6/7=2,8=2,9=2,10=2,19=2,28=1/1;
 99/9=1/99;
 Structure from the checkpoint file:  "/oasis/scratch/comet/mayes/temp_project/lme2acetoxypropionate_18_t.chk"
 ----------------------------------------------------------------------
 obabel lme2acetoxypropionate_0.pdb -O lme2acetoxypropionate.pdb --conf
 ab --conf10000 --original
 ----------------------------------------------------------------------
 Charge =  0 Multiplicity = 1
 Redundant internal coordinates found in file.  (old form).
 C,0,-0.8772729982,0.2702989129,-0.372095231
 O,0,0.2518152133,0.2498544001,0.039048054
 O,0,-1.4746628479,1.3399480509,-0.8806641593
 C,0,-1.8377805864,-0.9079691944,-0.3248907004
 H,0,-2.4083364656,-0.9237613751,-1.2533225896
 C,0,-2.7519158541,-0.7944500871,0.8803981429
 H,0,-3.3394446527,0.1194707259,0.813302696
 H,0,-3.4273932897,-1.6473971758,0.9064837884
 H,0,-2.1643760932,-0.7761694857,1.798048322
 O,0,-1.1006877502,-2.1162332169,-0.1926682419
 C,0,-0.6952092617,2.541983837,-0.9068079276
 H,0,0.1915629527,2.3961311304,-1.5202956896
 H,0,-1.3376637135,3.3018938056,-1.3381495784
 H,0,-0.4003768712,2.8171573985,0.1039116952
 C,0,-0.3321238798,-2.4566564064,-1.2415687804
 C,0,0.4291085312,-3.717291413,-0.9790598128
 H,0,1.1301346554,-3.5421284134,-0.1627631505
 H,0,-0.2555881169,-4.5043507197,-0.6670196567
 H,0,0.9673780022,-4.0132480603,-1.8734110648
 O,0,-0.2861669737,-1.8000827135,-2.2494761155
 Recover connectivity data from disk.

 GradGradGradGradGradGradGradGradGradGradGradGradGradGradGradGradGradGrad
 Berny optimization.
 Initialization pass.
 Force constant matrix read from checkpoint file:
 "/oasis/scratch/comet/mayes/temp_project/lme2acetoxypropionate_18_t.chk"
                           ----------------------------
                           !    Initial Parameters    !
                           ! (Angstroms and Degrees)  !
 --------------------------                            --------------------------
 ! Name  Definition              Value          Derivative Info.                !
 --------------------------------------------------------------------------------
 ! R1    R(1,2)                  1.2018         D2E/DX2 =    0.868              !
 ! R2    R(1,3)                  1.3265         D2E/DX2 =    0.4519             !
 ! R3    R(1,4)                  1.5209         D2E/DX2 =    0.2852             !
 ! R4    R(3,11)                 1.4329         D2E/DX2 =    0.337              !
 ! R5    R(4,5)                  1.0898         D2E/DX2 =    0.3448             !
 ! R6    R(4,6)                  1.517          D2E/DX2 =    0.3007             !
 ! R7    R(4,10)                 1.4215         D2E/DX2 =    0.3469             !
 ! R8    R(6,7)                  1.0886         D2E/DX2 =    0.3508             !
 ! R9    R(6,8)                  1.0883         D2E/DX2 =    0.3496             !
 ! R10   R(6,9)                  1.0898         D2E/DX2 =    0.3469             !
 ! R11   R(10,15)                1.3442         D2E/DX2 =    0.4131             !
 ! R12   R(11,12)                1.0881         D2E/DX2 =    0.3499             !
 ! R13   R(11,13)                1.0846         D2E/DX2 =    0.3591             !
 ! R14   R(11,14)                1.0882         D2E/DX2 =    0.3494             !
 ! R15   R(15,16)                1.4959         D2E/DX2 =    0.3081             !
 ! R16   R(15,20)                1.2038         D2E/DX2 =    0.8594             !
 ! R17   R(16,17)                1.0902         D2E/DX2 =    0.3477             !
 ! R18   R(16,18)                1.0889         D2E/DX2 =    0.3503             !
 ! R19   R(16,19)                1.085          D2E/DX2 =    0.3584             !
 ! A1    A(2,1,3)              124.6092         D2E/DX2 =    0.2083             !
 ! A2    A(2,1,4)              124.7181         D2E/DX2 =    0.1587             !
 ! A3    A(3,1,4)              110.6213         D2E/DX2 =    0.1687             !
 ! A4    A(1,3,11)             116.0062         D2E/DX2 =    0.2969             !
 ! A5    A(1,4,5)              108.3855         D2E/DX2 =    0.033              !
 ! A6    A(1,4,6)              110.3194         D2E/DX2 =    0.0887             !
 ! A7    A(1,4,10)             109.5067         D2E/DX2 =    0.0742             !
 ! A8    A(5,4,6)              111.2516         D2E/DX2 =    0.0367             !
 ! A9    A(5,4,10)             109.7783         D2E/DX2 =    0.0296             !
 ! A10   A(6,4,10)             107.5878         D2E/DX2 =    0.083              !
 ! A11   A(4,6,7)              109.8219         D2E/DX2 =    0.1038             !
 ! A12   A(4,6,8)              109.5361         D2E/DX2 =    0.1047             !
 ! A13   A(4,6,9)              110.2065         D2E/DX2 =    0.1073             !
 ! A14   A(7,6,8)              108.9341         D2E/DX2 =    0.0485             !
 ! A15   A(7,6,9)              109.1965         D2E/DX2 =    0.0494             !
 ! A16   A(8,6,9)              109.122          D2E/DX2 =    0.05               !
 ! A17   A(4,10,15)            116.0508         D2E/DX2 =    0.3362             !
 ! A18   A(3,11,12)            109.9476         D2E/DX2 =    0.1436             !
 ! A19   A(3,11,13)            105.8314         D2E/DX2 =    0.1444             !
 ! A20   A(3,11,14)            110.0333         D2E/DX2 =    0.1442             !
 ! A21   A(12,11,13)           110.6365         D2E/DX2 =    0.0685             !
 ! A22   A(12,11,14)           109.6791         D2E/DX2 =    0.0697             !
 ! A23   A(13,11,14)           110.653          D2E/DX2 =    0.0685             !
 ! A24   A(10,15,16)           111.5596         D2E/DX2 =    0.1732             !
 ! A25   A(10,15,20)           122.4838         D2E/DX2 =    0.2219             !
 ! A26   A(16,15,20)           125.9563         D2E/DX2 =    0.1602             !
 ! A27   A(15,16,17)           108.8588         D2E/DX2 =    0.0994             !
 ! A28   A(15,16,18)           109.8434         D2E/DX2 =    0.1011             !
 ! A29   A(15,16,19)           109.7363         D2E/DX2 =    0.1056             !
 ! A30   A(17,16,18)           107.8132         D2E/DX2 =    0.0511             !
 ! A31   A(17,16,19)           110.0005         D2E/DX2 =    0.0523             !
 ! A32   A(18,16,19)           110.5493         D2E/DX2 =    0.0533             !
 ! D1    D(2,1,3,11)            -0.9854         D2E/DX2 =    0.0174             !
 ! D2    D(4,1,3,11)           176.5084         D2E/DX2 =    0.0175             !
 ! D3    D(2,1,4,5)           -140.6772         D2E/DX2 =    0.0163             !
 ! D4    D(2,1,4,6)             97.2914         D2E/DX2 =    0.0191             !
 ! D5    D(2,1,4,10)           -20.9388         D2E/DX2 =    0.0232             !
 ! D6    D(3,1,4,5)             41.8324         D2E/DX2 =    0.0173             !
 ! D7    D(3,1,4,6)            -80.199          D2E/DX2 =    0.0195             !
 ! D8    D(3,1,4,10)           161.5707         D2E/DX2 =    0.0231             !
 ! D9    D(1,3,11,12)           61.0815         D2E/DX2 =    0.024              !
 ! D10   D(1,3,11,13)         -179.4049         D2E/DX2 =    0.0239             !
 ! D11   D(1,3,11,14)          -59.8261         D2E/DX2 =    0.024              !
 ! D12   D(1,4,6,7)             60.886          D2E/DX2 =    0.0166             !
 ! D13   D(1,4,6,8)           -179.5177         D2E/DX2 =    0.017              !
 ! D14   D(1,4,6,9)            -59.4525         D2E/DX2 =    0.0171             !
 ! D15   D(5,4,6,7)            -59.4381         D2E/DX2 =    0.014              !
 ! D16   D(5,4,6,8)             60.1582         D2E/DX2 =    0.0141             !
 ! D17   D(5,4,6,9)           -179.7766         D2E/DX2 =    0.0137             !
 ! D18   D(10,4,6,7)          -179.7133         D2E/DX2 =    0.0186             !
 ! D19   D(10,4,6,8)           -60.117          D2E/DX2 =    0.0184             !
 ! D20   D(10,4,6,9)            59.9482         D2E/DX2 =    0.0191             !
 ! D21   D(1,4,10,15)          -66.6412         D2E/DX2 =    0.0309             !
 ! D22   D(5,4,10,15)           52.2389         D2E/DX2 =    0.0168             !
 ! D23   D(6,4,10,15)          173.4412         D2E/DX2 =    0.0218             !
 ! D24   D(4,10,15,16)         178.2204         D2E/DX2 =    0.0181             !
 ! D25   D(4,10,15,20)          -1.5914         D2E/DX2 =    0.0209             !
 ! D26   D(10,15,16,17)        -64.7019         D2E/DX2 =    0.0172             !
 ! D27   D(10,15,16,18)         53.134          D2E/DX2 =    0.0177             !
 ! D28   D(10,15,16,19)        174.8649         D2E/DX2 =    0.0173             !
 ! D29   D(20,15,16,17)        115.102          D2E/DX2 =    0.0155             !
 ! D30   D(20,15,16,18)       -127.0621         D2E/DX2 =    0.0154             !
 ! D31   D(20,15,16,19)         -5.3312         D2E/DX2 =    0.0185             !
 --------------------------------------------------------------------------------
 Trust Radius=3.00D-01 FncErr=1.00D-07 GrdErr=1.00D-06 EigMax=2.50D+02 EigMin=1.00D-04
 Number of steps in this run=     92 maximum allowed number of steps=    120.
 GradGradGradGradGradGradGradGradGradGradGradGradGradGradGradGradGradGrad

                          Input orientation:                          
 ---------------------------------------------------------------------
 Center     Atomic      Atomic             Coordinates (Angstroms)
 Number     Number       Type             X           Y           Z
 ---------------------------------------------------------------------
      1          6           0       -0.877273    0.270299   -0.372095
      2          8           0        0.251815    0.249854    0.039048
      3          8           0       -1.474663    1.339948   -0.880664
      4          6           0       -1.837781   -0.907969   -0.324891
      5          1           0       -2.408336   -0.923761   -1.253323
      6          6           0       -2.751916   -0.794450    0.880398
      7          1           0       -3.339445    0.119471    0.813303
      8          1           0       -3.427393   -1.647397    0.906484
      9          1           0       -2.164376   -0.776169    1.798048
     10          8           0       -1.100688   -2.116233   -0.192668
     11          6           0       -0.695209    2.541984   -0.906808
     12          1           0        0.191563    2.396131   -1.520296
     13          1           0       -1.337664    3.301894   -1.338150
     14          1           0       -0.400377    2.817157    0.103912
     15          6           0       -0.332124   -2.456656   -1.241569
     16          6           0        0.429109   -3.717291   -0.979060
     17          1           0        1.130135   -3.542128   -0.162763
     18          1           0       -0.255588   -4.504351   -0.667020
     19          1           0        0.967378   -4.013248   -1.873411
     20          8           0       -0.286167   -1.800083   -2.249476
 ---------------------------------------------------------------------
                    Distance matrix (angstroms):
                    1          2          3          4          5
     1  C    0.000000
     2  O    1.201789   0.000000
     3  O    1.326524   2.239398   0.000000
     4  C    1.520894   2.416489   2.343901   0.000000
     5  H    2.132252   3.181824   2.476893   1.089848   0.000000
     6  C    2.493334   3.289505   3.047683   1.516987   2.165071
     7  H    2.736824   3.676087   2.799375   2.146185   2.495243
     8  H    3.437359   4.229490   3.991401   2.142406   2.495374
     9  H    2.731530   3.159871   3.482694   2.151954   3.064664
    10  O    2.403673   2.735202   3.543781   1.421510   2.063231
    11  C    2.340858   2.654309   1.432872   3.680526   3.881529
    12  H    2.641957   2.653618   2.073876   4.057623   4.225215
    13  H    3.214932   3.706489   2.019231   4.358871   4.360011
    14  H    2.634483   2.649643   2.075001   4.015790   4.457405
    15  C    2.913667   3.050601   3.981187   2.346430   2.580807
    16  C    4.239801   4.099539   5.404600   3.668653   3.991256
    17  H    4.313712   3.897603   5.579877   3.971599   4.534969
    18  H    4.823977   4.833059   5.973911   3.943900   4.218850
    19  H    4.899537   4.726899   5.967061   4.462016   4.617888
    20  O    2.856649   3.119136   3.625736   2.628193   2.502771
                    6          7          8          9         10
     6  C    0.000000
     7  H    1.088551   0.000000
     8  H    1.088333   1.771508   0.000000
     9  H    1.089779   1.775579   1.774581   0.000000
    10  O    2.371737   3.319997   2.615626   2.624911   0.000000
    11  C    4.307660   3.977352   5.320129   4.526018   4.730052
    12  H    4.960565   4.805921   5.944428   5.159975   4.877903
    13  H    4.868480   4.331708   5.822442   5.210546   5.542958
    14  H    4.379084   4.052020   5.453366   4.346699   4.991667
    15  C    3.622301   4.461267   3.853534   3.926889   1.344162
    16  C    4.703137   5.668801   4.765747   4.805069   2.349910
    17  H    4.869111   5.859791   5.050184   4.727485   2.647761
    18  H    4.731756   5.751630   4.549554   4.859976   2.577268
    19  H    5.637133   6.545725   5.713062   5.810867   3.271155
    20  O    4.109419   4.731575   4.455412   4.578048   2.234693
                   11         12         13         14         15
    11  C    0.000000
    12  H    1.088120   0.000000
    13  H    1.084558   1.786650   0.000000
    14  H    1.088210   1.779243   1.786901   0.000000
    15  C    5.022977   4.888914   5.846481   5.443169   0.000000
    16  C    6.359861   6.141930   7.247026   6.675320   1.495856
    17  H    6.395460   6.163338   7.369681   6.546304   2.116665
    18  H    7.064106   6.967401   7.909409   7.363408   2.128149
    19  H    6.831514   6.465812   7.688369   7.241201   2.123890
    20  O    4.563290   4.285807   5.288320   5.183665   1.203777
                   16         17         18         19         20
    16  C    0.000000
    17  H    1.090165   0.000000
    18  H    1.088871   1.760788   0.000000
    19  H    1.084983   1.781786   1.786675   0.000000
    20  O    2.408582   3.065127   3.133396   2.571167   0.000000
 Symmetry turned off by external request.
 Stoichiometry    C6H10O4
 Framework group  C1[X(C6H10O4)]
 Deg. of freedom    54
 Full point group                 C1      NOp   1
 Rotational constants (GHZ):           2.2642069           0.8968949           0.7495152
 Standard basis: def2TZVP (5D, 7F)
   370 basis functions,   590 primitive gaussians,   420 cartesian basis functions
    39 alpha electrons       39 beta electrons
       nuclear repulsion energy       572.2788907551 Hartrees.
 NAtoms=   20 NActive=   20 NUniq=   20 SFac= 1.00D+00 NAtFMM=   60 NAOKFM=F Big=F
 Integral buffers will be    131072 words long.
 Raffenetti 2 integral format.
 Two-electron integral symmetry is turned off.
 One-electron integrals computed using PRISM.
   1 Symmetry operations used in ECPInt.
 ECPInt:  NShTT=   11325 NPrTT=   34180 LenC2=   10819 LenP2D=   25050.
 LDataN:  DoStor=T MaxTD1= 6 Len=  172
 NBasis=   370 RedAO= T EigKep=  1.47D-04  NBF=   370
 NBsUse=   370 1.00D-06 EigRej= -1.00D+00 NBFU=   370
 Initial guess from the checkpoint file:  "/oasis/scratch/comet/mayes/temp_project/lme2acetoxypropionate_18_t.chk"
 B after Tr=     0.000000    0.000000    0.000000
         Rot=    1.000000    0.000000    0.000000    0.000000 Ang=   0.00 deg.
 Requested convergence on RMS density matrix=1.00D-08 within  32 cycles.
 Requested convergence on MAX density matrix=1.00D-06.
 Requested convergence on             energy=1.00D-06.
 No special actions if energy rises.
 SCF Done:  E(RM062X) =  -535.578090628     A.U. after   11 cycles
            NFock= 11  Conv=0.60D-08     -V/T= 2.0045
 QCSCF skips out because SCF is already converged.

 **********************************************************************

            Population analysis using the SCF Density.

 **********************************************************************

 Alpha  occ. eigenvalues --  -19.67973 -19.67465 -19.61829 -19.61566 -10.67376
 Alpha  occ. eigenvalues --  -10.67314 -10.61659 -10.59520 -10.54553 -10.54532
 Alpha  occ. eigenvalues --   -1.25303  -1.23772  -1.14994  -1.14275  -0.91391
 Alpha  occ. eigenvalues --   -0.84983  -0.82885  -0.74744  -0.69318  -0.64386
 Alpha  occ. eigenvalues --   -0.62059  -0.58600  -0.57771  -0.56800  -0.55475
 Alpha  occ. eigenvalues --   -0.54040  -0.51488  -0.49177  -0.48783  -0.47278
 Alpha  occ. eigenvalues --   -0.46413  -0.45574  -0.45249  -0.43269  -0.42418
 Alpha  occ. eigenvalues --   -0.39424  -0.38261  -0.35850  -0.35387
 Alpha virt. eigenvalues --    0.04443   0.05216   0.06946   0.08543   0.09634
 Alpha virt. eigenvalues --    0.11289   0.11915   0.13305   0.14094   0.14832
 Alpha virt. eigenvalues --    0.15248   0.15445   0.16088   0.16823   0.17777
 Alpha virt. eigenvalues --    0.18832   0.21560   0.22215   0.22589   0.23180
 Alpha virt. eigenvalues --    0.24910   0.26062   0.26706   0.27319   0.29150
 Alpha virt. eigenvalues --    0.30966   0.32972   0.33957   0.34549   0.36100
 Alpha virt. eigenvalues --    0.36524   0.37529   0.39253   0.39746   0.41431
 Alpha virt. eigenvalues --    0.42538   0.42924   0.43852   0.44670   0.45389
 Alpha virt. eigenvalues --    0.45449   0.46270   0.47351   0.47845   0.48798
 Alpha virt. eigenvalues --    0.49596   0.50223   0.50588   0.51307   0.52347
 Alpha virt. eigenvalues --    0.53399   0.54987   0.56605   0.56884   0.59941
 Alpha virt. eigenvalues --    0.60550   0.62050   0.63384   0.64125   0.65823
 Alpha virt. eigenvalues --    0.67374   0.68229   0.70327   0.71345   0.72688
 Alpha virt. eigenvalues --    0.76182   0.79014   0.81008   0.82212   0.83919
 Alpha virt. eigenvalues --    0.85933   0.86362   0.88023   0.89473   0.90033
 Alpha virt. eigenvalues --    0.91067   0.92719   0.94018   0.94665   0.97158
 Alpha virt. eigenvalues --    0.99314   1.00399   1.02899   1.05275   1.06172
 Alpha virt. eigenvalues --    1.07304   1.09623   1.09936   1.11040   1.13167
 Alpha virt. eigenvalues --    1.14127   1.17284   1.19265   1.21898   1.23033
 Alpha virt. eigenvalues --    1.25711   1.29104   1.35304   1.37807   1.41015
 Alpha virt. eigenvalues --    1.43993   1.47981   1.49134   1.50026   1.51298
 Alpha virt. eigenvalues --    1.52795   1.54557   1.55305   1.56184   1.56782
 Alpha virt. eigenvalues --    1.57171   1.58324   1.58697   1.59706   1.61316
 Alpha virt. eigenvalues --    1.62049   1.63210   1.63344   1.64769   1.65683
 Alpha virt. eigenvalues --    1.67928   1.70032   1.72523   1.75896   1.76959
 Alpha virt. eigenvalues --    1.78092   1.79546   1.82540   1.85813   1.86548
 Alpha virt. eigenvalues --    1.88743   1.90239   1.94422   1.95710   1.96526
 Alpha virt. eigenvalues --    1.98286   2.01225   2.03953   2.05667   2.06714
 Alpha virt. eigenvalues --    2.08945   2.10286   2.11768   2.12020   2.13711
 Alpha virt. eigenvalues --    2.14245   2.15545   2.17298   2.20334   2.22838
 Alpha virt. eigenvalues --    2.22984   2.26765   2.28175   2.29739   2.31196
 Alpha virt. eigenvalues --    2.31800   2.33648   2.35235   2.36447   2.36807
 Alpha virt. eigenvalues --    2.37192   2.39655   2.40754   2.42618   2.44376
 Alpha virt. eigenvalues --    2.45929   2.47930   2.48708   2.53465   2.54927
 Alpha virt. eigenvalues --    2.55798   2.56751   2.58347   2.59634   2.60879
 Alpha virt. eigenvalues --    2.61186   2.64009   2.67195   2.68247   2.70930
 Alpha virt. eigenvalues --    2.72835   2.74625   2.76617   2.78124   2.80133
 Alpha virt. eigenvalues --    2.82830   2.84227   2.87114   2.90423   2.93001
 Alpha virt. eigenvalues --    2.96191   2.96453   2.99437   3.00502   3.01884
 Alpha virt. eigenvalues --    3.04180   3.05332   3.05826   3.07323   3.09327
 Alpha virt. eigenvalues --    3.09732   3.10966   3.13628   3.14539   3.15033
 Alpha virt. eigenvalues --    3.18976   3.20421   3.21125   3.22218   3.23612
 Alpha virt. eigenvalues --    3.24851   3.26369   3.27261   3.28932   3.31543
 Alpha virt. eigenvalues --    3.32140   3.32526   3.34621   3.35441   3.37238
 Alpha virt. eigenvalues --    3.38078   3.39408   3.41123   3.42305   3.43790
 Alpha virt. eigenvalues --    3.45494   3.47006   3.47766   3.49483   3.50252
 Alpha virt. eigenvalues --    3.53027   3.55276   3.57968   3.58802   3.61225
 Alpha virt. eigenvalues --    3.62154   3.65228   3.66493   3.71764   3.74829
 Alpha virt. eigenvalues --    3.76929   3.80486   3.83085   3.83787   3.89674
 Alpha virt. eigenvalues --    3.90570   3.90770   3.96052   4.00135   4.01016
 Alpha virt. eigenvalues --    4.06644   4.10895   4.16319   4.17509   4.19646
 Alpha virt. eigenvalues --    4.29837   4.33242   4.36562   4.37573   4.39634
 Alpha virt. eigenvalues --    4.41327   4.44144   4.47976   4.51216   4.54253
 Alpha virt. eigenvalues --    4.56296   4.57545   4.63000   4.69972   4.75110
 Alpha virt. eigenvalues --    4.77314   4.85692   4.89886   5.19018   5.19679
 Alpha virt. eigenvalues --    5.22713   5.24987   5.29758   5.34984   5.42119
 Alpha virt. eigenvalues --    5.47370   5.51806   5.53151   5.64492   5.65458
 Alpha virt. eigenvalues --    5.66751   5.72379   5.80943   5.85209   5.97437
 Alpha virt. eigenvalues --    6.01206   6.02736   6.09187   6.11940   6.18551
 Alpha virt. eigenvalues --    6.20135   6.23033   6.37481   6.38887   6.40555
 Alpha virt. eigenvalues --    6.42865   6.51051   6.54713   6.63725   6.64797
 Alpha virt. eigenvalues --    6.68046   6.68938   6.76647   6.77882   6.83036
 Alpha virt. eigenvalues --    6.84071   6.89990   6.92747   7.00604   7.04190
 Alpha virt. eigenvalues --    7.10747   7.14203   7.25507   7.30826   7.36418
 Alpha virt. eigenvalues --    7.40901  22.43504  22.44576  22.45508  22.72353
 Alpha virt. eigenvalues --   23.41505  23.49914  44.03350  44.07874  44.27022
 Alpha virt. eigenvalues --   44.47845
          Condensed to atoms (all electrons):
               1          2          3          4          5          6
     1  C    4.658374   0.621933   0.345275   0.221545  -0.095012  -0.016978
     2  O    0.621933   7.825520  -0.084207  -0.056412   0.003904  -0.008909
     3  O    0.345275  -0.084207   7.966933  -0.071749   0.009256  -0.009731
     4  C    0.221545  -0.056412  -0.071749   5.139226   0.481440   0.229983
     5  H   -0.095012   0.003904   0.009256   0.481440   0.515976  -0.037838
     6  C   -0.016978  -0.008909  -0.009731   0.229983  -0.037838   5.066567
     7  H   -0.009104   0.000329   0.005664  -0.034052  -0.001962   0.409594
     8  H    0.012550  -0.000441  -0.000002  -0.057977  -0.007639   0.425769
     9  H   -0.013806   0.004047   0.000651  -0.023084   0.007287   0.403095
    10  O   -0.047731   0.001171   0.002980   0.215740  -0.037092  -0.038463
    11  C   -0.051586   0.007212   0.206053   0.006525  -0.001096  -0.000888
    12  H   -0.009134   0.003338  -0.032469  -0.001234  -0.000075  -0.000131
    13  H    0.004676   0.001890  -0.030387   0.000809  -0.000297   0.000369
    14  H   -0.005975   0.003661  -0.036697  -0.000342   0.000109  -0.000300
    15  C    0.010490   0.016413   0.000746  -0.071801  -0.010845   0.004673
    16  C    0.001165  -0.001974  -0.000109   0.004079   0.000965   0.001047
    17  H   -0.000034   0.001121   0.000014  -0.000624   0.000041  -0.000110
    18  H    0.000192   0.000019   0.000000  -0.000239  -0.000232  -0.000223
    19  H   -0.000089   0.000025  -0.000000  -0.000338   0.000036  -0.000031
    20  O    0.012224  -0.006917  -0.001272   0.004430   0.007290   0.004766
               7          8          9         10         11         12
     1  C   -0.009104   0.012550  -0.013806  -0.047731  -0.051586  -0.009134
     2  O    0.000329  -0.000441   0.004047   0.001171   0.007212   0.003338
     3  O    0.005664  -0.000002   0.000651   0.002980   0.206053  -0.032469
     4  C   -0.034052  -0.057977  -0.023084   0.215740   0.006525  -0.001234
     5  H   -0.001962  -0.007639   0.007287  -0.037092  -0.001096  -0.000075
     6  C    0.409594   0.425769   0.403095  -0.038463  -0.000888  -0.000131
     7  H    0.511992  -0.019773  -0.022467   0.004159  -0.000417   0.000078
     8  H   -0.019773   0.514727  -0.023351   0.003169   0.000087   0.000005
     9  H   -0.022467  -0.023351   0.505487  -0.000097  -0.000112  -0.000016
    10  O    0.004159   0.003169  -0.000097   7.990948  -0.000211   0.000001
    11  C   -0.000417   0.000087  -0.000112  -0.000211   4.852619   0.423108
    12  H    0.000078   0.000005  -0.000016   0.000001   0.423108   0.518269
    13  H   -0.000136   0.000003  -0.000035   0.000002   0.395584  -0.024667
    14  H   -0.000017  -0.000011   0.000093  -0.000032   0.418485  -0.038995
    15  C    0.000128  -0.000605  -0.000810   0.327381  -0.000085   0.000216
    16  C    0.000044  -0.000146  -0.000163  -0.080561   0.000002   0.000016
    17  H   -0.000001  -0.000011   0.000026   0.002054  -0.000000  -0.000001
    18  H    0.000001   0.000035   0.000005   0.004044   0.000000  -0.000000
    19  H   -0.000001   0.000003   0.000006   0.005095   0.000001  -0.000000
    20  O    0.000095  -0.000069  -0.000098  -0.091623  -0.000337   0.000166
              13         14         15         16         17         18
     1  C    0.004676  -0.005975   0.010490   0.001165  -0.000034   0.000192
     2  O    0.001890   0.003661   0.016413  -0.001974   0.001121   0.000019
     3  O   -0.030387  -0.036697   0.000746  -0.000109   0.000014   0.000000
     4  C    0.000809  -0.000342  -0.071801   0.004079  -0.000624  -0.000239
     5  H   -0.000297   0.000109  -0.010845   0.000965   0.000041  -0.000232
     6  C    0.000369  -0.000300   0.004673   0.001047  -0.000110  -0.000223
     7  H   -0.000136  -0.000017   0.000128   0.000044  -0.000001   0.000001
     8  H    0.000003  -0.000011  -0.000605  -0.000146  -0.000011   0.000035
     9  H   -0.000035   0.000093  -0.000810  -0.000163   0.000026   0.000005
    10  O    0.000002  -0.000032   0.327381  -0.080561   0.002054   0.004044
    11  C    0.395584   0.418485  -0.000085   0.000002  -0.000000   0.000000
    12  H   -0.024667  -0.038995   0.000216   0.000016  -0.000001  -0.000000
    13  H    0.532402  -0.026382  -0.000030  -0.000000  -0.000000   0.000000
    14  H   -0.026382   0.535442  -0.000048  -0.000001  -0.000001  -0.000000
    15  C   -0.000030  -0.000048   4.495516   0.314511  -0.025017  -0.026791
    16  C   -0.000000  -0.000001   0.314511   5.095512   0.389515   0.385859
    17  H   -0.000000  -0.000001  -0.025017   0.389515   0.504155  -0.023632
    18  H    0.000000  -0.000000  -0.026791   0.385859  -0.023632   0.523607
    19  H   -0.000000  -0.000000  -0.053866   0.420922  -0.017271  -0.020564
    20  O   -0.000000   0.000035   0.625501  -0.074935   0.000726   0.002007
              19         20
     1  C   -0.000089   0.012224
     2  O    0.000025  -0.006917
     3  O   -0.000000  -0.001272
     4  C   -0.000338   0.004430
     5  H    0.000036   0.007290
     6  C   -0.000031   0.004766
     7  H   -0.000001   0.000095
     8  H    0.000003  -0.000069
     9  H    0.000006  -0.000098
    10  O    0.005095  -0.091623
    11  C    0.000001  -0.000337
    12  H   -0.000000   0.000166
    13  H   -0.000000  -0.000000
    14  H   -0.000000   0.000035
    15  C   -0.053866   0.625501
    16  C    0.420922  -0.074935
    17  H   -0.017271   0.000726
    18  H   -0.020564   0.002007
    19  H    0.502031   0.005852
    20  O    0.005852   7.855527
 Mulliken charges:
               1
     1  C    0.361024
     2  O   -0.331723
     3  O   -0.270948
     4  C    0.014077
     5  H    0.165785
     6  C   -0.432260
     7  H    0.155845
     8  H    0.153677
     9  H    0.163343
    10  O   -0.260934
    11  C   -0.254944
    12  H    0.161526
    13  H    0.146201
    14  H    0.150975
    15  C    0.394323
    16  C   -0.455749
    17  H    0.169051
    18  H    0.155913
    19  H    0.158189
    20  O   -0.343370
 Sum of Mulliken charges =  -0.00000
 Mulliken charges with hydrogens summed into heavy atoms:
               1
     1  C    0.361024
     2  O   -0.331723
     3  O   -0.270948
     4  C    0.179862
     6  C    0.040604
    10  O   -0.260934
    11  C    0.203758
    15  C    0.394323
    16  C    0.027404
    20  O   -0.343370
 Electronic spatial extent (au):  <R**2>=           2086.1367
 Charge=             -0.0000 electrons
 Dipole moment (field-independent basis, Debye):
    X=             -1.8159    Y=              0.1993    Z=              1.1015  Tot=              2.1332
 Quadrupole moment (field-independent basis, Debye-Ang):
   XX=            -55.2371   YY=            -45.5356   ZZ=            -64.8652
   XY=             -1.0902   XZ=             -1.4310   YZ=             -2.1558
 Traceless Quadrupole moment (field-independent basis, Debye-Ang):
   XX=             -0.0245   YY=              9.6770   ZZ=             -9.6526
   XY=             -1.0902   XZ=             -1.4310   YZ=             -2.1558
 Octapole moment (field-independent basis, Debye-Ang**2):
  XXX=            147.4178  YYY=            113.7179  ZZZ=            124.5851  XYY=             54.1545
  XXY=             35.6004  XXZ=             35.7710  XZZ=             54.3823  YZZ=             54.5651
  YYZ=             21.7111  XYZ=              0.8051
 Hexadecapole moment (field-independent basis, Debye-Ang**3):
 XXXX=           -684.8165 YYYY=          -1349.5691 ZZZZ=           -496.5455 XXXY=             -8.2283
 XXXZ=             -7.3415 YYYX=            -53.8516 YYYZ=            -96.4032 ZZZX=            -11.4256
 ZZZY=           -150.4971 XXYY=           -364.0930 XXZZ=           -190.4985 YYZZ=           -328.8350
 XXYZ=            -35.4985 YYXZ=             -0.8253 ZZXY=            -13.1462
 N-N= 5.722788907551D+02 E-N=-2.399181432580D+03  KE= 5.331955051045D+02
   1 Symmetry operations used in ECPInt.
 ECPInt:  NShTT=   11325 NPrTT=   34180 LenC2=   10819 LenP2D=   25050.
 LDataN:  DoStor=T MaxTD1= 7 Len=  274
 Calling FoFJK, ICntrl=      2127 FMM=F ISym2X=0 I1Cent= 0 IOpClX= 0 NMat=1 NMatS=1 NMatT=0.
 -------------------------------------------------------------------
 Center     Atomic                   Forces (Hartrees/Bohr)
 Number     Number              X              Y              Z
 -------------------------------------------------------------------
      1        6           0.011123019   -0.003149535    0.003237286
      2        8          -0.007188091    0.000361170   -0.001856232
      3        8          -0.003006683    0.006255444   -0.001698738
      4        6           0.001776051   -0.001522632   -0.000239196
      5        1           0.000283296    0.000232064   -0.000639322
      6        6           0.000132827   -0.000257488   -0.000152522
      7        1          -0.000100001    0.000299470   -0.000147227
      8        1          -0.000080307   -0.000218777    0.000472172
      9        1           0.000121946   -0.000310366   -0.000174723
     10        8          -0.003325682   -0.000051897    0.003480150
     11        6          -0.001089627   -0.003328320   -0.000100000
     12        1           0.000415163   -0.000262739    0.000487228
     13        1          -0.000572489    0.000120596   -0.000262801
     14        1           0.000754437   -0.000169647    0.000160899
     15        6           0.001072498    0.007544500   -0.008907792
     16        6           0.000537484   -0.001070146    0.000874405
     17        1          -0.000176603    0.000151315    0.000040340
     18        1           0.000005756   -0.000217732    0.000235600
     19        1          -0.000182949    0.000470656   -0.000297165
     20        8          -0.000500047   -0.004875940    0.005487638
 -------------------------------------------------------------------
 Cartesian Forces:  Max     0.011123019 RMS     0.002852964

 GradGradGradGradGradGradGradGradGradGradGradGradGradGradGradGradGradGrad
 Berny optimization.
 FormGI is forming the generalized inverse of G from B-inverse, IUseBI=4.
 Internal  Forces:  Max     0.007394359 RMS     0.001548518
 Search for a local minimum.
 Step number   1 out of a maximum of   92
 All quantities printed in internal units (Hartrees-Bohrs-Radians)
 Mixed Optimization -- RFO/linear search
 Second derivative matrix not updated -- first step.
 ITU=  0
     Eigenvalues ---    0.00030   0.00142   0.00263   0.00324   0.01076
     Eigenvalues ---    0.02160   0.03249   0.04280   0.04424   0.04612
     Eigenvalues ---    0.04891   0.05258   0.05446   0.05593   0.06044
     Eigenvalues ---    0.06865   0.08248   0.08398   0.12388   0.12410
     Eigenvalues ---    0.13059   0.13194   0.13236   0.13843   0.14404
     Eigenvalues ---    0.18021   0.18566   0.18782   0.18920   0.20737
     Eigenvalues ---    0.21219   0.24590   0.25344   0.25397   0.27378
     Eigenvalues ---    0.31225   0.32975   0.34407   0.34689   0.34776
     Eigenvalues ---    0.34780   0.34954   0.34993   0.35259   0.35451
     Eigenvalues ---    0.35796   0.35925   0.36651   0.38268   0.38566
     Eigenvalues ---    0.49113   0.49377   0.89414   0.90148
 RFO step:  Lambda=-6.98844195D-04 EMin= 2.98889746D-04
 Linear search not attempted -- first point.
 Iteration  1 RMS(Cart)=  0.05895489 RMS(Int)=  0.00153642
 Iteration  2 RMS(Cart)=  0.00203801 RMS(Int)=  0.00000858
 Iteration  3 RMS(Cart)=  0.00000199 RMS(Int)=  0.00000843
 Iteration  4 RMS(Cart)=  0.00000000 RMS(Int)=  0.00000843
 Variable       Old X    -DE/DX   Delta X   Delta X   Delta X     New X
                                 (Linear)    (Quad)   (Total)
    R1        2.27105  -0.00739   0.00000  -0.01073  -0.01073   2.26033
    R2        2.50677   0.00422   0.00000   0.01527   0.01527   2.52204
    R3        2.87407   0.00014   0.00000   0.00235   0.00235   2.87642
    R4        2.70774  -0.00333   0.00000  -0.00994  -0.00994   2.69780
    R5        2.05951   0.00039   0.00000   0.00121   0.00121   2.06073
    R6        2.86669  -0.00008   0.00000   0.00005   0.00005   2.86675
    R7        2.68626  -0.00290   0.00000  -0.00757  -0.00757   2.67869
    R8        2.05706   0.00031   0.00000   0.00056   0.00056   2.05762
    R9        2.05665   0.00023   0.00000   0.00069   0.00069   2.05734
   R10        2.05938  -0.00009   0.00000   0.00005   0.00005   2.05943
   R11        2.54010   0.00193   0.00000   0.01097   0.01097   2.55107
   R12        2.05625   0.00010   0.00000   0.00102   0.00102   2.05727
   R13        2.04952   0.00053   0.00000   0.00161   0.00161   2.05113
   R14        2.05642   0.00031   0.00000   0.00146   0.00146   2.05788
   R15        2.82676   0.00081   0.00000   0.00408   0.00408   2.83084
   R16        2.27481  -0.00727   0.00000  -0.01093  -0.01093   2.26388
   R17        2.06011  -0.00006   0.00000   0.00029   0.00029   2.06041
   R18        2.05767   0.00022   0.00000  -0.00032  -0.00032   2.05735
   R19        2.05032   0.00003   0.00000   0.00032   0.00032   2.05064
    A1        2.17484   0.00004   0.00000  -0.00080  -0.00080   2.17404
    A2        2.17674   0.00012   0.00000   0.00394   0.00394   2.18069
    A3        1.93071  -0.00017   0.00000  -0.00315  -0.00315   1.92755
    A4        2.02469  -0.00409   0.00000  -0.01555  -0.01555   2.00914
    A5        1.89168  -0.00031   0.00000  -0.00567  -0.00567   1.88601
    A6        1.92544   0.00038   0.00000   0.00197   0.00197   1.92741
    A7        1.91125  -0.00033   0.00000  -0.00492  -0.00492   1.90634
    A8        1.94171   0.00034   0.00000   0.00423   0.00423   1.94593
    A9        1.91599   0.00014   0.00000   0.00474   0.00472   1.92072
   A10        1.87776  -0.00023   0.00000  -0.00038  -0.00038   1.87738
   A11        1.91675  -0.00018   0.00000   0.00133   0.00133   1.91808
   A12        1.91177   0.00058   0.00000   0.00331   0.00331   1.91507
   A13        1.92347  -0.00043   0.00000  -0.00415  -0.00415   1.91932
   A14        1.90126  -0.00002   0.00000   0.00195   0.00194   1.90320
   A15        1.90584   0.00028   0.00000   0.00188   0.00189   1.90772
   A16        1.90454  -0.00024   0.00000  -0.00430  -0.00430   1.90024
   A17        2.02547  -0.00416   0.00000  -0.01268  -0.01268   2.01279
   A18        1.91895  -0.00020   0.00000   0.00046   0.00045   1.91940
   A19        1.84711  -0.00028   0.00000   0.00183   0.00182   1.84893
   A20        1.92044   0.00021   0.00000   0.00444   0.00444   1.92488
   A21        1.93097   0.00049   0.00000   0.00223   0.00223   1.93320
   A22        1.91426  -0.00066   0.00000  -0.01033  -0.01033   1.90393
   A23        1.93126   0.00046   0.00000   0.00195   0.00194   1.93320
   A24        1.94708  -0.00121   0.00000  -0.00710  -0.00710   1.93998
   A25        2.13775   0.00138   0.00000   0.00528   0.00527   2.14302
   A26        2.19835  -0.00017   0.00000   0.00182   0.00182   2.20017
   A27        1.89994  -0.00024   0.00000  -0.00777  -0.00779   1.89216
   A28        1.91713   0.00046   0.00000   0.00697   0.00698   1.92411
   A29        1.91526  -0.00085   0.00000  -0.00514  -0.00516   1.91010
   A30        1.88170  -0.00005   0.00000   0.00075   0.00077   1.88246
   A31        1.91987   0.00041   0.00000   0.00014   0.00010   1.91997
   A32        1.92945   0.00028   0.00000   0.00499   0.00499   1.93444
    D1       -0.01720   0.00086   0.00000   0.03604   0.03604   0.01884
    D2        3.08065   0.00059   0.00000   0.03594   0.03594   3.11659
    D3       -2.45528   0.00004   0.00000   0.03081   0.03080  -2.42448
    D4        1.69806  -0.00042   0.00000   0.02801   0.02801   1.72607
    D5       -0.36545  -0.00017   0.00000   0.03029   0.03029  -0.33516
    D6        0.73011   0.00031   0.00000   0.03105   0.03104   0.76115
    D7       -1.39974  -0.00015   0.00000   0.02825   0.02825  -1.37148
    D8        2.81994   0.00010   0.00000   0.03053   0.03054   2.85048
    D9        1.06607  -0.00038   0.00000  -0.01570  -0.01570   1.05037
   D10       -3.13121  -0.00006   0.00000  -0.01175  -0.01175   3.14022
   D11       -1.04416   0.00044   0.00000  -0.00600  -0.00599  -1.05016
   D12        1.06266   0.00005   0.00000   0.00010   0.00009   1.06276
   D13       -3.13317   0.00028   0.00000   0.00534   0.00535  -3.12783
   D14       -1.03764   0.00009   0.00000  -0.00046  -0.00046  -1.03810
   D15       -1.03739  -0.00004   0.00000   0.00314   0.00314  -1.03426
   D16        1.04996   0.00019   0.00000   0.00838   0.00839   1.05835
   D17       -3.13769  -0.00000   0.00000   0.00258   0.00258  -3.13512
   D18       -3.13659  -0.00027   0.00000  -0.00495  -0.00496  -3.14155
   D19       -1.04924  -0.00004   0.00000   0.00029   0.00029  -1.04894
   D20        1.04629  -0.00023   0.00000  -0.00551  -0.00551   1.04078
   D21       -1.16311   0.00006   0.00000   0.01400   0.01401  -1.14910
   D22        0.91174  -0.00043   0.00000   0.00695   0.00694   0.91868
   D23        3.02712  -0.00007   0.00000   0.01465   0.01465   3.04177
   D24        3.11053  -0.00117   0.00000  -0.06900  -0.06900   3.04154
   D25       -0.02777  -0.00138   0.00000  -0.06773  -0.06773  -0.09550
   D26       -1.12926  -0.00020   0.00000  -0.05428  -0.05426  -1.18352
   D27        0.92736  -0.00014   0.00000  -0.05393  -0.05393   0.87343
   D28        3.05197  -0.00004   0.00000  -0.04655  -0.04656   3.00540
   D29        2.00891   0.00003   0.00000  -0.05560  -0.05558   1.95333
   D30       -2.21765   0.00009   0.00000  -0.05524  -0.05524  -2.27290
   D31       -0.09305   0.00019   0.00000  -0.04786  -0.04788  -0.14092
         Item               Value     Threshold  Converged?
 Maximum Force            0.007394     0.000450     NO 
 RMS     Force            0.001549     0.000300     NO 
 Maximum Displacement     0.237603     0.001800     NO 
 RMS     Displacement     0.059122     0.001200     NO 
 Predicted change in Energy=-3.621875D-04
 GradGradGradGradGradGradGradGradGradGradGradGradGradGradGradGradGradGrad

                          Input orientation:                          
 ---------------------------------------------------------------------
 Center     Atomic      Atomic             Coordinates (Angstroms)
 Number     Number       Type             X           Y           Z
 ---------------------------------------------------------------------
      1          6           0       -0.887927    0.249581   -0.371851
      2          8           0        0.244203    0.206969    0.011751
      3          8           0       -1.486021    1.344437   -0.845925
      4          6           0       -1.866563   -0.915558   -0.331525
      5          1           0       -2.431886   -0.914665   -1.264037
      6          6           0       -2.781136   -0.797546    0.873036
      7          1           0       -3.356863    0.124642    0.812279
      8          1           0       -3.466397   -1.643146    0.898356
      9          1           0       -2.191197   -0.794261    1.789353
     10          8           0       -1.143667   -2.128048   -0.202653
     11          6           0       -0.663700    2.510327   -0.896598
     12          1           0        0.195546    2.331640   -1.540760
     13          1           0       -1.290001    3.299413   -1.300581
     14          1           0       -0.312937    2.768652    0.101458
     15          6           0       -0.364944   -2.450912   -1.257054
     16          6           0        0.458215   -3.668736   -0.968311
     17          1           0        1.188387   -3.416394   -0.198916
     18          1           0       -0.172846   -4.466770   -0.580783
     19          1           0        0.966732   -3.983934   -1.873639
     20          8           0       -0.355998   -1.818690   -2.274600
 ---------------------------------------------------------------------
                    Distance matrix (angstroms):
                    1          2          3          4          5
     1  C    0.000000
     2  O    1.196113   0.000000
     3  O    1.334605   2.241231   0.000000
     4  C    1.522138   2.415210   2.348829   0.000000
     5  H    2.129619   3.169724   2.484557   1.090491   0.000000
     6  C    2.496090   3.302051   3.036485   1.517016   2.168588
     7  H    2.741062   3.689892   2.781653   2.147393   2.499366
     8  H    3.441562   4.239994   3.986234   2.145101   2.505363
     9  H    2.731103   3.177027   3.466409   2.149005   3.065227
    10  O    2.397321   2.724785   3.548120   1.417504   2.063575
    11  C    2.331653   2.637204   1.427613   3.674626   3.871959
    12  H    2.622066   2.631898   2.070032   4.032225   4.185507
    13  H    3.213359   3.693130   2.016698   4.363196   4.366199
    14  H    2.626852   2.623104   2.074138   4.021770   4.463334
    15  C    2.889595   3.007533   3.978758   2.338541   2.575336
    16  C    4.185818   4.003425   5.378376   3.659245   4.003129
    17  H    4.216676   3.750283   5.498781   3.950251   4.527638
    18  H    4.774826   4.729573   5.963628   3.942323   4.264686
    19  H    4.859813   4.651926   5.955143   4.452034   4.619808
    20  O    2.860270   3.113027   3.650128   2.621640   2.479478
                    6          7          8          9         10
     6  C    0.000000
     7  H    1.088846   0.000000
     8  H    1.088697   1.773269   0.000000
     9  H    1.089805   1.777030   1.772178   0.000000
    10  O    2.368258   3.317067   2.615803   2.616179   0.000000
    11  C    4.307803   3.983074   5.322434   4.524144   4.714493
    12  H    4.947611   4.798671   5.929421   5.153392   4.844877
    13  H    4.871671   4.337657   5.831031   5.207496   5.539331
    14  H    4.405123   4.094086   5.481178   4.367058   4.975969
    15  C    3.620620   4.457264   3.862291   3.919220   1.349968
    16  C    4.704007   5.667013   4.794793   4.784004   2.350740
    17  H    4.874891   5.849851   5.100532   4.717031   2.664268
    18  H    4.730748   5.758442   4.583469   4.814417   2.560293
    19  H    5.634164   6.541256   5.728514   5.793448   3.269602
    20  O    4.102639   4.723405   4.446690   4.575273   2.238100
                   11         12         13         14         15
    11  C    0.000000
    12  H    1.088658   0.000000
    13  H    1.085409   1.789167   0.000000
    14  H    1.088982   1.773814   1.789434   0.000000
    15  C    4.983279   4.823634   5.824420   5.393710   0.000000
    16  C    6.280498   6.033341   7.191785   6.571077   1.498018
    17  H    6.248440   5.985497   7.242799   6.371734   2.112971
    18  H    7.001468   6.875729   7.879070   7.268866   2.134930
    19  H    6.766708   6.371186   7.646463   7.150943   2.122191
    20  O    4.553455   4.250642   5.293019   5.166354   1.197993
                   16         17         18         19         20
    16  C    0.000000
    17  H    1.090320   0.000000
    18  H    1.088703   1.761268   0.000000
    19  H    1.085153   1.782114   1.789761   0.000000
    20  O    2.406658   3.040765   3.148792   2.568787   0.000000
 Symmetry turned off by external request.
 Stoichiometry    C6H10O4
 Framework group  C1[X(C6H10O4)]
 Deg. of freedom    54
 Full point group                 C1      NOp   1
 Rotational constants (GHZ):           2.2360482           0.9088420           0.7574102
 Standard basis: def2TZVP (5D, 7F)
   370 basis functions,   590 primitive gaussians,   420 cartesian basis functions
    39 alpha electrons       39 beta electrons
       nuclear repulsion energy       573.3094315889 Hartrees.
 NAtoms=   20 NActive=   20 NUniq=   20 SFac= 1.00D+00 NAtFMM=   60 NAOKFM=F Big=F
 Integral buffers will be    131072 words long.
 Raffenetti 2 integral format.
 Two-electron integral symmetry is turned off.
 One-electron integrals computed using PRISM.
   1 Symmetry operations used in ECPInt.
 ECPInt:  NShTT=   11325 NPrTT=   34180 LenC2=   10827 LenP2D=   25081.
 LDataN:  DoStor=T MaxTD1= 6 Len=  172
 NBasis=   370 RedAO= T EigKep=  1.44D-04  NBF=   370
 NBsUse=   370 1.00D-06 EigRej= -1.00D+00 NBFU=   370
 Initial guess from the checkpoint file:  "/oasis/scratch/comet/mayes/temp_project/lme2acetoxypropionate_18_t.chk"
 B after Tr=    -0.018453   -0.020965   -0.008842
         Rot=    0.999996   -0.001281   -0.001988    0.001601 Ang=  -0.33 deg.
 ExpMin= 9.52D-02 ExpMax= 2.70D+04 ExpMxC= 9.22D+02 IAcc=3 IRadAn=         5 AccDes= 0.00D+00
 Harris functional with IExCor= 1009 and IRadAn=       5 diagonalized for initial guess.
 HarFok:  IExCor= 1009 AccDes= 0.00D+00 IRadAn=         5 IDoV= 1 UseB2=F ITyADJ=14
 ICtDFT=  3500011 ScaDFX=  1.000000  1.000000  1.000000  1.000000
 FoFCou: FMM=F IPFlag=           0 FMFlag=      100000 FMFlg1=           0
         NFxFlg=           0 DoJE=T BraDBF=F KetDBF=T FulRan=T
         wScrn=  0.000000 ICntrl=       500 IOpCl=  0 I1Cent=   200000004 NGrid=           0
         NMat0=    1 NMatS0=      1 NMatT0=    0 NMatD0=    1 NMtDS0=    0 NMtDT0=    0
 Symmetry not used in FoFCou.
 Requested convergence on RMS density matrix=1.00D-08 within  32 cycles.
 Requested convergence on MAX density matrix=1.00D-06.
 Requested convergence on             energy=1.00D-06.
 No special actions if energy rises.
 Integral accuracy reduced to 1.0D-05 until final iterations.
 Initial convergence to 1.0D-05 achieved.  Increase integral accuracy.
 SCF Done:  E(RM062X) =  -535.578432066     A.U. after   12 cycles
            NFock= 12  Conv=0.91D-08     -V/T= 2.0044
 QCSCF skips out because SCF is already converged.
   1 Symmetry operations used in ECPInt.
 ECPInt:  NShTT=   11325 NPrTT=   34180 LenC2=   10827 LenP2D=   25081.
 LDataN:  DoStor=T MaxTD1= 7 Len=  274
 Calling FoFJK, ICntrl=      2127 FMM=F ISym2X=0 I1Cent= 0 IOpClX= 0 NMat=1 NMatS=1 NMatT=0.
 -------------------------------------------------------------------
 Center     Atomic                   Forces (Hartrees/Bohr)
 Number     Number              X              Y              Z
 -------------------------------------------------------------------
      1        6          -0.000878457    0.000119268   -0.000157177
      2        8           0.000666166   -0.000062988    0.000115292
      3        8           0.000124344   -0.000281239    0.000136819
      4        6          -0.000051075    0.000046713    0.000005437
      5        1           0.000011074   -0.000013417   -0.000001120
      6        6          -0.000036940    0.000068882   -0.000021695
      7        1           0.000020461    0.000003554    0.000006527
      8        1           0.000033331   -0.000007419   -0.000016665
      9        1          -0.000012965   -0.000006982    0.000020584
     10        8           0.000004680   -0.000025095   -0.000032000
     11        6           0.000081340    0.000219190   -0.000021657
     12        1           0.000001337    0.000031017   -0.000034590
     13        1           0.000011864   -0.000010111   -0.000009828
     14        1          -0.000052431    0.000005733    0.000000148
     15        6           0.000037714   -0.000455413    0.000411350
     16        6           0.000049803    0.000037429   -0.000063746
     17        1           0.000006248    0.000069482   -0.000032198
     18        1          -0.000063206    0.000011404    0.000019260
     19        1           0.000006484   -0.000044884   -0.000007279
     20        8           0.000040229    0.000294876   -0.000317462
 -------------------------------------------------------------------
 Cartesian Forces:  Max     0.000878457 RMS     0.000184802

 GradGradGradGradGradGradGradGradGradGradGradGradGradGradGradGradGradGrad
 Berny optimization.
 Using GEDIIS/GDIIS optimizer.
 FormGI is forming the generalized inverse of G from B-inverse, IUseBI=4.
 Internal  Forces:  Max     0.000669773 RMS     0.000107933
 Search for a local minimum.
 Step number   2 out of a maximum of   92
 ... (edited for test) ...
 Step number   5 out of a maximum of   92
 All quantities printed in internal units (Hartrees-Bohrs-Radians)
 Mixed Optimization -- En-DIIS/RFO-DIIS
 Swapping is turned off.
 Update second derivatives using D2CorX and points    1    2    3    4    5
 DE= -2.19D-08 DEPred=-2.40D-08 R= 9.14D-01
 Trust test= 9.14D-01 RLast= 5.31D-03 DXMaxT set to 5.05D-01
 ITU=  0  1  0  1  0
     Eigenvalues ---    0.00049   0.00159   0.00263   0.00321   0.01071
     Eigenvalues ---    0.02181   0.03276   0.04279   0.04424   0.04603
     Eigenvalues ---    0.04886   0.05254   0.05451   0.05572   0.06065
     Eigenvalues ---    0.06864   0.08256   0.08396   0.12349   0.12396
     Eigenvalues ---    0.13067   0.13206   0.13217   0.13866   0.14402
     Eigenvalues ---    0.18026   0.18566   0.18769   0.18916   0.20963
     Eigenvalues ---    0.21290   0.24587   0.25390   0.25537   0.27388
     Eigenvalues ---    0.31243   0.33310   0.34399   0.34690   0.34777
     Eigenvalues ---    0.34785   0.34976   0.34993   0.35253   0.35452
     Eigenvalues ---    0.35800   0.35935   0.36684   0.38267   0.38749
     Eigenvalues ---    0.49120   0.49476   0.89497   0.90855
 En-DIIS/RFO-DIIS/Sim-DIIS IScMMF=       -3 using points:     5    4    3    2
 RFO step:  Lambda=-2.15853053D-10.
 DidBck=F Rises=F RFO-DIIS coefs:    0.85187    0.14829   -0.00797    0.00781
 Iteration  1 RMS(Cart)=  0.00017305 RMS(Int)=  0.00000003
 Iteration  2 RMS(Cart)=  0.00000003 RMS(Int)=  0.00000000
 Variable       Old X    -DE/DX   Delta X   Delta X   Delta X     New X
                                 (Linear)    (Quad)   (Total)
    R1        2.26112  -0.00000  -0.00001   0.00000  -0.00000   2.26112
...
   D31       -0.18800  -0.00000   0.00042  -0.00000   0.00042  -0.18758
         Item               Value     Threshold  Converged?
 Maximum Force            0.000003     0.000450     YES
 RMS     Force            0.000001     0.000300     YES
 Maximum Displacement     0.000701     0.001800     YES
 RMS     Displacement     0.000173     0.001200     YES
 Predicted change in Energy=-6.209421D-10
 Optimization completed.
    -- Stationary point found.
                           ----------------------------
                           !   Optimized Parameters   !
                           ! (Angstroms and Degrees)  !
 --------------------------                            --------------------------
 ! Name  Definition              Value          Derivative Info.                !
 --------------------------------------------------------------------------------
 ! R1    R(1,2)                  1.1965         -DE/DX =    0.0                 !
 ! R2    R(1,3)                  1.3343         -DE/DX =    0.0                 !
 ! R3    R(1,4)                  1.5221         -DE/DX =    0.0                 !
 ! R4    R(3,11)                 1.4279         -DE/DX =    0.0                 !
 ! R5    R(4,5)                  1.0905         -DE/DX =    0.0                 !
 ! R6    R(4,6)                  1.517          -DE/DX =    0.0                 !
 ! R7    R(4,10)                 1.4175         -DE/DX =    0.0                 !
 ! R8    R(6,7)                  1.0888         -DE/DX =    0.0                 !
 ! R9    R(6,8)                  1.0887         -DE/DX =    0.0                 !
 ! R10   R(6,9)                  1.0898         -DE/DX =    0.0                 !
 ! R11   R(10,15)                1.3501         -DE/DX =    0.0                 !
 ! R12   R(11,12)                1.0887         -DE/DX =    0.0                 !
 ! R13   R(11,13)                1.0854         -DE/DX =    0.0                 !
 ! R14   R(11,14)                1.089          -DE/DX =    0.0                 !
 ! R15   R(15,16)                1.4978         -DE/DX =    0.0                 !
 ! R16   R(15,20)                1.1982         -DE/DX =    0.0                 !
 ! R17   R(16,17)                1.0906         -DE/DX =    0.0                 !
 ! R18   R(16,18)                1.0885         -DE/DX =    0.0                 !
 ! R19   R(16,19)                1.0852         -DE/DX =    0.0                 !
 ! A1    A(2,1,3)              124.5575         -DE/DX =    0.0                 !
 ! A2    A(2,1,4)              124.9575         -DE/DX =    0.0                 !
 ! A3    A(3,1,4)              110.4386         -DE/DX =    0.0                 !
 ! A4    A(1,3,11)             115.1888         -DE/DX =    0.0                 !
 ! A5    A(1,4,5)              108.0281         -DE/DX =    0.0                 !
 ! A6    A(1,4,6)              110.4868         -DE/DX =    0.0                 !
 ! A7    A(1,4,10)             109.2021         -DE/DX =    0.0                 !
 ! A8    A(5,4,6)              111.4708         -DE/DX =    0.0                 !
 ! A9    A(5,4,10)             110.0424         -DE/DX =    0.0                 !
 ! A10   A(6,4,10)             107.5965         -DE/DX =    0.0                 !
 ! A11   A(4,6,7)              109.895          -DE/DX =    0.0                 !
 ! A12   A(4,6,8)              109.6998         -DE/DX =    0.0                 !
 ! A13   A(4,6,9)              109.9978         -DE/DX =    0.0                 !
 ! A14   A(7,6,8)              109.068          -DE/DX =    0.0                 !
 ! A15   A(7,6,9)              109.3006         -DE/DX =    0.0                 !
 ! A16   A(8,6,9)              108.8565         -DE/DX =    0.0                 !
 ! A17   A(4,10,15)            115.3457         -DE/DX =    0.0                 !
 ! A18   A(3,11,12)            109.9915         -DE/DX =    0.0                 !
 ! A19   A(3,11,13)            105.9177         -DE/DX =    0.0                 !
 ! A20   A(3,11,14)            110.262          -DE/DX =    0.0                 !
 ! A21   A(12,11,13)           110.7593         -DE/DX =    0.0                 !
 ! A22   A(12,11,14)           109.1205         -DE/DX =    0.0                 !
 ! A23   A(13,11,14)           110.7594         -DE/DX =    0.0                 !
 ! A24   A(10,15,16)           111.1846         -DE/DX =    0.0                 !
 ! A25   A(10,15,20)           122.7796         -DE/DX =    0.0                 !
 ! A26   A(16,15,20)           126.034          -DE/DX =    0.0                 !
 ! A27   A(15,16,17)           108.1828         -DE/DX =    0.0                 !
 ! A28   A(15,16,18)           110.3774         -DE/DX =    0.0                 !
 ! A29   A(15,16,19)           109.4843         -DE/DX =    0.0                 !
 ! A30   A(17,16,18)           107.921          -DE/DX =    0.0                 !
 ! A31   A(17,16,19)           109.8669         -DE/DX =    0.0                 !
 ! A32   A(18,16,19)           110.9527         -DE/DX =    0.0                 !
 ! D1    D(2,1,3,11)             1.013          -DE/DX =    0.0                 !
 ! D2    D(4,1,3,11)           178.6361         -DE/DX =    0.0                 !
 ! D3    D(2,1,4,5)           -137.8942         -DE/DX =    0.0                 !
 ! D4    D(2,1,4,6)             99.9303         -DE/DX =    0.0                 !
 ! D5    D(2,1,4,10)           -18.2249         -DE/DX =    0.0                 !
 ! D6    D(3,1,4,5)             44.4944         -DE/DX =    0.0                 !
 ! D7    D(3,1,4,6)            -77.6811         -DE/DX =    0.0                 !
 ! D8    D(3,1,4,10)           164.1637         -DE/DX =    0.0                 !
 ! D9    D(1,3,11,12)           59.8896         -DE/DX =    0.0                 !
 ! D10   D(1,3,11,13)          179.6228         -DE/DX =    0.0                 !
 ! D11   D(1,3,11,14)          -60.4982         -DE/DX =    0.0                 !
 ! D12   D(1,4,6,7)             60.828          -DE/DX =    0.0                 !
 ! D13   D(1,4,6,8)           -179.2646         -DE/DX =    0.0                 !
 ! D14   D(1,4,6,9)            -59.5538         -DE/DX =    0.0                 !
 ! D15   D(5,4,6,7)            -59.3024         -DE/DX =    0.0                 !
 ! D16   D(5,4,6,8)             60.605          -DE/DX =    0.0                 !
 ! D17   D(5,4,6,9)           -179.6842         -DE/DX =    0.0                 !
 ! D18   D(10,4,6,7)           179.961          -DE/DX =    0.0                 !
 ! D19   D(10,4,6,8)           -60.1316         -DE/DX =    0.0                 !
 ! D20   D(10,4,6,9)            59.5792         -DE/DX =    0.0                 !
 ! D21   D(1,4,10,15)          -66.0356         -DE/DX =    0.0                 !
 ! D22   D(5,4,10,15)           52.3821         -DE/DX =    0.0                 !
 ! D23   D(6,4,10,15)          174.0133         -DE/DX =    0.0                 !
 ! D24   D(4,10,15,16)         173.7912         -DE/DX =    0.0                 !
 ! D25   D(4,10,15,20)          -5.7475         -DE/DX =    0.0                 !
 ! D26   D(10,15,16,17)        -70.5803         -DE/DX =    0.0                 !
 ! D27   D(10,15,16,18)         47.2919         -DE/DX =    0.0                 !
 ! D28   D(10,15,16,19)        169.708          -DE/DX =    0.0                 !
 ! D29   D(20,15,16,17)        108.9401         -DE/DX =    0.0                 !
 ! D30   D(20,15,16,18)       -133.1877         -DE/DX =    0.0                 !
 ! D31   D(20,15,16,19)        -10.7716         -DE/DX =    0.0                 !
 --------------------------------------------------------------------------------
 GradGradGradGradGradGradGradGradGradGradGradGradGradGradGradGradGradGrad

                          Input orientation:                          
 ---------------------------------------------------------------------
 Center     Atomic      Atomic             Coordinates (Angstroms)
 Number     Number       Type             X           Y           Z
 ---------------------------------------------------------------------
      1          6           0       -0.886489    0.247217   -0.375862
      2          8           0        0.250065    0.198541   -0.004952
      3          8           0       -1.486349    1.347086   -0.834991
      4          6           0       -1.867249   -0.916148   -0.336690
      5          1           0       -2.429698   -0.915017   -1.270978
      6          6           0       -2.785857   -0.795957    0.864593
      7          1           0       -3.359369    0.127374    0.801544
      8          1           0       -3.472631   -1.640368    0.887350
      9          1           0       -2.199632   -0.793858    1.783330
     10          8           0       -1.146300   -2.129488   -0.205145
     11          6           0       -0.662811    2.512534   -0.885228
     12          1           0        0.192342    2.336246   -1.535456
     13          1           0       -1.290888    3.303980   -1.281719
     14          1           0       -0.306370    2.765709    0.112104
     15          6           0       -0.368702   -2.456899   -1.259122
     16          6           0        0.461076   -3.668395   -0.963919
     17          1           0        1.222615   -3.389842   -0.234686
     18          1           0       -0.154054   -4.450972   -0.523493
     19          1           0        0.934118   -4.014470   -1.877257
     20          8           0       -0.362816   -1.830273   -2.280422
 ---------------------------------------------------------------------
                    Distance matrix (angstroms):
                    1          2          3          4          5
     1  C    0.000000
     2  O    1.196536   0.000000
     3  O    1.334295   2.241261   0.000000
     4  C    1.522118   2.415699   2.348536   0.000000
     5  H    2.129205   3.166064   2.489399   1.090525   0.000000
     6  C    2.496905   3.310884   3.028190   1.517025   2.168337
 ...
                   16         17         18         19         20
    16  C    0.000000
    17  H    1.090557   0.000000
    18  H    1.088479   1.761994   0.000000
    19  H    1.085229   1.780851   1.790902   0.000000
    20  O    2.406382   3.021736   3.162032   2.572022   0.000000
 Symmetry turned off by external request.
 Stoichiometry    C6H10O4
 Framework group  C1[X(C6H10O4)]
 Deg. of freedom    54
 Full point group                 C1      NOp   1
 Rotational constants (GHZ):           2.2398356           0.9074904           0.7566736

 **********************************************************************

            Population analysis using the SCF Density.

 **********************************************************************

 Alpha  occ. eigenvalues --  -19.67931 -19.67404 -19.62110 -19.61710 -10.67376
...
 Alpha virt. eigenvalues --   23.40277  23.48086  44.03772  44.07908  44.26218
 Alpha virt. eigenvalues --   44.48506
          Condensed to atoms (all electrons):
               1          2          3          4          5          6
     1  C    4.664106   0.620661   0.342007   0.224424  -0.093452  -0.016077
     2  O    0.620661   7.818236  -0.082876  -0.057085   0.003682  -0.008494
     3  O    0.342007  -0.082876   7.974277  -0.074184   0.008928  -0.008329
     4  C    0.224424  -0.057085  -0.074184   5.144527   0.481355   0.228237
 ...
    19  H    0.504847   0.005719
    20  O    0.005719   7.842717
 Mulliken charges:
               1
     1  C    0.357010
     2  O   -0.323748
     3  O   -0.274821
     4  C    0.016728
     5  H    0.167567
     6  C   -0.432739
     7  H    0.156592
     8  H    0.154021
     9  H    0.161668
    10  O   -0.264296
    11  C   -0.256435
    12  H    0.160359
    13  H    0.145784
    14  H    0.150613
    15  C    0.385724
    16  C   -0.452222
    17  H    0.170039
    18  H    0.155490
    19  H    0.156762
    20  O   -0.334096
 Sum of Mulliken charges =  -0.00000
 Mulliken charges with hydrogens summed into heavy atoms:
               1
     1  C    0.357010
     2  O   -0.323748
     3  O   -0.274821
     4  C    0.184295
     6  C    0.039542
    10  O   -0.264296
    11  C    0.200321
    15  C    0.385724
    16  C    0.030069
    20  O   -0.334096
 Electronic spatial extent (au):  <R**2>=           2087.8235
 Charge=             -0.0000 electrons
 Dipole moment (field-independent basis, Debye):
    X=             -1.5920    Y=              0.2696    Z=              1.1677  Tot=              1.9927
 Quadrupole moment (field-independent basis, Debye-Ang):
   XX=            -55.4050   YY=            -46.4847   ZZ=            -64.9262
   XY=             -1.1094   XZ=             -1.6170   YZ=             -2.2524
 Traceless Quadrupole moment (field-independent basis, Debye-Ang):
   XX=              0.2003   YY=              9.1206   ZZ=             -9.3209
   XY=             -1.1094   XZ=             -1.6170   YZ=             -2.2524
 Octapole moment (field-independent basis, Debye-Ang**2):
  XXX=            149.9425  YYY=            116.4550  ZZZ=            125.6983  XYY=             56.2337
  XXY=             36.0618  XXZ=             36.1804  XZZ=             55.8255  YZZ=             55.3014
  YYZ=             23.3764  XYZ=              1.4362
 Hexadecapole moment (field-independent basis, Debye-Ang**3):
 XXXX=           -702.1719 YYYY=          -1343.4088 ZZZZ=           -497.8773 XXXY=            -13.9963
 XXXZ=             -9.5322 YYYX=            -60.8026 YYYZ=           -102.6846 ZZZX=            -15.4581
 ZZZY=           -154.8187 XXYY=           -366.7998 XXZZ=           -194.1680 YYZZ=           -327.8524
 XXYZ=            -37.0029 YYXZ=             -3.7206 ZZXY=            -16.0130
 N-N= 5.732360836111D+02 E-N=-2.401093992173D+03  KE= 5.332233097758D+02
 1\1\GINC-COMET-06-48\FOpt\RM062X\def2TZVP\C6H10O4\MAYES\03-Oct-2019\0\
 \# m062x/Def2TZVP nosymm scf=xqc opt=ReadFC freq=NoRaman CPHF=Grid=Fin
 e guess=read geom=allcheck\\obabel lme2acetoxypropionate_0.pdb -O lme2
 acetoxypropionate.pdb --confab --conf10000 --original\\0,1\C,-0.886488
 9303,0.2472169278,-0.3758622152\O,0.2500647037,0.1985411813,-0.0049524
 7\O,-1.4863491007,1.3470864773,-0.8349907807\C,-1.867249428,-0.9161481
 082,-0.3366896123\H,-2.4296982841,-0.9150170846,-1.2709778674\C,-2.785
 8565481,-0.7959565426,0.8645928577\H,-3.3593689654,0.1273735801,0.8015
 435414\H,-3.4726308639,-1.6403681573,0.8873497691\H,-2.199632182,-0.79
 38584747,1.7833295046\O,-1.1463002048,-2.1294882699,-0.2051448894\C,-0
 .6628108628,2.5125343813,-0.8852276269\H,0.1923421072,2.3362463453,-1.
 5354564492\H,-1.2908883357,3.3039795213,-1.2817188264\H,-0.3063700006,
 2.765709179,0.1121040871\C,-0.3687019963,-2.4568988533,-1.2591222626\C
 ,0.4610763658,-3.668395275,-0.9639193054\H,1.2226146135,-3.3898423014,
 -0.2346855524\H,-0.1540538148,-4.4509718758,-0.5234927687\H,0.93411813
 56,-4.0144697051,-1.8772566854\O,-0.3628164086,-1.8302729456,-2.280422
 4477\\Version=ES64L-G16RevB.01\HF=-535.5784384\RMSD=6.714e-09\RMSF=7.4
 28e-07\Dipole=-0.6263511,0.1060553,0.4593988\Quadrupole=0.1489415,6.78
 09218,-6.9298634,-0.8248141,-1.2022075,-1.6746305\PG=C01 [X(C6H10O4)]\
 \@

 Job cpu time:       0 days  1 hours 31 minutes 28.1 seconds.
 Elapsed time:       0 days  0 hours  3 minutes 53.5 seconds.
 File lengths (MBytes):  RWF=     89 Int=      0 D2E=      0 Chk=     23 Scr=      1
 Normal termination of Gaussian 16 at Thu Oct  3 09:30:48 2019.
 Link1:  Proceeding to internal job step number  2.
 --------------------------------------------------------------------
 #N Geom=AllCheck Guess=TCheck SCRF=Check GenChk RM062X/def2TZVP Freq
 --------------------------------------------------------------------
 1/10=4,29=7,30=1,38=1,40=1/1,3;
 2/12=2,15=1,40=1/2;
 3/5=44,7=101,11=2,14=-4,25=1,30=1,70=2,71=2,74=-55,116=1,140=1/1,2,3;
 4/5=101/1;
 5/5=2,8=3,13=1,38=6,98=1/2,8;
 8/6=4,10=90,11=11/1;
 11/6=1,8=1,9=11,15=111,16=1,31=1/1,2,10;
 10/6=1,31=1,60=4/2;
 6/7=2,8=2,9=2,10=2,28=1/1;
 7/8=1,10=1,25=1,30=1/1,2,3,16;
 1/10=4,30=1/3;
 99//99;
 Structure from the checkpoint file:  "/oasis/scratch/comet/mayes/temp_project/lme2acetoxypropionate_18_t.chk"
 ----------------------------------------------------------------------
 obabel lme2acetoxypropionate_0.pdb -O lme2acetoxypropionate.pdb --conf
 ab --conf10000 --original
 ----------------------------------------------------------------------
 Charge =  0 Multiplicity = 1
 Redundant internal coordinates found in file.  (old form).
 C,0,-0.8864889303,0.2472169278,-0.3758622152
 O,0,0.2500647037,0.1985411813,-0.00495247
 O,0,-1.4863491007,1.3470864773,-0.8349907807
 C,0,-1.867249428,-0.9161481082,-0.3366896123
 H,0,-2.4296982841,-0.9150170846,-1.2709778674
 C,0,-2.7858565481,-0.7959565426,0.8645928577
 H,0,-3.3593689654,0.1273735801,0.8015435414
 H,0,-3.4726308639,-1.6403681573,0.8873497691
 H,0,-2.199632182,-0.7938584747,1.7833295046
 O,0,-1.1463002048,-2.1294882699,-0.2051448894
 C,0,-0.6628108628,2.5125343813,-0.8852276269
 H,0,0.1923421072,2.3362463453,-1.5354564492
 H,0,-1.2908883357,3.3039795213,-1.2817188264
 H,0,-0.3063700006,2.765709179,0.1121040871
 C,0,-0.3687019963,-2.4568988533,-1.2591222626
 C,0,0.4610763658,-3.668395275,-0.9639193054
 H,0,1.2226146135,-3.3898423014,-0.2346855524
 H,0,-0.1540538148,-4.4509718758,-0.5234927687
 H,0,0.9341181356,-4.0144697051,-1.8772566854
 O,0,-0.3628164086,-1.8302729456,-2.2804224477
 Recover connectivity data from disk.

 GradGradGradGradGradGradGradGradGradGradGradGradGradGradGradGradGradGrad
 Berny optimization.
 Initialization pass.
                           ----------------------------
                           !    Initial Parameters    !
                           ! (Angstroms and Degrees)  !
 --------------------------                            --------------------------
 ! Name  Definition              Value          Derivative Info.                !
 --------------------------------------------------------------------------------
 ! R1    R(1,2)                  1.1965         calculate D2E/DX2 analytically  !
 ! R2    R(1,3)                  1.3343         calculate D2E/DX2 analytically  !
 ! R3    R(1,4)                  1.5221         calculate D2E/DX2 analytically  !
 ! R4    R(3,11)                 1.4279         calculate D2E/DX2 analytically  !
 ! R5    R(4,5)                  1.0905         calculate D2E/DX2 analytically  !
 ! R6    R(4,6)                  1.517          calculate D2E/DX2 analytically  !
 ! R7    R(4,10)                 1.4175         calculate D2E/DX2 analytically  !
 ! R8    R(6,7)                  1.0888         calculate D2E/DX2 analytically  !
 ! R9    R(6,8)                  1.0887         calculate D2E/DX2 analytically  !
 ! R10   R(6,9)                  1.0898         calculate D2E/DX2 analytically  !
 ! R11   R(10,15)                1.3501         calculate D2E/DX2 analytically  !
 ! R12   R(11,12)                1.0887         calculate D2E/DX2 analytically  !
 ! R13   R(11,13)                1.0854         calculate D2E/DX2 analytically  !
 ! R14   R(11,14)                1.089          calculate D2E/DX2 analytically  !
 ! R15   R(15,16)                1.4978         calculate D2E/DX2 analytically  !
 ! R16   R(15,20)                1.1982         calculate D2E/DX2 analytically  !
 ! R17   R(16,17)                1.0906         calculate D2E/DX2 analytically  !
 ! R18   R(16,18)                1.0885         calculate D2E/DX2 analytically  !
 ! R19   R(16,19)                1.0852         calculate D2E/DX2 analytically  !
 ! A1    A(2,1,3)              124.5575         calculate D2E/DX2 analytically  !
 ! A2    A(2,1,4)              124.9575         calculate D2E/DX2 analytically  !
 ! A3    A(3,1,4)              110.4386         calculate D2E/DX2 analytically  !
 ! A4    A(1,3,11)             115.1888         calculate D2E/DX2 analytically  !
 ! A5    A(1,4,5)              108.0281         calculate D2E/DX2 analytically  !
 ! A6    A(1,4,6)              110.4868         calculate D2E/DX2 analytically  !
 ! A7    A(1,4,10)             109.2021         calculate D2E/DX2 analytically  !
 ! A8    A(5,4,6)              111.4708         calculate D2E/DX2 analytically  !
 ! A9    A(5,4,10)             110.0424         calculate D2E/DX2 analytically  !
 ! A10   A(6,4,10)             107.5965         calculate D2E/DX2 analytically  !
 ! A11   A(4,6,7)              109.895          calculate D2E/DX2 analytically  !
 ! A12   A(4,6,8)              109.6998         calculate D2E/DX2 analytically  !
 ! A13   A(4,6,9)              109.9978         calculate D2E/DX2 analytically  !
 ! A14   A(7,6,8)              109.068          calculate D2E/DX2 analytically  !
 ! A15   A(7,6,9)              109.3006         calculate D2E/DX2 analytically  !
 ! A16   A(8,6,9)              108.8565         calculate D2E/DX2 analytically  !
 ! A17   A(4,10,15)            115.3457         calculate D2E/DX2 analytically  !
 ! A18   A(3,11,12)            109.9915         calculate D2E/DX2 analytically  !
 ! A19   A(3,11,13)            105.9177         calculate D2E/DX2 analytically  !
 ! A20   A(3,11,14)            110.262          calculate D2E/DX2 analytically  !
 ! A21   A(12,11,13)           110.7593         calculate D2E/DX2 analytically  !
 ! A22   A(12,11,14)           109.1205         calculate D2E/DX2 analytically  !
 ! A23   A(13,11,14)           110.7594         calculate D2E/DX2 analytically  !
 ! A24   A(10,15,16)           111.1846         calculate D2E/DX2 analytically  !
 ! A25   A(10,15,20)           122.7796         calculate D2E/DX2 analytically  !
 ! A26   A(16,15,20)           126.034          calculate D2E/DX2 analytically  !
 ! A27   A(15,16,17)           108.1828         calculate D2E/DX2 analytically  !
 ! A28   A(15,16,18)           110.3774         calculate D2E/DX2 analytically  !
 ! A29   A(15,16,19)           109.4843         calculate D2E/DX2 analytically  !
 ! A30   A(17,16,18)           107.921          calculate D2E/DX2 analytically  !
 ! A31   A(17,16,19)           109.8669         calculate D2E/DX2 analytically  !
 ! A32   A(18,16,19)           110.9527         calculate D2E/DX2 analytically  !
 ! D1    D(2,1,3,11)             1.013          calculate D2E/DX2 analytically  !
 ! D2    D(4,1,3,11)           178.6361         calculate D2E/DX2 analytically  !
 ! D3    D(2,1,4,5)           -137.8942         calculate D2E/DX2 analytically  !
 ! D4    D(2,1,4,6)             99.9303         calculate D2E/DX2 analytically  !
 ! D5    D(2,1,4,10)           -18.2249         calculate D2E/DX2 analytically  !
 ! D6    D(3,1,4,5)             44.4944         calculate D2E/DX2 analytically  !
 ! D7    D(3,1,4,6)            -77.6811         calculate D2E/DX2 analytically  !
 ! D8    D(3,1,4,10)           164.1637         calculate D2E/DX2 analytically  !
 ! D9    D(1,3,11,12)           59.8896         calculate D2E/DX2 analytically  !
 ! D10   D(1,3,11,13)          179.6228         calculate D2E/DX2 analytically  !
 ! D11   D(1,3,11,14)          -60.4982         calculate D2E/DX2 analytically  !
 ! D12   D(1,4,6,7)             60.828          calculate D2E/DX2 analytically  !
 ! D13   D(1,4,6,8)           -179.2646         calculate D2E/DX2 analytically  !
 ! D14   D(1,4,6,9)            -59.5538         calculate D2E/DX2 analytically  !
 ! D15   D(5,4,6,7)            -59.3024         calculate D2E/DX2 analytically  !
 ! D16   D(5,4,6,8)             60.605          calculate D2E/DX2 analytically  !
 ! D17   D(5,4,6,9)           -179.6842         calculate D2E/DX2 analytically  !
 ! D18   D(10,4,6,7)           179.961          calculate D2E/DX2 analytically  !
 ! D19   D(10,4,6,8)           -60.1316         calculate D2E/DX2 analytically  !
 ! D20   D(10,4,6,9)            59.5792         calculate D2E/DX2 analytically  !
 ! D21   D(1,4,10,15)          -66.0356         calculate D2E/DX2 analytically  !
 ! D22   D(5,4,10,15)           52.3821         calculate D2E/DX2 analytically  !
 ! D23   D(6,4,10,15)          174.0133         calculate D2E/DX2 analytically  !
 ! D24   D(4,10,15,16)         173.7912         calculate D2E/DX2 analytically  !
 ! D25   D(4,10,15,20)          -5.7475         calculate D2E/DX2 analytically  !
 ! D26   D(10,15,16,17)        -70.5803         calculate D2E/DX2 analytically  !
 ! D27   D(10,15,16,18)         47.2919         calculate D2E/DX2 analytically  !
 ! D28   D(10,15,16,19)        169.708          calculate D2E/DX2 analytically  !
 ! D29   D(20,15,16,17)        108.9401         calculate D2E/DX2 analytically  !
 ! D30   D(20,15,16,18)       -133.1877         calculate D2E/DX2 analytically  !
 ! D31   D(20,15,16,19)        -10.7716         calculate D2E/DX2 analytically  !
 --------------------------------------------------------------------------------
 Trust Radius=3.00D-01 FncErr=1.00D-07 GrdErr=1.00D-07 EigMax=2.50D+02 EigMin=1.00D-04
 Number of steps in this run=      2 maximum allowed number of steps=      2.
 GradGradGradGradGradGradGradGradGradGradGradGradGradGradGradGradGradGrad

                          Input orientation:                          
 ---------------------------------------------------------------------
 Center     Atomic      Atomic             Coordinates (Angstroms)
 Number     Number       Type             X           Y           Z
 ---------------------------------------------------------------------
      1          6           0       -0.886489    0.247217   -0.375862
      2          8           0        0.250065    0.198541   -0.004952
      3          8           0       -1.486349    1.347086   -0.834991
      4          6           0       -1.867249   -0.916148   -0.336690
      5          1           0       -2.429698   -0.915017   -1.270978
      6          6           0       -2.785857   -0.795957    0.864593
      7          1           0       -3.359369    0.127374    0.801544
      8          1           0       -3.472631   -1.640368    0.887350
      9          1           0       -2.199632   -0.793858    1.783330
     10          8           0       -1.146300   -2.129488   -0.205145
     11          6           0       -0.662811    2.512534   -0.885228
     12          1           0        0.192342    2.336246   -1.535456
     13          1           0       -1.290888    3.303980   -1.281719
     14          1           0       -0.306370    2.765709    0.112104
     15          6           0       -0.368702   -2.456899   -1.259122
     16          6           0        0.461076   -3.668395   -0.963919
     17          1           0        1.222615   -3.389842   -0.234686
     18          1           0       -0.154054   -4.450972   -0.523493
[...]
 00051440,-0.00987112,0.01671759,-0.04953647,0.00722789,-0.01529721,0.0
 5025670,-0.00046765,0.00367164,0.00330224,-0.00067004,-0.00077233,-0.0
 0053217,0.00041555,-0.00103182,-0.00021006,-0.01558638,-0.01646528,0.0
 0216774,0.00098946,0.00061935,-0.00036475,-0.15539196,-0.13474494,0.00
 079502,0.01287786,0.01375574,-0.00036349,0.16651562,0.00133982,-0.0006
 9303,-0.00048216,0.00008953,0.00039831,0.00023539,-0.00061027,0.000277
 52,0.00023566,0.00392069,0.00189442,-0.00095423,-0.00024554,0.00018001
 ,0.00055411,-0.13656906,-0.21444440,0.00340473,-0.01760944,-0.01863767
 ,0.00002962,0.14812258,0.22859209,0.00083092,-0.00461637,-0.00473631,0
 .00197398,0.00133796,0.00152458,-0.00003890,0.00140534,0.00011734,0.02
 050092,0.02408456,-0.00311730,-0.00097533,0.00039734,0.00120214,0.0000
 6790,0.00076610,-0.04684979,0.00099059,0.00129976,-0.00141047,-0.00488
 168,-0.00281994,0.05041159,0.00257406,0.00007867,0.00067735,-0.0000740
 1,0.00039799,-0.00066170,-0.00016063,0.00012800,-0.00022771,0.01151083
 ,-0.00005242,0.02036950,-0.00247645,0.00069858,0.00335386,-0.13036689,
 -0.00080398,-0.12746959,-0.00890075,-0.00195135,-0.01287856,-0.0104765
 6,0.00170908,-0.01611428,0.13718243,0.00060666,0.00008195,0.00130314,0
 .00003971,-0.00009529,-0.00030944,-0.00020379,-0.00027182,-0.00015775,
 -0.00075513,-0.00147370,-0.00213912,0.00031116,0.00088917,-0.00031685,
 -0.00110066,-0.04830783,0.00006414,0.01375450,0.00180855,0.02391964,-0
 .01289366,0.00082694,-0.02215018,0.00109802,0.04613133,-0.00304623,-0.
 00111409,-0.00059427,0.00131668,0.00018492,0.00080336,0.00043030,0.000
 40948,0.00009297,-0.01423348,0.00119995,-0.02585998,0.00410286,-0.0003
 4849,-0.00223759,-0.12396955,-0.00088526,-0.23794337,0.00059684,0.0002
 6066,0.00026946,0.00130196,-0.00021929,0.00165728,0.13367741,-0.000011
 08,0.26180871,-0.00209664,-0.00987862,0.00190938,0.00819227,-0.0036866
 6,0.00112486,0.00180437,0.00011842,0.00005937,-0.10314065,0.06441318,-
 0.01830988,-0.01464775,0.02814199,-0.00212941,-0.02071016,0.03400831,-
 0.00005648,-0.00316017,0.00038240,0.00592213,0.00211702,-0.00035057,-0
 .00239724,0.00183047,-0.00108432,-0.00099336,0.27247185,0.02592692,-0.
 04173578,0.00428504,-0.00074398,0.00166174,0.00222980,-0.00774876,-0.0
 1344220,0.00098123,0.04986419,-0.17556920,0.03766431,0.00998110,-0.013
 14853,0.00661857,0.01269529,-0.01488711,-0.00188948,0.00155318,0.00081
 167,-0.00198510,-0.00047631,0.00132033,0.00043067,-0.00146072,0.000630
 34,0.00094377,-0.17186113,0.36441454,0.00384525,0.00468808,-0.00357640
 ,-0.00206781,-0.00337929,0.00161628,-0.00037632,-0.00317264,0.00208015
 ,-0.00847520,0.02420381,-0.09715089,-0.01113496,0.02613373,0.00164892,
 0.02156410,-0.03411314,0.00361910,0.00516091,-0.00090509,-0.00580675,-
 0.00154521,0.00026358,0.00154751,-0.00140709,-0.00006400,0.00258166,-0
 .13053860,-0.01387149,0.36661233,0.02388332,0.00069626,0.00605244,-0.0
 0848540,0.00671112,-0.00244842,-0.14313460,-0.08174068,-0.00233167,-0.
 00080291,0.00173013,-0.00249206,-0.00024409,0.00014890,-0.00013158,0.0
 0020532,0.00035658,0.00029104,-0.00010731,-0.00007721,0.00006496,0.000
 12073,0.00008881,-0.00020472,-0.00002154,-0.00002024,-0.00003315,-0.00
 067431,0.00292408,0.00091184,0.56922859,-0.00561507,-0.06701659,0.0159
 3677,-0.01414978,0.00476923,-0.00732002,-0.05473961,-0.16138291,0.0073
 6607,0.00364732,-0.00052407,0.00216739,-0.00019488,0.00023743,-0.00049
 664,-0.00009396,0.00016400,0.00018190,-0.00057350,0.00010843,0.0004280
 1,-0.00005466,0.00029428,-0.00019911,-0.00005451,0.00005694,-0.0001252
 0,-0.00116033,0.00137098,0.00058860,-0.08140170,0.53047371,0.00805802,
 0.01828468,-0.00018840,0.00287113,-0.00087346,-0.00521308,-0.00837318,
 0.00021918,-0.06987102,-0.00351522,0.00147794,0.00411914,0.00082531,0.
 00003497,0.00034860,-0.00053701,-0.00075306,-0.00009453,0.00005931,0.0
 0012165,0.00002154,-0.00018359,-0.00001094,0.00010427,0.00003543,0.000
 11540,-0.00014539,0.00055616,0.00063288,0.00023684,0.01247595,-0.00727
 235,0.60189062,-0.00229430,0.00399995,-0.00192999,0.00173827,-0.000191
 99,0.00048861,-0.01952631,-0.01118794,0.01125033,-0.00000520,0.0001677
 4,0.00006386,0.00000770,0.00005174,0.00004250,-0.00004391,-0.00000822,
 -0.00003089,0.00009267,-0.00002702,-0.00007176,0.00001133,-0.00004257,
 0.00004486,0.00000599,-0.00002308,0.00001840,0.00022386,-0.00037477,-0
 .00025826,-0.21181335,0.03972878,0.12656350,0.23343331,-0.00644168,0.0
 0421199,-0.00100674,0.00263169,-0.00039527,0.00104453,-0.03161740,-0.0
 0780811,0.02264955,0.00025631,-0.00003469,-0.00095063,-0.00010288,0.00
 000740,0.00003536,0.00010876,0.00003456,-0.00002151,0.00010379,-0.0000
 5006,-0.00008421,0.00002370,-0.00004248,0.00001810,0.00000058,-0.00002
 345,0.00005603,0.00024280,-0.00043777,-0.00026856,0.04806704,-0.060699
 43,-0.03675931,-0.03508037,0.06683265,0.00346769,-0.00131122,0.0015747
 3,-0.00183014,-0.00109329,-0.00019520,-0.00093132,0.00481340,0.0026556
 9,-0.00005674,0.00003051,-0.00019102,-0.00007985,-0.00005461,-0.000016
 84,-0.00000926,-0.00002583,-0.00002988,-0.00003346,0.00000025,-0.00000
 486,-0.00001501,0.00001294,0.00001796,0.00002359,-0.00000958,-0.000001
 39,-0.00004279,0.00006300,-0.00002958,0.12790057,-0.03051895,-0.152091
 79,-0.14060055,0.03279661,0.15572285,-0.00590080,-0.00266739,-0.001127
 19,0.00231677,0.00184881,0.00004817,0.01238663,-0.02642698,0.01055345,
 0.00073927,-0.00041029,0.00026720,0.00001811,0.00001430,-0.00001670,0.
 00002873,-0.00000850,-0.00002932,-0.00001735,-0.00000399,0.00002309,-0
 .00001422,0.00000593,0.00001627,-0.00001627,0.00000036,0.00001733,0.00
 002768,-0.00049571,-0.00007722,-0.15349599,0.13024153,-0.06420558,-0.0
 1140995,0.01595614,-0.01098737,0.15974751,-0.00650555,-0.00095836,-0.0
 0159191,0.00104658,0.00103935,0.00022419,0.01238489,-0.03417914,0.0126
 6806,0.00098334,-0.00022518,0.00045288,-0.00000021,-0.00004088,-0.0000
 0604,-0.00000498,-0.00013457,-0.00008553,0.00000281,-0.00000062,0.0000
 1067,-0.00005704,-0.00001168,0.00006469,-0.00000457,0.00000899,0.00001
 099,0.00004558,-0.00085527,-0.00023098,0.11704028,-0.18723320,0.070288
 90,0.00348560,-0.00186835,0.00154442,-0.12410080,0.21633363,-0.0001580
 0,-0.00049748,0.00020739,0.00026743,0.00045367,0.00061081,0.00049200,0
 .00080191,0.00013417,-0.00010870,-0.00003486,0.00018937,0.00001198,0.0
 0002078,-0.00000380,-0.00004681,0.00002881,-0.00000869,0.00000439,0.00
 001692,0.00000324,0.00001171,-0.00000539,-0.00000176,-0.00000088,-0.00
 001047,0.00000195,0.00001583,0.00011668,0.00003339,-0.06080954,0.07434
 692,-0.09127656,0.01094420,-0.01519667,0.00921384,0.06646128,-0.081569
 14,0.08878718,-0.00099833,0.00333139,-0.00127282,0.00088772,-0.0007706
 2,0.00054706,-0.01151677,-0.01588064,-0.01750832,-0.00022684,0.0000290
 7,0.00006360,0.00008649,0.00000376,0.00009772,0.00005502,-0.00008076,-
 0.00006796,-0.00003447,-0.00000036,-0.00006332,-0.00003905,0.00001996,
 0.00005979,0.00002294,-0.00004063,0.00003786,0.00012804,-0.00026281,-0
 .00001841,-0.07537749,-0.01604501,-0.07460522,0.00973513,0.00596333,0.
 02321117,-0.00434144,-0.00409839,-0.01711001,0.08170540,-0.00673721,0.
 00446834,-0.00490653,0.00345866,0.00009320,0.00104375,-0.01577176,-0.0
 2230828,-0.02586795,-0.00042164,0.00014096,0.00095558,0.00025474,0.000
 10663,0.00012195,-0.00007066,-0.00021568,-0.00010194,0.00001505,0.0000
 0414,-0.00005892,-0.00005346,-0.00000678,0.00010010,0.00000411,-0.0000
 3873,0.00005079,0.00021908,-0.00031085,0.00006236,-0.01387922,-0.06021
 366,-0.04568138,-0.00065274,0.00008684,-0.00633748,0.00600654,0.007968
 12,0.02156236,0.02769708,0.07019277,-0.00158249,0.00167731,0.00017292,
 0.00111333,0.00095097,0.00029275,-0.00036466,-0.00218461,0.00969048,0.
 00026551,-0.00016820,-0.00059547,-0.00002256,-0.00000952,0.00001631,0.
 00004280,0.00010427,0.00002828,0.00002402,-0.00002629,-0.00001763,0.00
 003433,-0.00001371,-0.00003370,-0.00000196,0.00000066,0.00001158,-0.00
 001007,-0.00007599,0.00008373,-0.07820300,-0.05461674,-0.28789683,-0.0
 0672551,-0.00255432,-0.01661482,-0.00108215,-0.00202316,-0.00783685,0.
 08650272,0.05897190,0.30273064,0.01006084,0.00248728,-0.00196549,-0.00
 562580,-0.00233148,0.00153357,-0.00294347,-0.00509090,0.00060752,-0.03
 271476,0.03145816,0.01908905,0.00196911,-0.00254051,0.00155259,-0.0003
 1032,0.00100111,-0.00038922,0.00057432,-0.00040751,0.00027450,-0.00041
 715,0.00013895,0.00016527,-0.00014009,0.00032513,0.00032752,-0.1351283
 8,0.05114375,0.06944556,0.00124692,0.00093905,-0.00013060,-0.00022430,
 -0.00026278,0.00002398,-0.00013592,-0.00031380,0.00005626,-0.00015143,
 -0.00017774,0.00000631,0.40151370,0.00603110,-0.00928378,-0.00273508,-
 0.00133590,0.00251835,0.00171800,-0.00062801,0.00369867,-0.00112679,0.
 02841041,-0.01688444,-0.03196518,0.00142889,0.00042089,-0.00054792,0.0
 0256316,-0.00537120,0.00177962,0.00091405,0.00038720,-0.00121433,-0.00
 010258,0.00015643,0.00024041,-0.00031185,0.00003739,0.00030205,0.04945
 098,-0.12546748,-0.01710609,-0.00062438,-0.00134993,-0.00006026,0.0000
 5378,0.00000170,0.00004000,-0.00005045,0.00018214,-0.00004648,0.000148
 05,0.00007584,0.00007133,-0.17350962,0.64401345,-0.01187938,-0.0046738
 6,0.00774919,0.00618675,0.00342522,-0.00453982,0.00283103,0.00977907,-
 0.00297831,0.02456932,-0.03395597,0.00822880,-0.00702197,0.00643443,-0
 .00058605,-0.00421661,0.00665440,-0.00216292,-0.00170232,0.00100150,0.
 00215701,0.00111984,-0.00040219,-0.00057611,0.00080071,-0.00065865,-0.
 00095616,0.06597156,-0.01953477,-0.17848744,-0.00205411,-0.00101820,0.
 00030645,0.00053264,0.00058133,0.00008194,0.00024117,0.00051318,-0.000
 08176,0.00028364,0.00014713,-0.00014259,-0.06045450,-0.28757967,0.8294
 2143,-0.00137853,-0.00037853,0.00006918,0.00046445,0.00006060,0.000079
 35,0.00028126,0.00076131,-0.00010217,0.00333645,-0.00102004,0.00348864
 ,0.00003182,-0.00016100,-0.00051262,-0.00031314,0.00076905,-0.00014112
 ,-0.00019803,-0.00002840,0.00019218,-0.00001452,-0.00005104,0.00000511
 ,0.00002483,-0.00000592,-0.00003939,-0.01587810,0.03063707,0.00624982,
 -0.00013862,-0.00018748,-0.00005481,0.00002097,0.00002263,-0.00000639,
 0.00001272,0.00004516,-0.00000899,0.00001551,0.00001596,0.00000820,-0.
 13021147,0.05629150,-0.01177111,0.53972225,0.00040044,0.00049250,0.000
 26812,-0.00049059,0.00008339,-0.00001830,-0.00015817,-0.00025132,-0.00
 000997,0.00060652,0.00378703,0.00062206,0.00017663,-0.00044900,-0.0002
 8084,0.00025829,-0.00037699,0.00009126,0.00001652,-0.00001185,-0.00012
 076,-0.00005913,0.00000627,0.00002912,-0.00001349,0.00003835,-0.000027
 55,0.01967914,-0.01156480,-0.00278339,0.00007972,0.00011524,-0.0000140
 4,-0.00000642,-0.00000701,0.00000346,-0.00000235,-0.00001460,0.0000020
 5,-0.00001292,-0.00001878,-0.00000934,0.05822752,-0.17423233,0.0119693
 1,0.02237406,0.52447065,0.00083765,0.00049288,-0.00042728,-0.00065404,
 -0.00013065,0.00030728,-0.00022939,-0.00016805,0.00009009,0.00407050,0
 .00133909,-0.00244606,0.00057342,-0.00049914,-0.00010088,0.00082618,-0
 .00161095,0.00042800,0.00031419,-0.00002663,-0.00050354,-0.00006313,0.
 00002905,0.00004999,-0.00007494,0.00006275,0.00002729,0.02434926,-0.02
 757392,0.00347170,0.00003450,-0.00008462,-0.00006131,-0.00003050,-0.00
 003866,-0.00000438,-0.00001342,-0.00000598,-0.00000210,-0.00000281,-0.
 00000507,0.00001663,-0.01317425,0.01307191,-0.08166673,-0.04329630,0.0
 1651516,0.60228052,-0.00046734,0.00016781,-0.00016120,0.00015986,-0.00
 008667,0.00015828,0.00012241,-0.00010865,0.00008728,0.00051294,0.00053
 302,0.00040524,0.00011597,-0.00014136,-0.00000546,0.00001937,-0.000016
 70,-0.00002290,-0.00000256,-0.00000369,0.00000794,-0.00000318,-0.00000
 258,-0.00000380,-0.00001446,0.00003344,0.00003199,0.00072800,0.0011774
 5,0.00124149,0.00002172,0.00003319,-0.00002446,-0.00000594,-0.00000244
 ,-0.00000298,0.00000371,-0.00000039,0.00000125,-0.00000508,0.00000207,
 0.00000178,-0.01465235,-0.00733841,-0.01398054,-0.17986608,-0.04788780
 ,-0.12888317,0.19283186,0.00114372,0.00002070,0.00042975,-0.00080012,0
 .00031221,-0.00024199,-0.00031375,0.00013925,-0.00018018,-0.00079342,-
 0.00030019,-0.00031660,-0.00012118,0.00005753,0.00007954,-0.00007168,-
 0.00000360,-0.00002123,0.00001876,-0.00000012,0.00001183,-0.00001025,0
 .00000548,-0.00000311,0.00002221,0.00000465,-0.00001899,-0.00081830,-0
 .00105567,-0.00131645,-0.00001132,-0.00003722,0.00003043,0.00001101,-0
 .00000155,0.00001493,-0.00001101,-0.00000120,-0.00000178,0.00001092,-0
 .00000870,-0.00000462,0.02144017,0.01145302,0.02115931,-0.04573931,-0.
 06052226,-0.04833161,0.05148603,0.06519208,-0.00001524,0.00004226,-0.0
 0009207,0.00003483,0.00005439,-0.00009442,0.00001410,-0.00009458,0.000
 06605,-0.00013524,0.00034056,0.00009853,0.00008465,-0.00007989,-0.0000
 4893,0.00000946,-0.00000385,0.00005282,-0.00000224,-0.00000172,-0.0000
 1467,-0.00000064,0.00000516,0.00000484,-0.00000621,-0.00001196,-0.0000
 0690,0.00130739,-0.00087722,-0.00030097,0.00000370,0.00001377,0.000013
 49,-0.00000482,-0.00000031,-0.00000581,0.00000132,-0.00000534,-0.00000
 105,-0.00000412,-0.00000079,-0.00000138,-0.00495835,0.00027209,-0.0076
 0460,-0.12922291,-0.05011689,-0.16659829,0.14202685,0.05093193,0.17874
 249,-0.00006038,0.00000124,-0.00008593,0.00009179,-0.00000896,0.000010
 08,0.00003525,-0.00002500,0.00003768,0.00015444,-0.00024203,-0.0002004
 3,0.00003271,0.00001322,0.00002208,0.00003709,-0.00002443,-0.00000040,
 0.00000394,-0.00000081,-0.00000786,-0.00001888,0.00000884,0.00000901,-
 0.00000192,-0.00000882,0.00000430,-0.00124280,-0.00037503,0.00005021,-
 0.00000803,0.00000335,0.00000356,-0.00000337,-0.00000070,-0.00000320,0
 .00000255,-0.00000034,0.00000001,-0.00000090,0.00000185,0.00000039,0.0
 1503520,0.01392755,-0.00716874,-0.13451071,-0.11291941,0.06795858,-0.0
 1238624,-0.01639703,0.01047996,0.14428606,-0.00040587,0.00013248,0.000
 07572,0.00018050,-0.00003107,-0.00010096,0.00010340,0.00006237,-0.0000
 1021,0.00063270,0.00009976,0.00013870,-0.00009506,0.00001840,-0.000080
 64,-0.00004263,0.00003064,0.00001722,-0.00001080,0.00000724,-0.0000051
 7,0.00005391,-0.00001291,-0.00000919,0.00000918,-0.00002693,-0.0000305
 1,0.00142931,0.00193247,-0.00082523,-0.00001041,0.00002722,0.00000514,
 0.00000622,0.00000983,-0.00000146,0.00000589,0.00000421,0.00000017,-0.
 00000127,0.00000107,-0.00000347,-0.02150695,-0.01752987,0.01109561,-0.
 11147086,-0.19157146,0.07828419,-0.00349237,-0.00547558,0.00287468,0.1
 2233859,0.20493157,0.00010451,-0.00005116,-0.00008982,0.00001721,0.000
 00050,-0.00000933,-0.00001189,-0.00010645,0.00004271,-0.00061131,-0.00
 002120,-0.00012766,0.00001488,0.00006840,0.00002899,0.00001658,0.00002
 279,0.00004413,-0.00000058,0.00000697,-0.00001407,0.00001493,0.0000015
 4,0.00001590,-0.00001318,-0.00002659,-0.00000690,0.00108055,-0.0014406
 9,-0.00025534,0.00001885,0.00001201,0.00001092,-0.00000297,-0.00000375
 ,-0.00000215,-0.00000259,-0.00000491,0.00000115,-0.00000318,-0.0000003
 9,-0.00000052,0.00305687,0.00572519,-0.00644107,0.06800663,0.08000039,
 -0.08935857,-0.01185671,-0.01702597,0.00957184,-0.07047366,-0.08932117
 ,0.09398831,-0.00045408,-0.00010292,0.00003745,0.00021011,0.00004095,0
 .00001074,0.00011663,0.00017573,-0.00003124,0.00024020,-0.00022140,0.0
 0070864,-0.00007395,0.00006673,0.00001424,-0.00014368,0.00031036,-0.00
 010158,-0.00006855,0.00000603,0.00009980,0.00002206,-0.00001909,-0.000
 00263,0.00000825,-0.00001237,0.00000084,-0.00231595,0.00514868,-0.0004
 5249,-0.00002839,-0.00001720,-0.00000469,0.00000996,0.00000923,0.00000
 104,0.00000449,0.00001157,-0.00000004,0.00000382,0.00000585,-0.0000010
 5,-0.00973027,0.00353608,0.01795330,-0.10005149,0.03928453,0.10289895,
 0.01238299,-0.00754259,-0.01934762,-0.00727213,0.00710712,0.01281017,0
 .10605616,0.00028348,0.00036855,-0.00013918,-0.00022205,-0.00015364,0.
 00005787,-0.00007305,-0.00024828,0.00006393,0.00062805,0.00090157,-0.0
 0067425,0.00014332,-0.00016896,0.00000271,0.00019616,-0.00044438,0.000
 14973,0.00009471,-0.00000647,-0.00014904,-0.00000215,0.00001211,0.0000
 1842,-0.00002515,0.00000944,-0.00000110,0.00461076,-0.00530364,0.00080
 370,0.00006419,0.00006037,-0.00001339,-0.00001281,-0.00001459,-0.00000
 002,-0.00000475,-0.00001293,0.00000264,-0.00000906,-0.00000707,0.00000
 218,0.00901009,-0.00691566,-0.02647697,0.03768280,-0.07751898,-0.07208
 676,0.00350780,-0.00346667,-0.00539347,-0.00886186,0.01009416,0.020254
 56,-0.04531845,0.08066760,-0.00009843,0.00003007,-0.00004297,0.0000456
 8,-0.00006333,0.00005319,0.00002545,-0.00007947,0.00002184,-0.00038299
 ,0.00044219,0.00046672,0.00005123,-0.00009525,-0.00000939,-0.00004170,
 0.00009432,-0.00003141,-0.00002190,0.00000023,0.00003763,-0.00001053,0
 .00000065,-0.00000407,-0.00000143,0.00001796,0.00001320,-0.00123482,0.
 00135611,0.00064380,0.00001918,0.00002975,-0.00000721,-0.00000186,-0.0
 0000141,0.00000089,0.00000054,-0.00000248,0.00000201,-0.00000274,-0.00
 000030,-0.00000075,-0.00399026,0.00362735,0.00517619,0.10731774,-0.078
 52800,-0.25220767,0.01003017,-0.00530270,-0.01511626,0.00257200,-0.003
 86709,-0.00794666,-0.11370235,0.08245962,0.26799522,-0.00402285,-0.001
 84480,-0.00100231,0.00289727,0.00028231,-0.00113845,0.00106406,0.00051
 855,0.00040053,-0.00267886,-0.00719982,0.00001786,0.00016010,0.0005662
 2,0.00210072,0.00141154,-0.00030236,0.00125980,-0.00010171,0.00003031,
 -0.00014953,0.00002993,0.00005599,-0.00004603,-0.00051026,-0.00002037,
 0.00045089,0.01147136,-0.00725249,0.04788239,-0.00037458,-0.00030554,0
 .00018597,0.00004743,0.00012224,-0.00002895,0.00004376,0.00004026,-0.0
 0002337,0.00005175,0.00008343,-0.00000596,-0.09801439,0.02114563,-0.00
 024068,0.01865042,0.02044692,-0.01544128,0.00050440,-0.00150285,-0.000
 26488,-0.00417368,0.00516940,-0.00216511,0.00108380,-0.00169201,-0.000
 57298,0.07246051,-0.00496307,0.00142165,0.00269165,0.00265864,-0.00146
 220,-0.00378648,0.00088936,0.00053842,-0.00035075,0.00439885,-0.007006
 05,-0.00165033,-0.00213234,0.00081840,-0.00132723,-0.00174660,0.002581
 21,-0.00123807,-0.00052659,0.00010561,0.00055434,0.00047668,-0.0001152
 3,-0.00039465,0.00053165,-0.00028629,-0.00063706,-0.01390203,0.0316362
 3,0.02129248,-0.00014194,0.00077918,0.00022701,0.00010311,0.00019780,0
 .00003291,0.00010271,-0.00000045,0.00000937,-0.00000110,-0.00000939,-0
 .00008866,0.02997009,-0.30591039,0.30153981,0.01038243,-0.01245405,0.0
 4076700,0.00214024,-0.00631217,0.00205117,0.00256979,-0.00270360,0.001
 90991,-0.00246885,0.00214746,-0.00011823,-0.02834104,0.29603386,0.0041
 9836,0.00362956,-0.00322278,-0.00190008,-0.00245270,0.00053150,-0.0010
 2290,-0.00465211,0.00175950,-0.01293069,0.01661415,-0.00328942,0.00273
 711,-0.00272788,-0.00058848,0.00082684,-0.00181138,0.00074844,0.000628
 71,-0.00046902,-0.00053570,-0.00057752,0.00013543,0.00007614,-0.000080
 32,0.00038198,0.00048449,0.05341616,0.01192661,-0.09856803,0.00093522,
 0.00058063,-0.00020577,-0.00029179,-0.00029544,-0.00008019,-0.00008828
 ,-0.00025251,0.00002805,-0.00014463,-0.00005517,0.00009721,-0.01107633
 ,0.31553386,-0.56689745,-0.00026106,0.02240815,-0.01329470,0.00094895,
 0.00010752,0.00133529,-0.00320763,0.00176369,0.00054812,-0.00089148,0.
 00111882,0.00095569,-0.03121864,-0.36148421,0.68011810\\0.00000029,-0.
 00000204,0.00000066,0.00000043,0.00000004,0.00000017,-0.00000066,0.000
 00113,-0.00000065,-0.00000051,-0.00000048,0.00000042,0.00000019,0.0000
 0005,-0.00000030,-0.00000050,0.00000046,-0.00000057,0.00000026,0.00000
 051,0.00000004,0.00000005,0.00000011,-0.00000002,-0.00000026,0.0000001
 8,0.00000001,-0.00000092,0.00000069,0.00000014,0.00000056,0.00000122,-
 0.00000034,0.00000056,0.00000016,-0.00000002,0.00000037,-0.00000006,-0
 .00000081,0.00000024,-0.00000053,-0.00000003,0.00000026,0.00000125,0.0
 0000253,0.00000160,0.00000078,0.00000091,-0.00000079,-0.00000107,-0.00
 000150,-0.00000101,0.00000005,0.,0.00000006,-0.00000132,-0.00000020,-0
 .00000024,-0.00000114,-0.00000043\\\@

 Job cpu time:       0 days  3 hours 22 minutes 36.9 seconds.
 Elapsed time:       0 days  0 hours  8 minutes 28.7 seconds.
 File lengths (MBytes):  RWF=    239 Int=      0 D2E=      0 Chk=     23 Scr=      1
 Normal termination of Gaussian 16 at Thu Oct  3 09:39:23 2019.
