 Entering Gaussian System, Link 0=g16
 Initial command:
 /opt/gaussian/16.B.01/g16/l1.exe "/oasis/scratch/comet/mayes/temp_project/Gau-8616.inp" -scrdir="/oasis/scratch/comet/mayes/temp_project/"
 Entering Link 1 = /opt/gaussian/16.B.01/g16/l1.exe PID=      8617.
  
 Copyright (c) 1988-2017, Gaussian, Inc.  All Rights Reserved.
  
 This is part of the Gaussian(R) 16 program.  It is based on
 the Gaussian(R) 09 system (copyright 2009, Gaussian, Inc.),
 the Gaussian(R) 03 system (copyright 2003, Gaussian, Inc.),
 the Gaussian(R) 98 system (copyright 1998, Gaussian, Inc.),
 the Gaussian(R) 94 system (copyright 1995, Gaussian, Inc.),
 the Gaussian 92(TM) system (copyright 1992, Gaussian, Inc.),
 the Gaussian 90(TM) system (copyright 1990, Gaussian, Inc.),
 the Gaussian 88(TM) system (copyright 1988, Gaussian, Inc.),
 the Gaussian 86(TM) system (copyright 1986, Carnegie Mellon
 University), and the Gaussian 82(TM) system (copyright 1983,
 Carnegie Mellon University). Gaussian is a federally registered
 trademark of Gaussian, Inc.
  
 This software contains proprietary and confidential information,
 including trade secrets, belonging to Gaussian, Inc.
  
 This software is provided under written license and may be
 used, copied, transmitted, or stored only in accord with that
 written license.
  
 The following legend is applicable only to US Government
 contracts under FAR:

                    RESTRICTED RIGHTS LEGEND
  
 Use, reproduction and disclosure by the US Government is
 subject to restrictions as set forth in subparagraphs (a)
 and (c) of the Commercial Computer Software - Restricted
 Rights clause in FAR 52.227-19.
  
 Gaussian, Inc.
 340 Quinnipiac St., Bldg. 40, Wallingford CT 06492
  
  
 ---------------------------------------------------------------
 Warning -- This program may not be used in any manner that
 competes with the business of Gaussian, Inc. or will provide
 assistance to any competitor of Gaussian, Inc.  The licensee
 of this program is prohibited from giving any competitor of
 Gaussian, Inc. access to this program.  By using this program,
 the user acknowledges that Gaussian, Inc. is engaged in the
 business of creating and licensing software in the field of
 computational chemistry and represents and warrants to the
 licensee that it is not a competitor of Gaussian, Inc. and that
 it will not use this program in any manner prohibited above.
 ---------------------------------------------------------------
  

 Cite this work as:
 Gaussian 16, Revision B.01,
 M. J. Frisch, G. W. Trucks, H. B. Schlegel, G. E. Scuseria, 
 M. A. Robb, J. R. Cheeseman, G. Scalmani, V. Barone, 
 G. A. Petersson, H. Nakatsuji, X. Li, M. Caricato, A. V. Marenich, 
 J. Bloino, B. G. Janesko, R. Gomperts, B. Mennucci, H. P. Hratchian, 
 J. V. Ortiz, A. F. Izmaylov, J. L. Sonnenberg, D. Williams-Young, 
 F. Ding, F. Lipparini, F. Egidi, J. Goings, B. Peng, A. Petrone, 
 T. Henderson, D. Ranasinghe, V. G. Zakrzewski, J. Gao, N. Rega, 
 G. Zheng, W. Liang, M. Hada, M. Ehara, K. Toyota, R. Fukuda, 
 J. Hasegawa, M. Ishida, T. Nakajima, Y. Honda, O. Kitao, H. Nakai, 
 T. Vreven, K. Throssell, J. A. Montgomery, Jr., J. E. Peralta, 
 F. Ogliaro, M. J. Bearpark, J. J. Heyd, E. N. Brothers, K. N. Kudin, 
 V. N. Staroverov, T. A. Keith, R. Kobayashi, J. Normand, 
 K. Raghavachari, A. P. Rendell, J. C. Burant, S. S. Iyengar, 
 J. Tomasi, M. Cossi, J. M. Millam, M. Klene, C. Adamo, R. Cammi, 
 J. W. Ochterski, R. L. Martin, K. Morokuma, O. Farkas, 
 J. B. Foresman, and D. J. Fox, Gaussian, Inc., Wallingford CT, 2016.
 
 ******************************************
 Gaussian 16:  ES64L-G16RevB.01 20-Dec-2017
                 2-Oct-2019 
 ******************************************
 %RWF=/oasis/scratch/comet/mayes/temp_project/lme2acetoxprpnt_ts3_ircf_opt.rwf
 %NoSave
 %OldChk=/oasis/scratch/comet/mayes/temp_project/lme2acetoxprpnt_ts3_ircf.chk
 %Chk=/oasis/scratch/comet/mayes/temp_project/lme2acetoxprpnt_ts3_ircf_opt.chk
 %cpu=0-23
 SetSPE:  set environment variable "MP_BIND" = "yes"
 SetSPE:  set environment variable "MP_BLIST" = "0,1,2,3,4,5,6,7,8,9,10,11,12,13,14,15,16,17,18,19,20,21,22,23"
 Will use up to   24 processors via shared memory.
 %mem=112GB
 Copying data from "/oasis/scratch/comet/mayes/temp_project/lme2acetoxprpnt_ts3_ircf.chk" to current chk file "/oasis/scratch/comet/mayes/temp_project/lme2acetoxprpnt_ts3_ircf_opt.chk"
 IOpt=  2 FromEx=T IUOpen= 4 IOptOp= 5 NList=   0 IFRang= 0 IUIn= 4 IUOut= 2.
 ----------------------------------------------------------------------
 # m062x/Def2TZVP nosymm scf=xqc opt freq=NoRaman CPHF=Grid=Fine guess=
 read geom=allcheck
 ----------------------------------------------------------------------
 1/18=20,19=15,26=3,29=7,38=1/1,3;
 2/9=110,12=2,15=1,40=1/2;
 3/5=44,7=101,11=2,14=-4,25=1,30=1,71=1,74=-55,116=-2/1,2,3;
 4/5=1/1;
 5/5=2,8=3,13=1,38=6/2,8;
 6/7=2,8=2,9=2,10=2,28=1/1;
 7/30=1/1,2,3,16;
 1/18=20,19=15,26=3/3(2);
 2/9=110,15=1/2;
 99//99;
 2/9=110,15=1/2;
 3/5=44,7=101,11=2,14=-2,25=1,30=1,71=1,74=-55/1,2,3;
 4/5=5,16=3,69=1/1;
 5/5=2,8=3,13=1,38=5/2,8;
 7/30=1/1,2,3,16;
 1/18=20,19=15,26=3/3(-5);
 2/9=110,15=1/2;
 6/7=2,8=2,9=2,10=2,19=2,28=1/1;
 99/9=1/99;
 Structure from the checkpoint file:  "/oasis/scratch/comet/mayes/temp_project/lme2acetoxprpnt_ts3_ircf_opt.chk"
 ----------------------------------
 based on lme2acetoxprpnt_scan3.log
 ----------------------------------
 Charge =  0 Multiplicity = 1
 No Z-Matrix found in chk file; cartesian coordinates used.
  C                                                -0.366214512956      0.923088297596      0.171878631609
  O                                                 0.545159324010      1.171907195366      0.905355412599
  O                                                -1.072109189288      1.838307893599     -0.497072668303
  C                                                -0.918853981721     -0.466167898923     -0.109429122408
  H                                                -1.017868477465     -0.555580336902     -1.191202638113
  C                                                -2.256474798901     -0.688972864737      0.598333087245
  H                                                -2.961374704065     -1.205398296815     -0.050518437242
  H                                                -2.089026130281     -1.295379746801      1.487324150103
  H                                                -2.703717211015      0.256831186155      0.901577458031
  O                                                 0.000670639138     -1.434224477021      0.369199311456
  C                                                -0.663656561136      3.191086094294     -0.295212594320
  H                                                 0.371891566219      3.318572075557     -0.605972883833
  H                                                -1.325750162429      3.796423526684     -0.906225851174
  H                                                -0.755861652913      3.460098338887      0.756057818877
  C                                                 1.181425014059     -1.489816804198     -0.284213972708
  C                                                 2.138120610450     -2.412018451971      0.407588888093
  H                                                 2.460331438602     -1.933757447127      1.333284634622
  H                                                 1.644681273441     -3.346826829954      0.667040099720
  H                                                 2.996073102909     -2.590198378297     -0.232690448257
  O                                                 1.403779240132     -0.862542523156     -1.280336208538
 Recover connectivity data from disk.

 GradGradGradGradGradGradGradGradGradGradGradGradGradGradGradGradGradGrad
 Berny optimization.
 Initialization pass.
                           ----------------------------
                           !    Initial Parameters    !
                           ! (Angstroms and Degrees)  !
 --------------------------                            --------------------------
 ! Name  Definition              Value          Derivative Info.                !
 --------------------------------------------------------------------------------
 ! R1    R(1,2)                  1.196          estimate D2E/DX2                !
 ! R2    R(1,3)                  1.3354         estimate D2E/DX2                !
 ! R3    R(1,4)                  1.5214         estimate D2E/DX2                !
 ! R4    R(3,11)                 1.4274         estimate D2E/DX2                !
 ! R5    R(4,5)                  1.09           estimate D2E/DX2                !
 ! R6    R(4,6)                  1.5296         estimate D2E/DX2                !
 ! R7    R(4,10)                 1.4184         estimate D2E/DX2                !
 ! R8    R(6,7)                  1.0884         estimate D2E/DX2                !
 ! R9    R(6,8)                  1.0891         estimate D2E/DX2                !
 ! R10   R(6,9)                  1.0893         estimate D2E/DX2                !
 ! R11   R(10,15)                1.3506         estimate D2E/DX2                !
 ! R12   R(11,12)                1.0887         estimate D2E/DX2                !
 ! R13   R(11,13)                1.0854         estimate D2E/DX2                !
 ! R14   R(11,14)                1.0891         estimate D2E/DX2                !
 ! R15   R(15,16)                1.4981         estimate D2E/DX2                !
 ! R16   R(15,20)                1.198          estimate D2E/DX2                !
 ! R17   R(16,17)                1.0906         estimate D2E/DX2                !
 ! R18   R(16,18)                1.0884         estimate D2E/DX2                !
 ! R19   R(16,19)                1.0853         estimate D2E/DX2                !
 ! A1    A(2,1,3)              124.569          estimate D2E/DX2                !
 ! A2    A(2,1,4)              125.4617         estimate D2E/DX2                !
 ! A3    A(3,1,4)              109.9491         estimate D2E/DX2                !
 ! A4    A(1,3,11)             115.3024         estimate D2E/DX2                !
 ! A5    A(1,4,5)              106.943          estimate D2E/DX2                !
 ! A6    A(1,4,6)              111.4141         estimate D2E/DX2                !
 ! A7    A(1,4,10)             108.9871         estimate D2E/DX2                !
 ! A8    A(5,4,6)              111.582          estimate D2E/DX2                !
 ! A9    A(5,4,10)             109.7441         estimate D2E/DX2                !
 ! A10   A(6,4,10)             108.1415         estimate D2E/DX2                !
 ! A11   A(4,6,7)              111.0772         estimate D2E/DX2                !
 ! A12   A(4,6,8)              108.9259         estimate D2E/DX2                !
 ! A13   A(4,6,9)              111.1851         estimate D2E/DX2                !
 ! A14   A(7,6,8)              108.7848         estimate D2E/DX2                !
 ! A15   A(7,6,9)              108.182          estimate D2E/DX2                !
 ! A16   A(8,6,9)              108.6239         estimate D2E/DX2                !
 ! A17   A(4,10,15)            115.569          estimate D2E/DX2                !
 ! A18   A(3,11,12)            110.0472         estimate D2E/DX2                !
 ! A19   A(3,11,13)            105.9249         estimate D2E/DX2                !
 ! A20   A(3,11,14)            110.2658         estimate D2E/DX2                !
 ! A21   A(12,11,13)           110.7463         estimate D2E/DX2                !
 ! A22   A(12,11,14)           109.0963         estimate D2E/DX2                !
 ! A23   A(13,11,14)           110.7317         estimate D2E/DX2                !
 ! A24   A(10,15,16)           111.1134         estimate D2E/DX2                !
 ! A25   A(10,15,20)           122.8862         estimate D2E/DX2                !
 ! A26   A(16,15,20)           125.9986         estimate D2E/DX2                !
 ! A27   A(15,16,17)           108.0999         estimate D2E/DX2                !
 ! A28   A(15,16,18)           110.4423         estimate D2E/DX2                !
 ! A29   A(15,16,19)           109.4797         estimate D2E/DX2                !
 ! A30   A(17,16,18)           107.9532         estimate D2E/DX2                !
 ! A31   A(17,16,19)           109.828          estimate D2E/DX2                !
 ! A32   A(18,16,19)           110.9788         estimate D2E/DX2                !
 ! D1    D(2,1,3,11)             0.4732         estimate D2E/DX2                !
 ! D2    D(4,1,3,11)           178.9123         estimate D2E/DX2                !
 ! D3    D(2,1,4,5)           -132.4478         estimate D2E/DX2                !
 ! D4    D(2,1,4,6)            105.377          estimate D2E/DX2                !
 ! D5    D(2,1,4,10)           -13.8741         estimate D2E/DX2                !
 ! D6    D(3,1,4,5)             49.1303         estimate D2E/DX2                !
 ! D7    D(3,1,4,6)            -73.045          estimate D2E/DX2                !
 ! D8    D(3,1,4,10)           167.7039         estimate D2E/DX2                !
 ! D9    D(1,3,11,12)           59.8895         estimate D2E/DX2                !
 ! D10   D(1,3,11,13)          179.6414         estimate D2E/DX2                !
 ! D11   D(1,3,11,14)          -60.5064         estimate D2E/DX2                !
 ! D12   D(1,4,6,7)            138.1894         estimate D2E/DX2                !
 ! D13   D(1,4,6,8)           -102.0105         estimate D2E/DX2                !
 ! D14   D(1,4,6,9)             17.6572         estimate D2E/DX2                !
 ! D15   D(5,4,6,7)             18.7329         estimate D2E/DX2                !
 ! D16   D(5,4,6,8)            138.533          estimate D2E/DX2                !
 ! D17   D(5,4,6,9)           -101.7993         estimate D2E/DX2                !
 ! D18   D(10,4,6,7)          -102.0576         estimate D2E/DX2                !
 ! D19   D(10,4,6,8)            17.7425         estimate D2E/DX2                !
 ! D20   D(10,4,6,9)           137.4102         estimate D2E/DX2                !
 ! D21   D(1,4,10,15)          -67.1709         estimate D2E/DX2                !
 ! D22   D(5,4,10,15)           49.6327         estimate D2E/DX2                !
 ! D23   D(6,4,10,15)          171.5607         estimate D2E/DX2                !
 ! D24   D(4,10,15,16)         172.6075         estimate D2E/DX2                !
 ! D25   D(4,10,15,20)          -6.9293         estimate D2E/DX2                !
 ! D26   D(10,15,16,17)        -71.4354         estimate D2E/DX2                !
 ! D27   D(10,15,16,18)         46.4634         estimate D2E/DX2                !
 ! D28   D(10,15,16,19)        168.9518         estimate D2E/DX2                !
 ! D29   D(20,15,16,17)        108.0837         estimate D2E/DX2                !
 ! D30   D(20,15,16,18)       -134.0175         estimate D2E/DX2                !
 ! D31   D(20,15,16,19)        -11.5291         estimate D2E/DX2                !
 --------------------------------------------------------------------------------
 Trust Radius=3.00D-01 FncErr=1.00D-07 GrdErr=1.00D-06 EigMax=2.50D+02 EigMin=1.00D-04
 Number of steps in this run=     92 maximum allowed number of steps=    120.
 GradGradGradGradGradGradGradGradGradGradGradGradGradGradGradGradGradGrad

                          Input orientation:                          
 ---------------------------------------------------------------------
 Center     Atomic      Atomic             Coordinates (Angstroms)
 Number     Number       Type             X           Y           Z
 ---------------------------------------------------------------------
      1          6           0       -0.366215    0.923088    0.171879
      2          8           0        0.545159    1.171907    0.905355
      3          8           0       -1.072109    1.838308   -0.497073
      4          6           0       -0.918854   -0.466168   -0.109429
      5          1           0       -1.017868   -0.555580   -1.191203
      6          6           0       -2.256475   -0.688973    0.598333
      7          1           0       -2.961375   -1.205398   -0.050518
      8          1           0       -2.089026   -1.295380    1.487324
      9          1           0       -2.703717    0.256831    0.901577
     10          8           0        0.000671   -1.434224    0.369199
     11          6           0       -0.663657    3.191086   -0.295213
     12          1           0        0.371892    3.318572   -0.605973
     13          1           0       -1.325750    3.796424   -0.906226
     14          1           0       -0.755862    3.460098    0.756058
     15          6           0        1.181425   -1.489817   -0.284214
     16          6           0        2.138121   -2.412018    0.407589
     17          1           0        2.460331   -1.933757    1.333285
     18          1           0        1.644681   -3.346827    0.667040
     19          1           0        2.996073   -2.590198   -0.232690
     20          8           0        1.403779   -0.862543   -1.280336
 ---------------------------------------------------------------------
                    Distance matrix (angstroms):
                    1          2          3          4          5
     1  C    0.000000
     2  O    1.196036   0.000000
     3  O    1.335444   2.241975   0.000000
     4  C    1.521373   2.420003   2.341872   0.000000
     5  H    2.114026   3.134139   2.493082   1.089969   0.000000
     6  C    2.520652   3.377320   2.998297   1.529640   2.180453
     7  H    3.363744   4.342932   3.610108   2.172976   2.345344
     8  H    3.101625   3.655834   3.846030   2.146280   2.978118
     9  H    2.537770   3.375289   2.668227   2.174994   2.807459
    10  O    2.393839   2.715852   3.551162   1.418360   2.060168
    11  C    2.334622   2.641909   1.427442   3.670851   3.868562
    12  H    2.624537   2.631027   2.070792   4.029496   4.157281
    13  H    3.215443   3.697325   2.016422   4.355472   4.372178
    14  H    2.632396   2.636430   2.073777   4.023829   4.470587
    15  C    2.902640   2.984072   4.024940   2.342985   2.555840
    16  C    4.177343   3.953457   5.402709   3.660428   3.995343
    17  H    4.183275   3.673712   5.482410   3.956531   4.513345
    18  H    4.745636   4.656683   5.968394   3.933550   4.281740
    19  H    4.879737   4.632015   6.019275   4.455710   4.601102
    20  O    2.903495   3.107002   3.746748   2.631114   2.442652
                    6          7          8          9         10
     6  C    0.000000
     7  H    1.088388   0.000000
     8  H    1.089070   1.770324   0.000000
     9  H    1.089279   1.763800   1.769266   0.000000
    10  O    2.388013   3.000373   2.374092   3.233699   0.000000
    11  C    4.288397   4.966735   5.033636   3.768820   4.719775
    12  H    4.941566   5.646725   5.632633   4.594163   4.865988
    13  H    4.821693   5.331578   5.677863   4.206621   5.544888
    14  H    4.414919   5.223190   4.992660   3.751831   4.967534
    15  C    3.638598   4.159122   3.724514   4.421675   1.350637
    16  C    4.724165   5.260290   4.503496   5.550692   2.350797
    17  H    4.933346   5.642722   4.596510   5.626051   2.688666
    18  H    4.721009   5.129947   4.338418   5.652427   2.539592
    19  H    5.647523   6.118990   5.522068   6.471457   3.266647
    20  O    4.117886   4.548029   4.477386   4.783855   2.239755
                   11         12         13         14         15
    11  C    0.000000
    12  H    1.088662   0.000000
    13  H    1.085421   1.788989   0.000000
    14  H    1.089054   1.773974   1.789155   0.000000
    15  C    5.031431   4.886663   5.883635   5.416355   0.000000
    16  C    6.303861   6.081656   7.229748   6.555785   1.498103
    17  H    6.218949   5.975723   7.223904   6.306407   2.109262
    18  H    6.999904   6.904209   7.894597   7.218363   2.137283
    19  H    6.842571   6.476051   7.740849   7.187540   2.122838
    20  O    4.655820   4.359045   5.412601   5.243679   1.197987
                   16         17         18         19         20
    16  C    0.000000
    17  H    1.090626   0.000000
    18  H    1.088423   1.762365   0.000000
    19  H    1.085260   1.780509   1.791162   0.000000
    20  O    2.406081   3.015762   3.165751   2.572500   0.000000
 Symmetry turned off by external request.
 Stoichiometry    C6H10O4
 Framework group  C1[X(C6H10O4)]
 Deg. of freedom    54
 Full point group                 C1      NOp   1
 Rotational constants (GHZ):           2.2480672           0.8990161           0.7503166
 Standard basis: def2TZVP (5D, 7F)
   370 basis functions,   590 primitive gaussians,   420 cartesian basis functions
    39 alpha electrons       39 beta electrons
       nuclear repulsion energy       572.2745614427 Hartrees.
 NAtoms=   20 NActive=   20 NUniq=   20 SFac= 1.00D+00 NAtFMM=   60 NAOKFM=F Big=F
 Integral buffers will be    131072 words long.
 Raffenetti 2 integral format.
 Two-electron integral symmetry is turned off.
 One-electron integrals computed using PRISM.
   1 Symmetry operations used in ECPInt.
 ECPInt:  NShTT=   11325 NPrTT=   34180 LenC2=   10822 LenP2D=   25058.
 LDataN:  DoStor=T MaxTD1= 6 Len=  172
 NBasis=   370 RedAO= T EigKep=  1.36D-04  NBF=   370
 NBsUse=   370 1.00D-06 EigRej= -1.00D+00 NBFU=   370
 Initial guess from the checkpoint file:  "/oasis/scratch/comet/mayes/temp_project/lme2acetoxprpnt_ts3_ircf_opt.chk"
 B after Tr=     0.000000   -0.000000    0.000000
         Rot=    1.000000   -0.000000    0.000000    0.000000 Ang=   0.00 deg.
 Requested convergence on RMS density matrix=1.00D-08 within  32 cycles.
 Requested convergence on MAX density matrix=1.00D-06.
 Requested convergence on             energy=1.00D-06.
 No special actions if energy rises.
 SCF Done:  E(RM062X) =  -535.574260102     A.U. after    1 cycles
            NFock=  1  Conv=0.24D-08     -V/T= 2.0044
 QCSCF skips out because SCF is already converged.

 **********************************************************************

            Population analysis using the SCF Density.

 **********************************************************************

 Alpha  occ. eigenvalues --  -19.67913 -19.67397 -19.62202 -19.61650 -10.67391
 Alpha  occ. eigenvalues --  -10.67333 -10.61658 -10.59453 -10.54504 -10.54462
 Alpha  occ. eigenvalues --   -1.25348  -1.23747  -1.15400  -1.14623  -0.91116
 Alpha  occ. eigenvalues --   -0.84865  -0.82596  -0.74859  -0.69256  -0.64515
 Alpha  occ. eigenvalues --   -0.61992  -0.58529  -0.57849  -0.56920  -0.55584
 Alpha  occ. eigenvalues --   -0.54009  -0.51335  -0.49282  -0.48594  -0.47073
 Alpha  occ. eigenvalues --   -0.46343  -0.45751  -0.45301  -0.43523  -0.42356
 Alpha  occ. eigenvalues --   -0.39601  -0.38347  -0.35976  -0.35355
 Alpha virt. eigenvalues --    0.04403   0.05155   0.07018   0.08600   0.09774
 Alpha virt. eigenvalues --    0.10979   0.11695   0.12382   0.14086   0.14697
 Alpha virt. eigenvalues --    0.15604   0.15711   0.16204   0.17410   0.18094
 Alpha virt. eigenvalues --    0.19468   0.20723   0.22023   0.22993   0.24320
 Alpha virt. eigenvalues --    0.25047   0.25423   0.26607   0.27526   0.29216
 Alpha virt. eigenvalues --    0.29969   0.32775   0.32949   0.35074   0.35905
 Alpha virt. eigenvalues --    0.36422   0.36584   0.39116   0.40613   0.41091
 Alpha virt. eigenvalues --    0.41816   0.42677   0.43409   0.43976   0.45490
 Alpha virt. eigenvalues --    0.46497   0.47100   0.47361   0.48284   0.49638
 Alpha virt. eigenvalues --    0.50077   0.50537   0.50812   0.52034   0.52192
 Alpha virt. eigenvalues --    0.52687   0.54131   0.57272   0.57657   0.59384
 Alpha virt. eigenvalues --    0.59692   0.61844   0.62628   0.64287   0.65372
 Alpha virt. eigenvalues --    0.66924   0.67225   0.69649   0.71927   0.72801
 Alpha virt. eigenvalues --    0.74773   0.78191   0.79875   0.81336   0.83680
 Alpha virt. eigenvalues --    0.85720   0.87774   0.88169   0.89472   0.89549
 Alpha virt. eigenvalues --    0.90328   0.93392   0.94873   0.96108   0.96503
 Alpha virt. eigenvalues --    1.00180   1.01377   1.02893   1.05108   1.06742
 Alpha virt. eigenvalues --    1.07261   1.08923   1.09183   1.10876   1.12496
 Alpha virt. eigenvalues --    1.13690   1.16524   1.19090   1.19870   1.22925
 Alpha virt. eigenvalues --    1.25162   1.28759   1.34816   1.37927   1.39972
 Alpha virt. eigenvalues --    1.44341   1.47121   1.49928   1.51019   1.51900
 Alpha virt. eigenvalues --    1.52293   1.53439   1.54425   1.56093   1.56481
 Alpha virt. eigenvalues --    1.57701   1.58962   1.59823   1.60378   1.61762
 Alpha virt. eigenvalues --    1.61843   1.62760   1.63097   1.64466   1.65330
 Alpha virt. eigenvalues --    1.67160   1.70021   1.74543   1.76199   1.76734
 Alpha virt. eigenvalues --    1.78498   1.80108   1.82928   1.84512   1.86569
 Alpha virt. eigenvalues --    1.89542   1.89633   1.90717   1.94180   1.95940
 Alpha virt. eigenvalues --    1.98647   2.02699   2.03678   2.04268   2.06069
 Alpha virt. eigenvalues --    2.07971   2.09031   2.10691   2.12625   2.13391
 Alpha virt. eigenvalues --    2.14528   2.15257   2.16464   2.18896   2.21012
 Alpha virt. eigenvalues --    2.22172   2.24471   2.26448   2.27060   2.29575
 Alpha virt. eigenvalues --    2.30863   2.31669   2.35057   2.35752   2.36021
 Alpha virt. eigenvalues --    2.37802   2.39048   2.41014   2.41917   2.44444
 Alpha virt. eigenvalues --    2.45470   2.49233   2.49776   2.52369   2.55128
 Alpha virt. eigenvalues --    2.56039   2.56217   2.58502   2.59272   2.60054
 Alpha virt. eigenvalues --    2.61906   2.66459   2.67545   2.70977   2.72816
 Alpha virt. eigenvalues --    2.75202   2.77485   2.77789   2.78832   2.82622
 Alpha virt. eigenvalues --    2.83528   2.84556   2.89548   2.90466   2.93935
 Alpha virt. eigenvalues --    2.95747   2.96082   2.99501   2.99794   3.02436
 Alpha virt. eigenvalues --    3.04410   3.05648   3.05989   3.06595   3.08169
 Alpha virt. eigenvalues --    3.09067   3.11290   3.12886   3.13806   3.16656
 Alpha virt. eigenvalues --    3.17361   3.20033   3.21912   3.22758   3.22826
 Alpha virt. eigenvalues --    3.25012   3.25834   3.27368   3.28010   3.30116
 Alpha virt. eigenvalues --    3.31405   3.33201   3.34018   3.35169   3.37921
 Alpha virt. eigenvalues --    3.38787   3.39414   3.40956   3.42955   3.43962
 Alpha virt. eigenvalues --    3.44663   3.46807   3.48038   3.49179   3.51648
 Alpha virt. eigenvalues --    3.52955   3.54262   3.58205   3.59073   3.60933
 Alpha virt. eigenvalues --    3.63094   3.64483   3.67154   3.70058   3.74911
 Alpha virt. eigenvalues --    3.76495   3.79652   3.81851   3.84420   3.87622
 Alpha virt. eigenvalues --    3.90114   3.91923   3.97157   3.98288   4.01650
 Alpha virt. eigenvalues --    4.06861   4.11165   4.17704   4.18050   4.20228
 Alpha virt. eigenvalues --    4.29892   4.32522   4.35114   4.37246   4.39300
 Alpha virt. eigenvalues --    4.41551   4.42756   4.45639   4.51107   4.53178
 Alpha virt. eigenvalues --    4.55066   4.55411   4.63781   4.69435   4.74351
 Alpha virt. eigenvalues --    4.80844   4.83247   4.92933   5.18752   5.19363
 Alpha virt. eigenvalues --    5.22756   5.25328   5.30159   5.35346   5.42198
 Alpha virt. eigenvalues --    5.47263   5.51453   5.52987   5.64662   5.65279
 Alpha virt. eigenvalues --    5.67892   5.72143   5.79961   5.87679   5.96341
 Alpha virt. eigenvalues --    5.99485   6.03686   6.09645   6.11486   6.18986
 Alpha virt. eigenvalues --    6.21359   6.24098   6.37652   6.39701   6.41017
 Alpha virt. eigenvalues --    6.42710   6.50890   6.54429   6.63837   6.64848
 Alpha virt. eigenvalues --    6.68175   6.69417   6.76400   6.78015   6.82928
 Alpha virt. eigenvalues --    6.83567   6.89270   6.92693   7.01175   7.04136
 Alpha virt. eigenvalues --    7.10816   7.14492   7.25743   7.30971   7.36402
 Alpha virt. eigenvalues --    7.41080  22.40871  22.44042  22.44780  22.71831
 Alpha virt. eigenvalues --   23.39639  23.48304  44.04158  44.07736  44.24862
 Alpha virt. eigenvalues --   44.48773
          Condensed to atoms (all electrons):
               1          2          3          4          5          6
     1  C    4.639739   0.629561   0.335212   0.235996  -0.085869   0.006054
     2  O    0.629561   7.816709  -0.082678  -0.074496   0.003509   0.002497
     3  O    0.335212  -0.082678   7.989156  -0.081753   0.010221  -0.009817
     4  C    0.235996  -0.074496  -0.081753   5.173161   0.476428   0.191262
     5  H   -0.085869   0.003509   0.010221   0.476428   0.502045  -0.040936
     6  C    0.006054   0.002497  -0.009817   0.191262  -0.040936   5.065611
     7  H    0.003078  -0.000209  -0.000619  -0.042554  -0.009251   0.423375
     8  H   -0.012626   0.000350   0.000917  -0.027324   0.004692   0.403544
     9  H    0.006668  -0.000231   0.006522  -0.047019   0.004372   0.400057
    10  O   -0.041686   0.003408   0.003484   0.207725  -0.033162  -0.036230
    11  C   -0.053852   0.005260   0.207321   0.007343  -0.000773  -0.000625
    12  H   -0.009658   0.003712  -0.033761  -0.000190  -0.000018  -0.000335
    13  H    0.005559   0.001886  -0.030483   0.000771  -0.000264   0.000168
    14  H   -0.006996   0.003543  -0.037153  -0.001468   0.000085   0.000826
    15  C    0.013017   0.018386   0.000482  -0.077100  -0.013483   0.009283
    16  C    0.001513  -0.003094  -0.000123   0.004699   0.000974   0.001102
    17  H    0.000399   0.001765   0.000019  -0.001254   0.000000  -0.000065
    18  H    0.000148   0.000030  -0.000001  -0.000061  -0.000261  -0.000282
    19  H   -0.000206   0.000061   0.000001  -0.000207   0.000062  -0.000041
    20  O    0.008548  -0.007259  -0.000885   0.003641   0.009492   0.004620
               7          8          9         10         11         12
     1  C    0.003078  -0.012626   0.006668  -0.041686  -0.053852  -0.009658
     2  O   -0.000209   0.000350  -0.000231   0.003408   0.005260   0.003712
     3  O   -0.000619   0.000917   0.006522   0.003484   0.207321  -0.033761
     4  C   -0.042554  -0.027324  -0.047019   0.207725   0.007343  -0.000190
     5  H   -0.009251   0.004692   0.004372  -0.033162  -0.000773  -0.000018
     6  C    0.423375   0.403544   0.400057  -0.036230  -0.000625  -0.000335
     7  H    0.526900  -0.022075  -0.025420   0.001393   0.000094   0.000001
     8  H   -0.022075   0.506289  -0.016964   0.002175   0.000001   0.000013
     9  H   -0.025420  -0.016964   0.517212   0.002799  -0.000593   0.000150
    10  O    0.001393   0.002175   0.002799   8.006355  -0.000183  -0.000028
    11  C    0.000094   0.000001  -0.000593  -0.000183   4.852550   0.423368
    12  H    0.000001   0.000013   0.000150  -0.000028   0.423368   0.521121
    13  H    0.000005  -0.000009  -0.000031   0.000002   0.394185  -0.024251
    14  H   -0.000007  -0.000041  -0.000492  -0.000027   0.421420  -0.040438
    15  C   -0.000782  -0.000334  -0.000155   0.319328  -0.000137   0.000204
    16  C   -0.000029  -0.000183   0.000026  -0.080839  -0.000000   0.000021
    17  H   -0.000002   0.000011  -0.000000   0.001014   0.000002  -0.000001
    18  H    0.000009   0.000042   0.000004   0.004953   0.000001  -0.000000
    19  H   -0.000001   0.000019  -0.000000   0.005116   0.000000  -0.000000
    20  O   -0.000007  -0.000085   0.000033  -0.091236  -0.000355   0.000140
              13         14         15         16         17         18
     1  C    0.005559  -0.006996   0.013017   0.001513   0.000399   0.000148
     2  O    0.001886   0.003543   0.018386  -0.003094   0.001765   0.000030
     3  O   -0.030483  -0.037153   0.000482  -0.000123   0.000019  -0.000001
     4  C    0.000771  -0.001468  -0.077100   0.004699  -0.001254  -0.000061
     5  H   -0.000264   0.000085  -0.013483   0.000974   0.000000  -0.000261
     6  C    0.000168   0.000826   0.009283   0.001102  -0.000065  -0.000282
     7  H    0.000005  -0.000007  -0.000782  -0.000029  -0.000002   0.000009
     8  H   -0.000009  -0.000041  -0.000334  -0.000183   0.000011   0.000042
     9  H   -0.000031  -0.000492  -0.000155   0.000026  -0.000000   0.000004
    10  O    0.000002  -0.000027   0.319328  -0.080839   0.001014   0.004953
    11  C    0.394185   0.421420  -0.000137  -0.000000   0.000002   0.000001
    12  H   -0.024251  -0.040438   0.000204   0.000021  -0.000001  -0.000000
    13  H    0.533055  -0.026265  -0.000017   0.000000  -0.000000   0.000000
    14  H   -0.026265   0.536014  -0.000048  -0.000002  -0.000001   0.000000
    15  C   -0.000017  -0.000048   4.504675   0.315403  -0.019450  -0.033069
    16  C    0.000000  -0.000002   0.315403   5.092099   0.385528   0.391889
    17  H   -0.000000  -0.000001  -0.019450   0.385528   0.501669  -0.023024
    18  H    0.000000   0.000000  -0.033069   0.391889  -0.023024   0.523221
    19  H   -0.000000  -0.000000  -0.051688   0.417634  -0.017033  -0.021280
    20  O   -0.000000   0.000033   0.631029  -0.075149   0.000253   0.002440
              19         20
     1  C   -0.000206   0.008548
     2  O    0.000061  -0.007259
     3  O    0.000001  -0.000885
     4  C   -0.000207   0.003641
     5  H    0.000062   0.009492
     6  C   -0.000041   0.004620
     7  H   -0.000001  -0.000007
     8  H    0.000019  -0.000085
     9  H   -0.000000   0.000033
    10  O    0.005116  -0.091236
    11  C    0.000000  -0.000355
    12  H   -0.000000   0.000140
    13  H   -0.000000  -0.000000
    14  H   -0.000000   0.000033
    15  C   -0.051688   0.631029
    16  C    0.417634  -0.075149
    17  H   -0.017033   0.000253
    18  H   -0.021280   0.002440
    19  H    0.505239   0.005775
    20  O    0.005775   7.843030
 Mulliken charges:
               1
     1  C    0.325401
     2  O   -0.322712
     3  O   -0.276063
     4  C    0.052402
     5  H    0.172136
     6  C   -0.420071
     7  H    0.146101
     8  H    0.161585
     9  H    0.153062
    10  O   -0.274361
    11  C   -0.255028
    12  H    0.159952
    13  H    0.145689
    14  H    0.151018
    15  C    0.384455
    16  C   -0.451468
    17  H    0.170169
    18  H    0.155240
    19  H    0.156548
    20  O   -0.334058
 Sum of Mulliken charges =  -0.00000
 Mulliken charges with hydrogens summed into heavy atoms:
               1
     1  C    0.325401
     2  O   -0.322712
     3  O   -0.276063
     4  C    0.224538
     6  C    0.040677
    10  O   -0.274361
    11  C    0.201632
    15  C    0.384455
    16  C    0.030490
    20  O   -0.334058
 Electronic spatial extent (au):  <R**2>=           1628.5332
 Charge=             -0.0000 electrons
 Dipole moment (field-independent basis, Debye):
    X=             -1.9930    Y=             -0.1852    Z=              0.5872  Tot=              2.0860
 Quadrupole moment (field-independent basis, Debye-Ang):
   XX=            -56.4769   YY=            -48.1262   ZZ=            -63.2956
   XY=             -4.2636   XZ=              1.6898   YZ=             -2.6160
 Traceless Quadrupole moment (field-independent basis, Debye-Ang):
   XX=             -0.5107   YY=              7.8400   ZZ=             -7.3294
   XY=             -4.2636   XZ=              1.6898   YZ=             -2.6160
 Octapole moment (field-independent basis, Debye-Ang**2):
  XXX=              7.7551  YYY=             24.8087  ZZZ=             -0.4482  XYY=              4.5016
  XXY=             -9.1761  XXZ=              5.3034  XZZ=             -4.4667  YZZ=              1.7052
  YYZ=             -5.3890  XYZ=             -6.0972
 Hexadecapole moment (field-independent basis, Debye-Ang**3):
 XXXX=           -711.3647 YYYY=          -1024.8804 ZZZZ=           -216.8279 XXXY=            180.2374
 XXXZ=             30.2766 YYYX=            144.5579 YYYZ=             14.3113 ZZZX=             30.5572
 ZZZY=             25.4851 XXYY=           -292.2005 XXZZ=           -160.1192 YYZZ=           -227.6663
 XXYZ=              6.3531 YYXZ=              9.0491 ZZXY=             65.5040
 N-N= 5.722745614427D+02 E-N=-2.399166813728D+03  KE= 5.332154847472D+02
   1 Symmetry operations used in ECPInt.
 ECPInt:  NShTT=   11325 NPrTT=   34180 LenC2=   10822 LenP2D=   25058.
 LDataN:  DoStor=T MaxTD1= 7 Len=  274
 Calling FoFJK, ICntrl=      2127 FMM=F ISym2X=0 I1Cent= 0 IOpClX= 0 NMat=1 NMatS=1 NMatT=0.
 -------------------------------------------------------------------
 Center     Atomic                   Forces (Hartrees/Bohr)
 Number     Number              X              Y              Z
 -------------------------------------------------------------------
      1        6          -0.000023002    0.000036570    0.000243739
      2        8           0.000063860   -0.000055923    0.000243237
      3        8           0.000128468    0.000112448    0.000219658
      4        6          -0.000088701    0.000080992   -0.000009480
      5        1          -0.000025880    0.000035660   -0.000004061
      6        6          -0.000214460   -0.000238665    0.000194084
      7        1           0.000688545   -0.000654567    0.000695074
      8        1           0.000041254    0.001154142    0.000117098
      9        1          -0.000265356   -0.000436285   -0.001058777
     10        8          -0.000287163   -0.000214743   -0.000429885
     11        6           0.000166289    0.000062258    0.000065828
     12        1           0.000012510   -0.000000823    0.000003708
     13        1           0.000014451    0.000004467    0.000002177
     14        1           0.000013333    0.000010132    0.000003515
     15        6          -0.000096599   -0.000030169   -0.000150932
     16        6          -0.000110707    0.000017298   -0.000061374
     17        1          -0.000011042    0.000007098   -0.000006280
     18        1          -0.000007305    0.000002056   -0.000000456
     19        1          -0.000005970   -0.000000164   -0.000001211
     20        8           0.000007475    0.000108219   -0.000065662
 -------------------------------------------------------------------
 Cartesian Forces:  Max     0.001154142 RMS     0.000285561

 GradGradGradGradGradGradGradGradGradGradGradGradGradGradGradGradGradGrad
 Berny optimization.
 FormGI is forming the generalized inverse of G from B-inverse, IUseBI=4.
 Internal  Forces:  Max     0.001159342 RMS     0.000345686
 Search for a local minimum.
 Step number   1 out of a maximum of   92
 All quantities printed in internal units (Hartrees-Bohrs-Radians)
 Mixed Optimization -- En-DIIS/RFO-DIIS
 Second derivative matrix not updated -- first step.
 ITU=  0
     Eigenvalues ---    0.00374   0.00483   0.00791   0.00993   0.01158
     Eigenvalues ---    0.01329   0.01449   0.02345   0.02546   0.04963
     Eigenvalues ---    0.05514   0.05526   0.05749   0.07407   0.07733
     Eigenvalues ---    0.07990   0.10291   0.10662   0.16000   0.16000
     Eigenvalues ---    0.16000   0.16000   0.16000   0.16000   0.16000
     Eigenvalues ---    0.16000   0.16000   0.17395   0.19705   0.24994
     Eigenvalues ---    0.24999   0.25000   0.25000   0.25000   0.25000
     Eigenvalues ---    0.29457   0.30235   0.32577   0.34740   0.34816
     Eigenvalues ---    0.34896   0.34920   0.34922   0.34968   0.34996
     Eigenvalues ---    0.35000   0.35347   0.35366   0.41359   0.42708
     Eigenvalues ---    0.54886   0.58238   1.05841   1.06841
 RFO step:  Lambda=-8.97781783D-04 EMin= 3.73865769D-03
 Linear search not attempted -- first point.
 Iteration  1 RMS(Cart)=  0.05508750 RMS(Int)=  0.00377889
 Iteration  2 RMS(Cart)=  0.00390811 RMS(Int)=  0.00001183
 Iteration  3 RMS(Cart)=  0.00001403 RMS(Int)=  0.00000415
 Iteration  4 RMS(Cart)=  0.00000000 RMS(Int)=  0.00000415
 Variable       Old X    -DE/DX   Delta X   Delta X   Delta X     New X
                                 (Linear)    (Quad)   (Total)
    R1        2.26018   0.00019   0.00000   0.00017   0.00017   2.26035
    R2        2.52362  -0.00020   0.00000  -0.00034  -0.00034   2.52328
    R3        2.87498   0.00044   0.00000   0.00144   0.00144   2.87642
    R4        2.69747   0.00014   0.00000   0.00034   0.00034   2.69782
    R5        2.05974   0.00000   0.00000   0.00001   0.00001   2.05975
    R6        2.89060  -0.00022   0.00000  -0.00074  -0.00074   2.88986
    R7        2.68031  -0.00050   0.00000  -0.00116  -0.00116   2.67915
    R8        2.05675  -0.00055   0.00000  -0.00157  -0.00157   2.05519
    R9        2.05804  -0.00054   0.00000  -0.00155  -0.00155   2.05650
   R10        2.05844  -0.00056   0.00000  -0.00161  -0.00161   2.05682
   R11        2.55233  -0.00006   0.00000  -0.00011  -0.00011   2.55222
   R12        2.05727   0.00001   0.00000   0.00003   0.00003   2.05730
   R13        2.05115  -0.00001   0.00000  -0.00002  -0.00002   2.05113
   R14        2.05801   0.00001   0.00000   0.00002   0.00002   2.05803
   R15        2.83100  -0.00013   0.00000  -0.00041  -0.00041   2.83059
   R16        2.26387   0.00011   0.00000   0.00011   0.00011   2.26397
   R17        2.06099  -0.00001   0.00000  -0.00002  -0.00002   2.06097
   R18        2.05682   0.00000   0.00000   0.00000   0.00000   2.05682
   R19        2.05084  -0.00000   0.00000  -0.00001  -0.00001   2.05083
    A1        2.17414  -0.00046   0.00000  -0.00184  -0.00185   2.17229
    A2        2.18972  -0.00070   0.00000  -0.00283  -0.00283   2.18689
    A3        1.91897   0.00116   0.00000   0.00459   0.00459   1.92357
    A4        2.01241  -0.00049   0.00000  -0.00196  -0.00196   2.01045
    A5        1.86651   0.00052   0.00000   0.00786   0.00785   1.87436
    A6        1.94454   0.00010   0.00000   0.00176   0.00175   1.94629
    A7        1.90218  -0.00033   0.00000  -0.00265  -0.00264   1.89954
    A8        1.94747  -0.00014   0.00000   0.00030   0.00027   1.94775
    A9        1.91540  -0.00035   0.00000  -0.00668  -0.00668   1.90872
   A10        1.88743   0.00018   0.00000  -0.00082  -0.00082   1.88660
   A11        1.93866   0.00001   0.00000   0.00007   0.00007   1.93874
   A12        1.90112   0.00003   0.00000   0.00021   0.00021   1.90133
   A13        1.94055   0.00001   0.00000   0.00003   0.00003   1.94057
   A14        1.89865  -0.00002   0.00000  -0.00011  -0.00011   1.89855
   A15        1.88813  -0.00001   0.00000  -0.00006  -0.00006   1.88807
   A16        1.89584  -0.00002   0.00000  -0.00015  -0.00015   1.89569
   A17        2.01706  -0.00076   0.00000  -0.00302  -0.00302   2.01404
   A18        1.92069  -0.00001   0.00000  -0.00009  -0.00009   1.92060
   A19        1.84874   0.00002   0.00000   0.00014   0.00014   1.84888
   A20        1.92450   0.00002   0.00000   0.00010   0.00010   1.92460
   A21        1.93289  -0.00001   0.00000  -0.00004  -0.00004   1.93285
   A22        1.90409  -0.00002   0.00000  -0.00014  -0.00014   1.90395
   A23        1.93263  -0.00000   0.00000   0.00002   0.00002   1.93266
   A24        1.93929  -0.00006   0.00000  -0.00023  -0.00023   1.93906
   A25        2.14477  -0.00001   0.00000  -0.00002  -0.00002   2.14474
   A26        2.19909   0.00007   0.00000   0.00027   0.00027   2.19936
   A27        1.88670  -0.00002   0.00000  -0.00012  -0.00012   1.88658
   A28        1.92758  -0.00001   0.00000  -0.00006  -0.00006   1.92753
   A29        1.91078   0.00000   0.00000   0.00002   0.00002   1.91080
   A30        1.88414   0.00001   0.00000   0.00003   0.00003   1.88417
   A31        1.91686   0.00001   0.00000   0.00008   0.00008   1.91694
   A32        1.93695   0.00001   0.00000   0.00004   0.00004   1.93699
    D1        0.00826   0.00011   0.00000   0.00492   0.00492   0.01318
    D2        3.12261   0.00007   0.00000   0.00171   0.00171   3.12432
    D3       -2.31165   0.00013   0.00000  -0.00292  -0.00291  -2.31456
    D4        1.83918  -0.00010   0.00000  -0.00950  -0.00951   1.82966
    D5       -0.24215  -0.00017   0.00000  -0.00787  -0.00787  -0.25002
    D6        0.85749   0.00016   0.00000   0.00030   0.00031   0.85780
    D7       -1.27488  -0.00006   0.00000  -0.00628  -0.00629  -1.28117
    D8        2.92699  -0.00014   0.00000  -0.00465  -0.00465   2.92234
    D9        1.04527  -0.00001   0.00000  -0.00028  -0.00028   1.04499
   D10        3.13533  -0.00001   0.00000  -0.00029  -0.00029   3.13504
   D11       -1.05604   0.00001   0.00000  -0.00013  -0.00013  -1.05616
   D12        2.41186   0.00095   0.00000   0.14784   0.14784   2.55970
   D13       -1.78042   0.00095   0.00000   0.14789   0.14789  -1.63253
   D14        0.30818   0.00095   0.00000   0.14785   0.14785   0.45603
   D15        0.32695   0.00032   0.00000   0.13648   0.13648   0.46343
   D16        2.41786   0.00032   0.00000   0.13652   0.13652   2.55438
   D17       -1.77673   0.00032   0.00000   0.13649   0.13649  -1.64024
   D18       -1.78124   0.00072   0.00000   0.14511   0.14511  -1.63613
   D19        0.30967   0.00072   0.00000   0.14516   0.14516   0.45483
   D20        2.39826   0.00072   0.00000   0.14513   0.14512   2.54338
   D21       -1.17235  -0.00018   0.00000  -0.00876  -0.00876  -1.18111
   D22        0.86625   0.00006   0.00000  -0.00460  -0.00461   0.86165
   D23        2.99430  -0.00022   0.00000  -0.00883  -0.00882   2.98548
   D24        3.01257   0.00013   0.00000   0.00580   0.00580   3.01836
   D25       -0.12094   0.00012   0.00000   0.00450   0.00450  -0.11644
   D26       -1.24678  -0.00001   0.00000  -0.00073  -0.00073  -1.24751
   D27        0.81094  -0.00001   0.00000  -0.00079  -0.00079   0.81015
   D28        2.94877  -0.00001   0.00000  -0.00076  -0.00076   2.94801
   D29        1.88642   0.00001   0.00000   0.00062   0.00062   1.88704
   D30       -2.33905   0.00001   0.00000   0.00056   0.00056  -2.33849
   D31       -0.20122   0.00001   0.00000   0.00059   0.00059  -0.20063
         Item               Value     Threshold  Converged?
 Maximum Force            0.001159     0.000450     NO 
 RMS     Force            0.000346     0.000300     NO 
 Maximum Displacement     0.253218     0.001800     NO 
 RMS     Displacement     0.055023     0.001200     NO 
 Predicted change in Energy=-5.321019D-04
 GradGradGradGradGradGradGradGradGradGradGradGradGradGradGradGradGradGrad

                          Input orientation:                          
 ---------------------------------------------------------------------
 Center     Atomic      Atomic             Coordinates (Angstroms)
 Number     Number       Type             X           Y           Z
 ---------------------------------------------------------------------
      1          6           0       -0.370140    0.924159    0.177136
      2          8           0        0.534492    1.168751    0.920465
      3          8           0       -1.067104    1.844752   -0.493446
      4          6           0       -0.921834   -0.465190   -0.109637
      5          1           0       -1.015924   -0.561529   -1.191261
      6          6           0       -2.260066   -0.693529    0.594353
      7          1           0       -2.908996   -1.334933    0.002512
      8          1           0       -2.076876   -1.171163    1.554874
      9          1           0       -2.779000    0.247411    0.767580
     10          8           0       -0.001529   -1.431106    0.369989
     11          6           0       -0.651145    3.194152   -0.283187
     12          1           0        0.387314    3.316028   -0.586448
     13          1           0       -1.305028    3.806448   -0.896085
     14          1           0       -0.748521    3.459491    0.768560
     15          6           0        1.175878   -1.486831   -0.289306
     16          6           0        2.134440   -2.411530    0.396077
     17          1           0        2.462182   -1.935079    1.320754
     18          1           0        1.640696   -3.345839    0.656751
     19          1           0        2.988744   -2.590257   -0.248900
     20          8           0        1.393639   -0.858776   -1.286019
 ---------------------------------------------------------------------
                    Distance matrix (angstroms):
                    1          2          3          4          5
     1  C    0.000000
     2  O    1.196128   0.000000
     3  O    1.335265   2.240811   0.000000
     4  C    1.522135   2.419041   2.346113   0.000000
     5  H    2.120569   3.139593   2.505944   1.089975   0.000000
     6  C    2.522460   3.374017   3.008212   1.529249   2.180306
     7  H    3.402908   4.355305   3.707957   2.172059   2.367905
     8  H    3.033394   3.563273   3.782988   2.145487   3.006415
     9  H    2.570840   3.442597   2.659375   2.174022   2.756788
    10  O    2.391723   2.711014   3.551369   1.417744   2.054912
    11  C    2.333180   2.637568   1.427624   3.673442   3.881082
    12  H    2.622563   2.627404   2.070902   4.029744   4.167772
    13  H    3.214562   3.693390   2.016674   4.360301   4.387474
    14  H    2.630754   2.629961   2.074014   4.025468   4.481183
    15  C    2.901828   2.987814   4.021453   2.340177   2.544347
    16  C    4.177041   3.956415   5.399729   3.658524   3.983332
    17  H    4.183916   3.675592   5.480356   3.957039   4.504895
    18  H    4.744088   4.655615   5.966353   3.930909   4.269093
    19  H    4.880033   4.639063   6.014899   4.452856   4.587063
    20  O    2.903548   3.117301   3.740654   2.626824   2.429677
                    6          7          8          9         10
     6  C    0.000000
     7  H    1.087559   0.000000
     8  H    1.088252   1.768918   0.000000
     9  H    1.088424   1.762396   1.767812   0.000000
    10  O    2.386493   2.932176   2.403870   3.269533   0.000000
    11  C    4.297995   5.068740   4.946428   3.783538   4.716106
    12  H    4.947672   5.730967   5.549088   4.612521   4.858112
    13  H    4.835627   5.460219   5.601746   4.196084   5.543827
    14  H    4.422973   5.314225   4.881165   3.800040   4.963346
    15  C    3.635367   4.098100   3.752473   4.445859   1.350578
    16  C    4.722555   5.172059   4.540540   5.599095   2.350377
    17  H    4.936470   5.563047   4.608843   5.704319   2.688460
    18  H    4.717476   5.017117   4.399566   5.697143   2.538766
    19  H    5.644348   6.035096   5.561289   6.507877   3.266250
    20  O    4.112501   4.516604   4.495857   4.780359   2.239736
                   11         12         13         14         15
    11  C    0.000000
    12  H    1.088678   0.000000
    13  H    1.085409   1.788968   0.000000
    14  H    1.089063   1.773908   1.789167   0.000000
    15  C    5.024903   4.876226   5.877233   5.411885   0.000000
    16  C    6.296392   6.068173   7.222386   6.551267   1.497885
    17  H    6.210833   5.959583   7.216050   6.301978   2.108980
    18  H    6.993390   6.891806   7.889473   7.213417   2.137052
    19  H    6.834424   6.462630   7.731310   7.183441   2.122655
    20  O    4.648983   4.350986   5.403625   5.239998   1.198044
                   16         17         18         19         20
    16  C    0.000000
    17  H    1.090618   0.000000
    18  H    1.088425   1.762380   0.000000
    19  H    1.085254   1.780545   1.791186   0.000000
    20  O    2.406092   3.015871   3.165577   2.572547   0.000000
 Symmetry turned off by external request.
 Stoichiometry    C6H10O4
 Framework group  C1[X(C6H10O4)]
 Deg. of freedom    54
 Full point group                 C1      NOp   1
 Rotational constants (GHZ):           2.2422467           0.8999754           0.7513648
 Standard basis: def2TZVP (5D, 7F)
   370 basis functions,   590 primitive gaussians,   420 cartesian basis functions
    39 alpha electrons       39 beta electrons
       nuclear repulsion energy       572.3452453760 Hartrees.
 NAtoms=   20 NActive=   20 NUniq=   20 SFac= 1.00D+00 NAtFMM=   60 NAOKFM=F Big=F
 Integral buffers will be    131072 words long.
 Raffenetti 2 integral format.
 Two-electron integral symmetry is turned off.
 One-electron integrals computed using PRISM.
   1 Symmetry operations used in ECPInt.
 ECPInt:  NShTT=   11325 NPrTT=   34180 LenC2=   10822 LenP2D=   25056.
 LDataN:  DoStor=T MaxTD1= 6 Len=  172
 NBasis=   370 RedAO= T EigKep=  1.39D-04  NBF=   370
 NBsUse=   370 1.00D-06 EigRej= -1.00D+00 NBFU=   370
 Initial guess from the checkpoint file:  "/oasis/scratch/comet/mayes/temp_project/lme2acetoxprpnt_ts3_ircf_opt.chk"
 B after Tr=    -0.003918    0.002247    0.001938
         Rot=    0.999999   -0.001321    0.000152    0.000435 Ang=  -0.16 deg.
 ExpMin= 9.52D-02 ExpMax= 2.70D+04 ExpMxC= 9.22D+02 IAcc=3 IRadAn=         5 AccDes= 0.00D+00
 Harris functional with IExCor= 1009 and IRadAn=       5 diagonalized for initial guess.
 HarFok:  IExCor= 1009 AccDes= 0.00D+00 IRadAn=         5 IDoV= 1 UseB2=F ITyADJ=14
 ICtDFT=  3500011 ScaDFX=  1.000000  1.000000  1.000000  1.000000
 FoFCou: FMM=F IPFlag=           0 FMFlag=      100000 FMFlg1=           0
         NFxFlg=           0 DoJE=T BraDBF=F KetDBF=T FulRan=T
         wScrn=  0.000000 ICntrl=       500 IOpCl=  0 I1Cent=   200000004 NGrid=           0
         NMat0=    1 NMatS0=      1 NMatT0=    0 NMatD0=    1 NMtDS0=    0 NMtDT0=    0
 Symmetry not used in FoFCou.
 Requested convergence on RMS density matrix=1.00D-08 within  32 cycles.
 Requested convergence on MAX density matrix=1.00D-06.
 Requested convergence on             energy=1.00D-06.
 No special actions if energy rises.
 Integral accuracy reduced to 1.0D-05 until final iterations.
 Initial convergence to 1.0D-05 achieved.  Increase integral accuracy.
 SCF Done:  E(RM062X) =  -535.575242465     A.U. after   11 cycles
            NFock= 11  Conv=0.60D-08     -V/T= 2.0044
 QCSCF skips out because SCF is already converged.
   1 Symmetry operations used in ECPInt.
 ECPInt:  NShTT=   11325 NPrTT=   34180 LenC2=   10822 LenP2D=   25056.
 LDataN:  DoStor=T MaxTD1= 7 Len=  274
 Calling FoFJK, ICntrl=      2127 FMM=F ISym2X=0 I1Cent= 0 IOpClX= 0 NMat=1 NMatS=1 NMatT=0.
 -------------------------------------------------------------------
 Center     Atomic                   Forces (Hartrees/Bohr)
 Number     Number              X              Y              Z
 -------------------------------------------------------------------
      1        6          -0.000731340    0.000162621    0.000699617
      2        8           0.000381935   -0.000264717    0.000118559
      3        8           0.000191283   -0.000089667    0.000037075
      4        6          -0.001222989   -0.000217456    0.000047630
      5        1          -0.000582521    0.001206677   -0.000113321
      6        6           0.001295177   -0.000018220    0.000022180
      7        1           0.000755255   -0.001206730    0.000202834
      8        1           0.000182941    0.000879649    0.000753828
      9        1          -0.000027606    0.000313797   -0.001456863
     10        8          -0.000354621   -0.000650846   -0.000256045
     11        6           0.000054611    0.000130872   -0.000003162
     12        1          -0.000006521   -0.000008609    0.000002826
     13        1          -0.000007438   -0.000016542   -0.000020118
     14        1           0.000005739   -0.000021003   -0.000022941
     15        6          -0.000118714   -0.000444234   -0.000028840
     16        6           0.000030094    0.000048428   -0.000023398
     17        1           0.000009402   -0.000014796    0.000013786
     18        1          -0.000015506    0.000023774   -0.000002491
     19        1           0.000016543   -0.000001229    0.000011763
     20        8           0.000144276    0.000188229    0.000017079
 -------------------------------------------------------------------
 Cartesian Forces:  Max     0.001456863 RMS     0.000464305

 GradGradGradGradGradGradGradGradGradGradGradGradGradGradGradGradGradGrad
 Berny optimization.
 Using GEDIIS/GDIIS optimizer.
 FormGI is forming the generalized inverse of G from B-inverse, IUseBI=4.
 Internal  Forces:  Max     0.002145636 RMS     0.000420620
 Search for a local minimum.
 Step number   2 out of a maximum of   92
 All quantities printed in internal units (Hartrees-Bohrs-Radians)
 Mixed Optimization -- En-DIIS/RFO-DIIS
 Swapping is turned off.
 Update second derivatives using D2CorX and points    1    2
 DE= -9.82D-04 DEPred=-5.32D-04 R= 1.85D+00
 TightC=F SS=  1.41D+00  RLast= 4.30D-01 DXNew= 5.0454D-01 1.2915D+00
 Trust test= 1.85D+00 RLast= 4.30D-01 DXMaxT set to 5.05D-01
 ITU=  1  0
     Eigenvalues ---   -0.00235   0.00472   0.00743   0.00791   0.01129
     Eigenvalues ---    0.01329   0.01367   0.02341   0.02539   0.03562
     Eigenvalues ---    0.05349   0.05525   0.05747   0.07407   0.07733
     Eigenvalues ---    0.07945   0.10290   0.10661   0.12989   0.16000
     Eigenvalues ---    0.16000   0.16000   0.16000   0.16000   0.16000
     Eigenvalues ---    0.16000   0.16000   0.16861   0.19671   0.22701
     Eigenvalues ---    0.24911   0.24995   0.25000   0.25000   0.25000
     Eigenvalues ---    0.27831   0.30183   0.32568   0.34252   0.34740
     Eigenvalues ---    0.34816   0.34903   0.34922   0.34968   0.34975
     Eigenvalues ---    0.34996   0.35347   0.35366   0.41355   0.42406
     Eigenvalues ---    0.54876   0.58231   1.05839   1.06826
 Use linear search instead of GDIIS.
 RFO step:  Lambda=-4.10720280D-03 EMin=-2.35209635D-03
 Skip linear search -- no minimum in search direction.
 Iteration  1 RMS(Cart)=  0.08835954 RMS(Int)=  0.04195703
 Iteration  2 RMS(Cart)=  0.04440857 RMS(Int)=  0.00249054
 Iteration  3 RMS(Cart)=  0.00249204 RMS(Int)=  0.00058939
 Iteration  4 RMS(Cart)=  0.00000564 RMS(Int)=  0.00058938
 Iteration  5 RMS(Cart)=  0.00000001 RMS(Int)=  0.00058938
 Variable       Old X    -DE/DX   Delta X   Delta X   Delta X     New X
                                 (Linear)    (Quad)   (Total)
    R1        2.26035   0.00031   0.00000   0.00143   0.00143   2.26179
    R2        2.52328  -0.00013   0.00000   0.00006   0.00006   2.52334
    R3        2.87642   0.00002   0.00000  -0.00733  -0.00733   2.86908
    R4        2.69782   0.00009   0.00000  -0.00012  -0.00012   2.69770
    R5        2.05975   0.00006   0.00000   0.00126   0.00126   2.06101
    R6        2.88986  -0.00215   0.00000  -0.05539  -0.05539   2.83447
    R7        2.67915   0.00030   0.00000   0.01205   0.01205   2.69120
    R8        2.05519   0.00015   0.00000   0.01197   0.01197   2.06716
    R9        2.05650   0.00031   0.00000   0.01560   0.01560   2.07210
   R10        2.05682   0.00005   0.00000   0.00995   0.00995   2.06677
   R11        2.55222   0.00007   0.00000   0.00171   0.00171   2.55393
   R12        2.05730  -0.00001   0.00000  -0.00035  -0.00035   2.05695
   R13        2.05113   0.00001   0.00000   0.00026   0.00026   2.05139
   R14        2.05803  -0.00003   0.00000  -0.00072  -0.00072   2.05731
   R15        2.83059  -0.00001   0.00000   0.00197   0.00197   2.83257
   R16        2.26397   0.00011   0.00000   0.00029   0.00029   2.26426
   R17        2.06097   0.00001   0.00000   0.00026   0.00026   2.06123
   R18        2.05682  -0.00001   0.00000  -0.00035  -0.00035   2.05647
   R19        2.05083   0.00001   0.00000   0.00021   0.00021   2.05105
    A1        2.17229   0.00015   0.00000   0.01599   0.01334   2.18563
    A2        2.18689  -0.00057   0.00000  -0.00225  -0.00481   2.18208
    A3        1.92357   0.00042   0.00000  -0.01005  -0.01265   1.91092
    A4        2.01045   0.00007   0.00000   0.01283   0.01283   2.02327
    A5        1.87436   0.00009   0.00000  -0.02271  -0.02361   1.85075
    A6        1.94629  -0.00013   0.00000  -0.02166  -0.02186   1.92443
    A7        1.89954   0.00033   0.00000   0.02482   0.02433   1.92387
    A8        1.94775   0.00001   0.00000  -0.00737  -0.00770   1.94004
    A9        1.90872   0.00021   0.00000   0.05758   0.05765   1.96637
   A10        1.88660  -0.00049   0.00000  -0.02746  -0.02719   1.85942
   A11        1.93874  -0.00051   0.00000  -0.02844  -0.02895   1.90978
   A12        1.90133   0.00023   0.00000   0.01451   0.01468   1.91601
   A13        1.94057  -0.00099   0.00000  -0.05171  -0.05220   1.88838
   A14        1.89855   0.00019   0.00000   0.01380   0.01393   1.91247
   A15        1.88807   0.00069   0.00000   0.02700   0.02579   1.91386
   A16        1.89569   0.00044   0.00000   0.02725   0.02745   1.92315
   A17        2.01404   0.00044   0.00000   0.03047   0.03047   2.04451
   A18        1.92060  -0.00001   0.00000   0.00010   0.00010   1.92070
   A19        1.84888  -0.00003   0.00000  -0.00217  -0.00217   1.84671
   A20        1.92460  -0.00001   0.00000  -0.00107  -0.00107   1.92354
   A21        1.93285   0.00001   0.00000   0.00067   0.00067   1.93352
   A22        1.90395   0.00001   0.00000   0.00103   0.00103   1.90498
   A23        1.93266   0.00003   0.00000   0.00135   0.00135   1.93401
   A24        1.93906  -0.00000   0.00000   0.00103   0.00040   1.93946
   A25        2.14474   0.00007   0.00000   0.00225   0.00161   2.14636
   A26        2.19936  -0.00007   0.00000  -0.00369  -0.00432   2.19504
   A27        1.88658   0.00003   0.00000   0.00206   0.00206   1.88865
   A28        1.92753  -0.00004   0.00000  -0.00208  -0.00207   1.92545
   A29        1.91080   0.00003   0.00000   0.00151   0.00151   1.91230
   A30        1.88417  -0.00001   0.00000  -0.00094  -0.00093   1.88324
   A31        1.91694  -0.00002   0.00000  -0.00093  -0.00093   1.91600
   A32        1.93699   0.00001   0.00000   0.00038   0.00038   1.93737
    D1        0.01318  -0.00004   0.00000  -0.06294  -0.06349  -0.05031
    D2        3.12432   0.00016   0.00000   0.06486   0.06541  -3.09345
    D3       -2.31456  -0.00006   0.00000   0.04000   0.04009  -2.27447
    D4        1.82966  -0.00005   0.00000   0.07782   0.07721   1.90687
    D5       -0.25002   0.00042   0.00000   0.10906   0.10879  -0.14123
    D6        0.85780  -0.00028   0.00000  -0.08950  -0.08888   0.76892
    D7       -1.28117  -0.00027   0.00000  -0.05168  -0.05176  -1.33293
    D8        2.92234   0.00020   0.00000  -0.02044  -0.02018   2.90215
    D9        1.04499  -0.00000   0.00000  -0.00044  -0.00044   1.04455
   D10        3.13504  -0.00001   0.00000  -0.00085  -0.00085   3.13418
   D11       -1.05616  -0.00000   0.00000  -0.00110  -0.00110  -1.05726
   D12        2.55970   0.00074   0.00000   0.29437   0.29463   2.85433
   D13       -1.63253   0.00080   0.00000   0.30320   0.30311  -1.32942
   D14        0.45603   0.00088   0.00000   0.31436   0.31386   0.76989
   D15        0.46343   0.00071   0.00000   0.34324   0.34359   0.80702
   D16        2.55438   0.00077   0.00000   0.35207   0.35208   2.90646
   D17       -1.64024   0.00085   0.00000   0.36324   0.36283  -1.27741
   D18       -1.63613   0.00076   0.00000   0.29438   0.29487  -1.34126
   D19        0.45483   0.00082   0.00000   0.30321   0.30335   0.75818
   D20        2.54338   0.00090   0.00000   0.31437   0.31411   2.85749
   D21       -1.18111  -0.00018   0.00000   0.03403   0.03332  -1.14779
   D22        0.86165   0.00023   0.00000   0.05328   0.05405   0.91570
   D23        2.98548   0.00007   0.00000   0.06202   0.06196   3.04743
   D24        3.01836   0.00009   0.00000  -0.01223  -0.01232   3.00605
   D25       -0.11644   0.00021   0.00000   0.05030   0.05038  -0.06606
   D26       -1.24751   0.00007   0.00000   0.03485   0.03481  -1.21270
   D27        0.81015   0.00006   0.00000   0.03377   0.03373   0.84388
   D28        2.94801   0.00006   0.00000   0.03388   0.03384   2.98185
   D29        1.88704  -0.00005   0.00000  -0.03003  -0.02999   1.85705
   D30       -2.33849  -0.00006   0.00000  -0.03111  -0.03107  -2.36956
   D31       -0.20063  -0.00006   0.00000  -0.03100  -0.03096  -0.23159
         Item               Value     Threshold  Converged?
 Maximum Force            0.002146     0.000450     NO 
 RMS     Force            0.000421     0.000300     NO 
 Maximum Displacement     0.470426     0.001800     NO 
 RMS     Displacement     0.120724     0.001200     NO 
 Predicted change in Energy=-3.861165D-03
 GradGradGradGradGradGradGradGradGradGradGradGradGradGradGradGradGradGrad

                          Input orientation:                          
 ---------------------------------------------------------------------
 Center     Atomic      Atomic             Coordinates (Angstroms)
 Number     Number       Type             X           Y           Z
 ---------------------------------------------------------------------
      1          6           0       -0.397129    0.933937    0.215370
      2          8           0        0.570649    1.151952    0.885006
      3          8           0       -1.098170    1.856366   -0.448467
      4          6           0       -0.930904   -0.447011   -0.121028
      5          1           0       -1.082138   -0.456768   -1.201088
      6          6           0       -2.217397   -0.698435    0.608034
      7          1           0       -2.736232   -1.544982    0.148938
      8          1           0       -2.009480   -0.922224    1.661134
      9          1           0       -2.836401    0.199672    0.528102
     10          8           0       -0.016110   -1.447997    0.314061
     11          6           0       -0.669659    3.207503   -0.278945
     12          1           0        0.360350    3.317055   -0.613446
     13          1           0       -1.338248    3.808359   -0.887530
     14          1           0       -0.737273    3.494853    0.768952
     15          6           0        1.188567   -1.489849   -0.297088
     16          6           0        2.106525   -2.459349    0.384243
     17          1           0        2.373097   -2.048933    1.359049
     18          1           0        1.599731   -3.408338    0.548085
     19          1           0        3.001614   -2.594644   -0.214533
     20          8           0        1.479835   -0.775738   -1.214083
 ---------------------------------------------------------------------
                    Distance matrix (angstroms):
                    1          2          3          4          5
     1  C    0.000000
     2  O    1.196887   0.000000
     3  O    1.335296   2.249291   0.000000
     4  C    1.518254   2.413183   2.332540   0.000000
     5  H    2.099917   3.109900   2.432547   1.090641   0.000000
     6  C    2.476327   3.357655   2.982595   1.499936   2.149451
     7  H    3.408937   4.330209   3.822213   2.130171   2.396416
     8  H    2.852234   3.400242   3.605755   2.136646   3.044492
     9  H    2.566514   3.555589   2.592252   2.114353   2.549206
    10  O    2.414233   2.725803   3.559651   1.424121   2.101101
    11  C    2.342589   2.668040   1.427561   3.667242   3.800970
    12  H    2.634381   2.641449   2.070775   4.009739   4.082626
    13  H    3.219378   3.720520   2.015115   4.342998   4.284299
    14  H    2.642053   2.685761   2.072919   4.045720   4.428916
    15  C    2.941392   2.959440   4.055767   2.368685   2.653408
    16  C    4.220331   3.956157   5.439566   3.678421   4.085484
    17  H    4.228435   3.703944   5.528849   3.958940   4.585623
    18  H    4.790981   4.687085   5.999074   3.952377   4.354744
    19  H    4.918044   4.599517   6.055943   4.481715   4.713898
    20  O    2.913643   2.991451   3.763011   2.667301   2.581786
                    6          7          8          9         10
     6  C    0.000000
     7  H    1.093893   0.000000
     8  H    1.096509   1.789618   0.000000
     9  H    1.093688   1.788188   1.796167   0.000000
    10  O    2.343912   2.726854   2.462634   3.273327   0.000000
    11  C    4.294016   5.199992   4.755383   3.793830   4.738403
    12  H    4.925541   5.814590   5.362956   4.608734   4.869056
    13  H    4.829162   5.629110   5.415224   4.155851   5.551679
    14  H    4.449755   5.457123   4.682421   3.914405   5.015851
    15  C    3.611948   3.950446   3.792669   4.442498   1.351481
    16  C    4.674099   4.933937   4.575445   5.614589   2.352305
    17  H    4.843604   5.274805   4.535163   5.734594   2.676086
    18  H    4.681627   4.736242   4.521730   5.718164   2.551205
    19  H    5.613403   5.844380   5.605905   6.514763   3.271219
    20  O    4.122573   4.497197   4.523676   4.755684   2.241653
                   11         12         13         14         15
    11  C    0.000000
    12  H    1.088490   0.000000
    13  H    1.085548   1.789340   0.000000
    14  H    1.088683   1.774095   1.789802   0.000000
    15  C    5.051579   4.887981   5.899528   5.449088   0.000000
    16  C    6.345095   6.116482   7.264161   6.609668   1.498929
    17  H    6.290589   6.060999   7.288969   6.384056   2.111510
    18  H    7.042972   6.936579   7.922968   7.291393   2.136345
    19  H    6.866390   6.487187   7.764391   7.213078   2.124741
    20  O    4.621798   4.285436   5.390934   5.204415   1.198195
                   16         17         18         19         20
    16  C    0.000000
    17  H    1.090756   0.000000
    18  H    1.088239   1.761743   0.000000
    19  H    1.085367   1.780167   1.791357   0.000000
    20  O    2.404565   3.006651   3.170204   2.573583   0.000000
 Symmetry turned off by external request.
 Stoichiometry    C6H10O4
 Framework group  C1[X(C6H10O4)]
 Deg. of freedom    54
 Full point group                 C1      NOp   1
 Rotational constants (GHZ):           2.2867245           0.8997283           0.7448180
 Standard basis: def2TZVP (5D, 7F)
   370 basis functions,   590 primitive gaussians,   420 cartesian basis functions
    39 alpha electrons       39 beta electrons
       nuclear repulsion energy       572.7111957000 Hartrees.
 NAtoms=   20 NActive=   20 NUniq=   20 SFac= 1.00D+00 NAtFMM=   60 NAOKFM=F Big=F
 Integral buffers will be    131072 words long.
 Raffenetti 2 integral format.
 Two-electron integral symmetry is turned off.
 One-electron integrals computed using PRISM.
   1 Symmetry operations used in ECPInt.
 ECPInt:  NShTT=   11325 NPrTT=   34180 LenC2=   10816 LenP2D=   25056.
 LDataN:  DoStor=T MaxTD1= 6 Len=  172
 NBasis=   370 RedAO= T EigKep=  1.39D-04  NBF=   370
 NBsUse=   370 1.00D-06 EigRej= -1.00D+00 NBFU=   370
 Initial guess from the checkpoint file:  "/oasis/scratch/comet/mayes/temp_project/lme2acetoxprpnt_ts3_ircf_opt.chk"
 B after Tr=     0.009886    0.008921    0.007627
         Rot=    0.999986   -0.004310    0.002917   -0.001031 Ang=  -0.61 deg.
 ExpMin= 9.52D-02 ExpMax= 2.70D+04 ExpMxC= 9.22D+02 IAcc=3 IRadAn=         5 AccDes= 0.00D+00
 Harris functional with IExCor= 1009 and IRadAn=       5 diagonalized for initial guess.
 HarFok:  IExCor= 1009 AccDes= 0.00D+00 IRadAn=         5 IDoV= 1 UseB2=F ITyADJ=14
 ICtDFT=  3500011 ScaDFX=  1.000000  1.000000  1.000000  1.000000
 FoFCou: FMM=F IPFlag=           0 FMFlag=      100000 FMFlg1=           0
         NFxFlg=           0 DoJE=T BraDBF=F KetDBF=T FulRan=T
         wScrn=  0.000000 ICntrl=       500 IOpCl=  0 I1Cent=   200000004 NGrid=           0
         NMat0=    1 NMatS0=      1 NMatT0=    0 NMatD0=    1 NMtDS0=    0 NMtDT0=    0
 Symmetry not used in FoFCou.
 Requested convergence on RMS density matrix=1.00D-08 within  32 cycles.
 Requested convergence on MAX density matrix=1.00D-06.
 Requested convergence on             energy=1.00D-06.
 No special actions if energy rises.
 Integral accuracy reduced to 1.0D-05 until final iterations.
 Initial convergence to 1.0D-05 achieved.  Increase integral accuracy.
 SCF Done:  E(RM062X) =  -535.574910636     A.U. after   12 cycles
            NFock= 12  Conv=0.82D-08     -V/T= 2.0044
 QCSCF skips out because SCF is already converged.
   1 Symmetry operations used in ECPInt.
 ECPInt:  NShTT=   11325 NPrTT=   34180 LenC2=   10816 LenP2D=   25056.
 LDataN:  DoStor=T MaxTD1= 7 Len=  274
 Calling FoFJK, ICntrl=      2127 FMM=F ISym2X=0 I1Cent= 0 IOpClX= 0 NMat=1 NMatS=1 NMatT=0.
 -------------------------------------------------------------------
 Center     Atomic                   Forces (Hartrees/Bohr)
 Number     Number              X              Y              Z
 -------------------------------------------------------------------
      1        6           0.016556160   -0.002887874   -0.011542684
      2        8          -0.006419351    0.003484981    0.004979050
      3        8          -0.002682056    0.001996503    0.004049829
      4        6           0.006955745   -0.000162008    0.004669872
      5        1           0.003442438   -0.004094622   -0.000515481
      6        6          -0.010834009   -0.002097769    0.002251741
      7        1          -0.000160771    0.002414101    0.004232174
      8        1          -0.001913117    0.002256437   -0.004526792
      9        1          -0.002001688   -0.004890747    0.001476547
     10        8          -0.001816424    0.000430601   -0.005706476
     11        6           0.000471314   -0.000737692    0.000617212
     12        1           0.000206231   -0.000229563   -0.000076893
     13        1           0.000136957    0.000154137    0.000254985
     14        1          -0.000016104    0.000344325    0.000160647
     15        6           0.002679842    0.009890876    0.003182688
     16        6          -0.001484640   -0.001893806   -0.001181023
     17        1          -0.000408107    0.000419218   -0.000376910
     18        1           0.000354247   -0.000535005    0.000204319
     19        1          -0.000258205   -0.000015979   -0.000131358
     20        8          -0.002808463   -0.003846115   -0.002021449
 -------------------------------------------------------------------
 Cartesian Forces:  Max     0.016556160 RMS     0.004119320

 GradGradGradGradGradGradGradGradGradGradGradGradGradGradGradGradGradGrad
 Berny optimization.
 Using GEDIIS/GDIIS optimizer.
 FormGI is forming the generalized inverse of G from B-inverse, IUseBI=4.
 Internal  Forces:  Max     0.014846228 RMS     0.003230895
 Search for a local minimum.
 Step number   3 out of a maximum of   92
 .... (shortened for test) ....
 Step number  12 out of a maximum of   92
 All quantities printed in internal units (Hartrees-Bohrs-Radians)
 Mixed Optimization -- En-DIIS/RFO-DIIS
 Swapping is turned off.
 Update second derivatives using D2CorX and points    5    6    7    8    9
                                                     10   11   12
 DE= -3.33D-07 DEPred=-3.25D-07 R= 1.03D+00
 Trust test= 1.03D+00 RLast= 1.55D-02 DXMaxT set to 2.12D-01
 ITU=  0  1  1  1  1 -1  1  0  1 -1  1  0
     Eigenvalues ---    0.00133   0.00264   0.00790   0.01310   0.01706
     Eigenvalues ---    0.02520   0.03121   0.04670   0.05116   0.05304
     Eigenvalues ---    0.05709   0.05763   0.06211   0.07475   0.07735
     Eigenvalues ---    0.08218   0.10296   0.10663   0.15916   0.15956
     Eigenvalues ---    0.15999   0.16001   0.16013   0.16040   0.16079
     Eigenvalues ---    0.16139   0.16815   0.18064   0.19749   0.23664
     Eigenvalues ---    0.24979   0.25058   0.25136   0.25402   0.30186
     Eigenvalues ---    0.32046   0.32566   0.32655   0.34569   0.34758
     Eigenvalues ---    0.34911   0.34934   0.34968   0.34971   0.35014
     Eigenvalues ---    0.35109   0.35350   0.35376   0.41370   0.45363
     Eigenvalues ---    0.56996   0.58751   1.06006   1.06580
 En-DIIS/RFO-DIIS/Sim-DIIS IScMMF=       -3 using points:    12   11   10    9    8    7    6    5
 RFO step:  Lambda=-1.44167510D-07.
 DidBck=F Rises=F RFO-DIIS coefs:    1.38847   -0.15406   -0.42505    0.02733    0.06088
                  RFO-DIIS coefs:    0.02625    0.04186    0.03433
 Iteration  1 RMS(Cart)=  0.00093848 RMS(Int)=  0.00000242
 Iteration  2 RMS(Cart)=  0.00000049 RMS(Int)=  0.00000240
 Variable       Old X    -DE/DX   Delta X   Delta X   Delta X     New X
                                 (Linear)    (Quad)   (Total)
    R1        2.26106   0.00006   0.00007   0.00002   0.00009   2.26114
    R2        2.52168  -0.00009  -0.00017  -0.00006  -0.00023   2.52145
    R3        2.87633   0.00000   0.00002   0.00002   0.00005   2.87638
    R4        2.69833   0.00002   0.00004   0.00002   0.00006   2.69839
    R5        2.06080  -0.00001   0.00004  -0.00007  -0.00003   2.06077
    R6        2.86684   0.00001   0.00000  -0.00001  -0.00001   2.86683
    R7        2.67837   0.00009   0.00028   0.00003   0.00030   2.67867
    R8        2.05729  -0.00000  -0.00002   0.00002  -0.00000   2.05729
    R9        2.05954  -0.00001  -0.00001  -0.00004  -0.00005   2.05949
   R10        2.05746   0.00001   0.00006  -0.00002   0.00004   2.05750
   R11        2.55154  -0.00006  -0.00013  -0.00003  -0.00016   2.55138
   R12        2.05724  -0.00000  -0.00000  -0.00000  -0.00000   2.05723
   R13        2.05112  -0.00000  -0.00000  -0.00001  -0.00001   2.05110
   R14        2.05783  -0.00000  -0.00002  -0.00000  -0.00002   2.05781
   R15        2.83034   0.00002   0.00001   0.00007   0.00008   2.83042
   R16        2.26422   0.00004   0.00002   0.00004   0.00006   2.26428
   R17        2.06093  -0.00000   0.00000  -0.00001  -0.00001   2.06092
   R18        2.05682  -0.00000  -0.00000  -0.00000  -0.00000   2.05682
   R19        2.05080   0.00000  -0.00000   0.00001   0.00001   2.05081
    A1        2.17391   0.00001   0.00001   0.00002   0.00004   2.17395
    A2        2.18090  -0.00000  -0.00021   0.00015  -0.00005   2.18085
    A3        1.92755  -0.00001   0.00018  -0.00017   0.00002   1.92757
    A4        2.01041   0.00001   0.00001   0.00005   0.00006   2.01048
    A5        1.88570  -0.00001  -0.00013   0.00007  -0.00006   1.88564
    A6        1.92802   0.00002   0.00018  -0.00002   0.00016   1.92819
    A7        1.90612  -0.00002  -0.00010   0.00003  -0.00007   1.90605
    A8        1.94537   0.00000   0.00017  -0.00001   0.00016   1.94553
    A9        1.92083  -0.00000  -0.00012  -0.00007  -0.00019   1.92064
   A10        1.87774   0.00001  -0.00001   0.00001   0.00000   1.87774
   A11        1.91463  -0.00000   0.00002   0.00002   0.00004   1.91467
   A12        1.91966   0.00001   0.00006  -0.00001   0.00005   1.91971
   A13        1.91814   0.00002  -0.00009   0.00017   0.00008   1.91822
   A14        1.89977  -0.00000   0.00009  -0.00003   0.00006   1.89984
   A15        1.90373  -0.00001  -0.00012  -0.00002  -0.00014   1.90359
   A16        1.90769  -0.00002   0.00006  -0.00014  -0.00009   1.90760
   A17        2.01318   0.00002  -0.00016   0.00025   0.00009   2.01327
   A18        1.91979  -0.00001  -0.00007   0.00000  -0.00007   1.91972
   A19        1.84866  -0.00001  -0.00001  -0.00003  -0.00004   1.84862
   A20        1.92451  -0.00000   0.00001  -0.00005  -0.00004   1.92448
   A21        1.93298   0.00000   0.00001   0.00002   0.00004   1.93302
   A22        1.90447   0.00000   0.00002   0.00002   0.00004   1.90450
   A23        1.93309   0.00001   0.00004   0.00003   0.00007   1.93316
   A24        1.94049   0.00001  -0.00006   0.00007   0.00002   1.94051
   A25        2.14284   0.00002  -0.00001   0.00012   0.00012   2.14295
   A26        2.19982  -0.00003   0.00004  -0.00018  -0.00013   2.19969
   A27        1.88739   0.00001   0.00007   0.00004   0.00011   1.88750
   A28        1.92699  -0.00001  -0.00002  -0.00005  -0.00006   1.92692
   A29        1.91103   0.00000  -0.00003   0.00004   0.00002   1.91105
   A30        1.88370  -0.00000  -0.00003   0.00001  -0.00002   1.88368
   A31        1.91707  -0.00001  -0.00001  -0.00002  -0.00003   1.91704
   A32        1.93685   0.00000   0.00001  -0.00002  -0.00001   1.93684
    D1        0.01794   0.00000   0.00019  -0.00018   0.00001   0.01795
    D2        3.11786  -0.00000   0.00016  -0.00017  -0.00001   3.11785
    D3       -2.40777   0.00001  -0.00073   0.00004  -0.00069  -2.40846
    D4        1.74330  -0.00000  -0.00098   0.00003  -0.00095   1.74235
    D5       -0.31861  -0.00001  -0.00101   0.00001  -0.00100  -0.31961
    D6        0.77570   0.00001  -0.00070   0.00004  -0.00067   0.77503
    D7       -1.35642   0.00000  -0.00095   0.00002  -0.00092  -1.35734
    D8        2.86486  -0.00001  -0.00098   0.00001  -0.00098   2.86388
    D9        1.04738   0.00000   0.00027   0.00010   0.00036   1.04774
   D10        3.13703   0.00000   0.00024   0.00011   0.00035   3.13738
   D11       -1.05382   0.00000   0.00028   0.00010   0.00038  -1.05344
[...]
 76,-0.00099305,-0.00015362,-0.00002771,-0.00027933,0.00258755,0.001828
 97,0.03264283,-0.00507937,-0.00087507,0.00198898,-0.05348120,-0.003329
 19,-0.04236932,-0.00230486,0.00035663,-0.01037217,0.05660164,0.0006930
 2,0.00046706,0.00196492,0.00013683,0.00002200,-0.00053099,-0.00008195,
 -0.00030290,-0.00030282,0.00131748,-0.00096285,0.00652101,-0.00121813,
 0.00077451,0.00039092,-0.00386448,-0.05050047,-0.02224680,-0.00354306,
 -0.00079287,-0.02974180,0.00540309,0.04892930,-0.00114708,-0.00139481,
 -0.00097388,0.00074343,0.00059567,0.00090099,0.00017329,0.00050500,0.0
 0011959,-0.00152354,0.00009928,-0.01745754,0.00268666,0.00072403,0.000
 48555,-0.03879662,-0.02198815,-0.31281798,-0.00071718,0.00009483,-0.00
 490601,0.03948680,0.02252462,0.33978469,-0.00150767,0.00221375,-0.0013
 7461,0.00037951,-0.00051886,0.00043588,0.00116826,-0.00035183,0.000218
 90,-0.01536117,0.01874289,-0.01143846,0.00089892,0.00012206,0.00028474
 ,-0.17153901,0.12375476,-0.05368029,0.00906054,-0.00788041,0.00438539,
 -0.00258326,0.00136636,-0.00061537,0.18682416,0.00004073,0.00029607,-0
 .00055799,0.00001222,-0.00000221,0.00019070,-0.00049338,-0.00074431,0.
 00022247,-0.00367087,0.00238094,-0.00262514,0.00037191,0.00031078,-0.0
 0019648,0.12734545,-0.17458992,0.05597427,0.02023568,-0.01736940,0.009
 00823,-0.00392984,0.00244377,-0.00107031,-0.13759216,0.18590109,-0.000
 44135,0.00021286,0.00042546,-0.00002780,-0.00006090,0.00002782,0.00032
 034,-0.00011112,-0.00020143,0.00815366,-0.01227058,0.00436534,-0.00072
 299,-0.00034933,0.00018012,-0.05614152,0.05714555,-0.07280775,0.005986
 65,-0.00490607,0.00113555,-0.02118368,0.02212178,-0.00669341,0.0586013
 2,-0.06148294,0.07394453,-0.01027835,-0.00197394,-0.00255726,0.0079332
 9,-0.00004695,0.00313688,0.00239302,0.00601754,0.00043149,-0.11950913,
 0.06394528,-0.03307194,-0.01302822,0.01456636,-0.00911533,-0.03924138,
 0.03751332,-0.01470785,0.00361970,0.00017865,-0.00152099,0.00341593,-0
 .00019052,-0.00089617,-0.00790344,-0.00160730,0.00521838,0.46561260,0.
 03104934,-0.03534235,0.01567572,0.00024406,0.00112009,0.00273805,-0.00
 286839,-0.01402128,-0.00163269,0.04546267,-0.14483594,0.04961928,0.005
 50628,-0.00562412,0.00807055,0.00578184,-0.00082121,0.00010545,0.00002
 504,0.00119674,-0.00027100,-0.00095075,0.00006422,0.00006087,-0.000130
 64,0.00096408,0.00019720,-0.12475730,0.27733425,0.00211147,0.00238793,
 -0.00178462,0.00181616,-0.00422522,0.00242725,0.00048439,-0.00226189,0
 .00208027,-0.02127898,0.04633035,-0.11168743,-0.02445708,0.02984387,-0
 .00749723,0.01294803,-0.01363193,0.00806719,-0.00066439,-0.00013043,0.
 00017750,-0.00105796,-0.00078605,0.00158187,0.00429057,0.00046730,-0.0
 0121755,-0.08885481,-0.11503517,0.26075666,0.01310613,0.01656064,0.008
 20629,-0.00618057,0.00328835,-0.00024530,-0.09524989,-0.05618616,-0.02
 048012,0.00118666,0.00130205,-0.00420752,-0.00039459,-0.00007328,-0.00
 030415,0.00011326,0.00063910,0.00037031,0.00023553,0.00006592,-0.00007
 339,-0.00001889,-0.00008596,0.00005351,0.00010492,-0.00012435,-0.00004
 161,-0.00117695,0.00167241,0.00022916,0.60062453,0.01180428,-0.0642792
 4,0.01795013,-0.01298270,0.00249502,-0.01338293,-0.03461947,-0.1952203
 9,-0.01916526,0.00274185,0.00071961,0.00243401,-0.00013912,0.00021312,
 -0.00063204,-0.00018407,0.00027942,0.00022925,0.00001096,0.00031402,-0
 .00024505,-0.00001825,0.00003150,-0.00013263,-0.00069991,-0.00011962,0
 .00015159,-0.00205371,0.00154173,0.00010904,-0.05037909,0.49268587,0.0
 0900979,0.02307001,0.00785444,0.00143246,0.00200642,-0.00520058,-0.022
 17884,-0.03785001,-0.08424861,-0.00484559,0.00078602,0.00089396,0.0004
 4385,0.00023450,0.00052323,-0.00020997,-0.00063859,-0.00012021,-0.0001
 1424,-0.00001803,-0.00002983,0.00005198,0.00011021,-0.00012243,-0.0000
 0663,0.00008003,0.00003773,-0.00045524,0.00166890,0.00056604,0.0089327
 4,-0.03557060,0.60846168,-0.00137475,0.00247452,-0.00260211,0.00113572
 ,0.00075298,0.00079435,-0.00526425,-0.01148847,-0.00057667,-0.00024309
 ,0.00009230,0.00033536,0.00002720,0.00007751,0.00005597,-0.00005129,-0
 .00002286,-0.00003435,0.00000582,-0.00002907,0.00002954,-0.00000140,-0
 .00001068,-0.00000038,0.00007471,0.00001095,-0.00000750,0.00024735,-0.
 00017217,-0.00006120,-0.30784761,-0.02045915,0.06320464,0.33023718,-0.
 00699583,0.00325189,-0.00452074,0.00239104,0.00037552,0.00234675,-0.03
 777985,-0.02198121,0.00854021,0.00056797,0.00014765,-0.00070393,-0.000
 10490,-0.00000382,0.00000541,0.00008293,0.00005933,0.00001212,0.000027
 21,-0.00004618,0.00003835,-0.00001523,-0.00003150,0.00005477,0.0001657
 3,-0.00001157,-0.00003772,0.00053484,-0.00040010,-0.00015938,-0.010290
 13,-0.04981704,0.00327522,0.02835391,0.06235588,0.00180821,0.00086065,
 0.00162021,-0.00063631,-0.00128833,-0.00040160,-0.00915280,-0.00238137
 ,0.00258447,-0.00003437,0.00008512,-0.00013565,-0.00005035,-0.00004620
 ,-0.00002538,-0.00000276,-0.00003112,-0.00004650,-0.00002094,-0.000009
 08,0.00002696,0.00002414,-0.00001049,0.00001404,0.00001726,-0.00000535
 ,-0.00002615,0.00010679,-0.00005363,-0.00009100,0.06350912,0.00579878,
 -0.06698903,-0.06662420,-0.00295691,0.06348990,-0.00209947,-0.00263193
 ,-0.00182874,0.00120731,0.00155015,0.00037671,0.00793022,-0.01191405,0
 .00856266,0.00042859,-0.00016188,0.00020988,0.00001005,0.00001915,-0.0
 0000648,0.00003365,0.00002922,0.00001867,-0.00000299,0.00001004,-0.000
 00357,-0.00001602,-0.00000246,0.00000522,-0.00001903,-0.00001562,0.000
 00767,0.00007906,-0.00023028,-0.00000498,-0.14717344,0.09600956,-0.098
 34747,-0.01367218,0.01669980,-0.01938118,0.14928779,-0.00564108,-0.003
 47406,-0.00479705,0.00092759,0.00181264,0.00075824,0.01843683,-0.03550
 313,0.02119072,0.00089784,-0.00004168,0.00092753,0.00001797,-0.0000333
 4,-0.00000608,0.00007798,-0.00012088,-0.00007461,-0.00007622,-0.000030
 26,0.00003730,-0.00001609,0.00000567,0.00000981,-0.00000799,-0.0000050
 5,0.00001382,0.00040769,-0.00089003,-0.00016958,0.08568077,-0.12917619
 ,0.08860628,-0.00069125,0.00359338,-0.00239490,-0.09496984,0.15746063,
 -0.00151811,-0.00202827,-0.00107704,0.00046310,0.00134868,0.00094460,0
 .00526014,-0.00736239,0.00591761,0.00008892,-0.00016008,0.00031678,0.0
 0001294,0.00003107,-0.00000250,-0.00002845,0.00001902,-0.00002902,0.00
 000550,-0.00000049,0.00000540,-0.00000694,-0.00001186,0.00000504,-0.00
 001101,0.00001167,0.00000929,0.00003569,-0.00005443,0.00001896,-0.0972
 4263,0.09832109,-0.15532917,0.00513340,-0.00601680,0.00600595,0.106001
 61,-0.10105583,0.15778601,0.00108316,0.00139120,0.00079163,-0.00027877
 ,-0.00122100,-0.00014250,0.00177816,-0.00705572,-0.01294540,-0.0001877
 8,-0.00000147,-0.00005584,0.00000028,-0.00002208,0.00004756,0.00007604
 ,-0.00003260,-0.00001626,-0.00005072,0.00001188,0.00002046,0.00001870,
 -0.00002000,0.00002207,-0.00002868,-0.00000070,-0.00004744,0.00010559,
 -0.00008807,-0.00003446,-0.05823905,0.00995806,0.04270052,-0.00312905,
 0.00666551,0.03056528,0.00404661,-0.00469007,-0.01820314,0.05493107,-0
 .00516899,0.00348390,-0.00748380,0.00263403,0.00066841,0.00243923,0.00
 314908,-0.02686612,-0.03417738,-0.00085794,-0.00005864,0.00069487,0.00
 015077,0.00016138,0.00023487,0.00006274,-0.00023332,-0.00012213,-0.000
 10186,-0.00002683,0.00007889,-0.00000069,-0.00004797,0.00005885,0.0000
 2869,0.00001174,-0.00006510,0.00029612,-0.00028552,0.00015623,0.008227
 62,-0.05934711,-0.04577455,0.00110031,0.00236629,0.00232579,-0.0043880
 2,0.00632838,0.01697760,-0.00498754,0.07381220,-0.00209296,0.00219911,
 -0.00091363,0.00076919,0.00082897,0.00090873,-0.00282822,-0.00871880,0
 .00094937,0.00040538,-0.00005243,-0.00043276,-0.00001203,-0.00001328,0
 .00004826,0.00003549,0.00008439,0.00002518,0.00002059,0.00000152,-0.00
 000224,0.00000075,-0.00001396,0.00002535,0.00002893,-0.00001804,-0.000
 03215,0.00004922,-0.00015328,0.00008124,0.04180603,-0.05547562,-0.3060
 7993,0.00029172,-0.00007322,-0.00604975,0.00432477,-0.00319733,-0.0145
 7210,-0.04276431,0.06458740,0.32603723,0.01012820,0.00985518,0.0008459
 1,-0.00603036,-0.00604146,-0.00026391,-0.00128812,-0.01009776,0.000764
 54,-0.06202195,0.02958307,0.00014366,0.00426717,-0.00373051,0.00342143
 ,0.00066751,-0.00007926,0.00030587,-0.00087361,-0.00000779,-0.00004227
 ,-0.00068840,0.00037243,0.00037090,0.00115872,-0.00055806,0.00014893,-
 0.21679605,0.03022800,0.05790762,0.00146154,0.00211183,0.00058186,-0.0
 0023365,-0.00055566,-0.00017419,-0.00006691,-0.00056820,0.00002420,-0.
 00020126,-0.00030480,-0.00006832,0.55069188,0.01196607,-0.00470303,0.0
 0062940,-0.00429343,0.00043625,0.00086282,-0.00153428,0.00094657,-0.00
 131911,0.02625250,0.00180715,-0.01715914,0.00241841,-0.00011025,0.0009
 7615,0.00318582,-0.00463286,0.00291568,-0.00045207,0.00010572,0.000166
 01,-0.00058088,0.00002506,0.00024831,0.00147772,0.00059101,-0.00069434
 ,0.02753603,-0.10066417,0.02141776,0.00022857,-0.00093937,-0.00011336,
 -0.00002826,-0.00012868,0.00001826,-0.00009602,0.00002055,-0.00006484,
 0.00003291,0.00002612,0.00010581,-0.06994785,0.58610894,-0.00784570,-0
 .00523114,0.00312460,0.00382396,0.00326395,-0.00194658,0.00033515,0.00
 706677,-0.00190271,0.00568129,-0.01615575,0.01890035,-0.00636542,0.003
 11873,-0.00237079,-0.00454203,0.00549574,-0.00387964,0.00102819,-0.000
 03441,-0.00007253,0.00102881,-0.00020833,-0.00039425,-0.00223341,0.000
 17282,0.00137056,0.05503922,0.01900592,-0.12176564,-0.00113492,-0.0008
 6450,-0.00031698,0.00019486,0.00050870,0.00021954,0.00007379,0.0003708
 6,0.00000935,0.00020330,0.00011931,-0.00004350,-0.09759131,-0.37182963
 ,0.73804916,-0.00131509,-0.00109628,-0.00049727,0.00069499,0.00029568,
 0.00027878,0.00015652,0.00088690,0.00001091,0.00016396,-0.00238782,0.0
 0405764,-0.00013769,0.00013494,-0.00040764,-0.00085381,0.00120304,-0.0
 0061189,0.00005015,-0.00004623,-0.00000820,0.00007395,-0.00002100,-0.0
 0001034,-0.00042018,-0.00012394,0.00024538,-0.03873490,0.03108759,-0.0
 0867400,-0.00008456,-0.00019893,-0.00007626,0.00001991,0.00004476,0.00
 000731,0.00000514,0.00004941,-0.00000178,0.00000894,0.00002503,0.00000
 970,-0.14263081,0.05395281,-0.03660568,0.57111290,-0.00026315,0.000275
 13,0.00025537,-0.00027977,0.00002585,-0.00014331,-0.00002791,-0.000028
 97,-0.00006570,-0.00057676,0.00328923,0.00194071,0.00039249,-0.0003495
 7,-0.00029444,0.00008715,0.00000105,0.00005275,-0.00005597,-0.00002684
 ,0.00000068,0.00000703,0.00003265,-0.00003670,-0.00004103,-0.00003111,
 -0.00004606,0.01175640,0.00286241,0.00397679,0.00002224,0.00007428,-0.
 00000942,0.00000036,0.00000287,0.00000267,0.00000240,-0.00000047,0.000
 00061,0.00000008,-0.00001418,-0.00001004,0.05621657,-0.14277807,0.0282
 5648,0.02483449,0.53779171,0.00023598,0.00035507,-0.00027497,-0.000440
 65,-0.00022891,0.00013355,-0.00014020,0.00013005,-0.00000400,0.0045795
 9,0.00209851,0.00125604,0.00072360,-0.00032434,-0.00003042,0.00073113,
 -0.00096573,0.00059288,-0.00007372,-0.00001497,0.00001819,-0.00006973,
 0.00003538,-0.00001615,0.00034114,0.00005235,-0.00026195,0.01443701,-0
 .00834872,0.01187668,0.00005074,-0.00015241,-0.00007698,-0.00000691,-0
 .00002947,-0.00001290,-0.00000767,0.00001143,-0.00000840,-0.00000452,0
 .00000203,0.00001887,-0.03811508,0.02804945,-0.10150181,-0.05781793,0.
 00945707,0.55858956,-0.00058732,-0.00005725,-0.00050773,0.00026593,-0.
 00010060,0.00037307,0.00015474,-0.00005007,0.00017453,0.00035910,0.000
 56993,0.00065597,0.00012233,-0.00007685,0.00003798,0.00004530,0.000001
 51,-0.00001862,0.00000419,-0.00000512,-0.00000347,-0.00003741,0.000023
 66,0.00002495,-0.00000940,-0.00000496,0.00000623,-0.00077617,0.0015764
 7,0.00150880,0.00002252,0.00004188,-0.00002515,-0.00000336,-0.00000281
 ,-0.00000665,0.00000379,0.00000347,0.00000419,-0.00000782,0.00000258,0
 .00000050,-0.00619408,-0.01265594,-0.02020092,-0.06773061,-0.02836961,
 -0.06901313,0.06915614,0.00068550,0.00029081,0.00073494,-0.00064296,0.
 00008113,-0.00046990,-0.00020442,0.00004620,-0.00025394,-0.00040927,-0
 .00031724,-0.00043071,-0.00011786,-0.00000810,0.00003383,-0.00004219,-
 0.00002268,-0.00005379,-0.00000849,0.00000162,-0.00000826,0.00001505,0
 .00001930,-0.00000157,0.00001006,0.00000274,0.00002048,-0.00006984,-0.
 00071973,-0.00109279,-0.00000536,-0.00002940,0.00001871,0.00000322,-0.
 00000074,0.00001662,-0.00000770,-0.00000336,-0.00000504,0.00001192,-0.
 00000465,0.00000053,0.00574245,0.01193861,0.02216348,-0.02709365,-0.08
 153771,-0.09300484,0.03067874,0.08845959,-0.00017767,0.00004766,-0.000
 25160,0.00011247,0.00004317,0.00003601,0.00006109,-0.00011754,0.000127
 83,-0.00015683,0.00051733,0.00026400,0.00016727,-0.00008682,0.00000980
 ,0.00000291,-0.00000679,0.00004413,-0.00000341,0.00000270,0.00000204,-
 0.00001407,-0.00000176,0.00000150,0.00000142,-0.00000317,-0.00001099,0
 .00129469,0.00011811,0.00084778,0.00000259,0.00002916,0.00000551,-0.00
 000312,-0.00000244,-0.00000925,0.00000424,-0.00000390,0.00000104,-0.00
 000532,-0.00000119,-0.00000289,-0.00376912,-0.00498719,-0.01658803,-0.
 06863762,-0.09557555,-0.25758111,0.07637692,0.10074153,0.27904960,0.00
 004621,-0.00000101,-0.00004797,0.00000328,0.00000194,0.00004586,-0.000
 00234,0.00000056,0.00002040,0.00030955,-0.00014842,-0.00005739,0.00003
 925,-0.00001093,0.00004781,0.00005330,-0.00002706,-0.00000279,-0.00003
 751,-0.00000005,-0.00001179,-0.00000805,0.00000916,0.00001371,0.000008
 07,-0.00000355,0.00000259,-0.00172350,-0.00081198,-0.00041614,-0.00000
 620,-0.00001110,-0.00000653,-0.00000199,-0.00000271,-0.00000279,0.0000
 0147,0.00000080,0.00000021,-0.00000033,0.00000144,0.00000161,0.0143206
 3,0.01948269,0.00029639,-0.10752584,-0.11082937,0.02490884,-0.00473649
 ,-0.00771339,0.00241895,0.11136528,-0.00042209,0.00000885,-0.00011847,
 0.00021898,0.00003031,-0.00000636,0.00007984,0.00008987,0.00003886,0.0
 0056090,0.00021066,0.00035648,-0.00005071,0.00000043,-0.00010193,-0.00
 003979,0.00001152,-0.00000230,0.00004578,0.00000307,0.00001177,0.00002
 680,-0.00002064,-0.00002071,-0.00000786,0.00000389,-0.00000931,0.00061
 315,0.00211034,-0.00039381,-0.00002142,0.00002086,-0.00000169,0.000002
 87,0.00001086,-0.00000007,0.00000451,0.00000595,0.00000255,-0.00000019
 ,0.00000145,-0.00000348,-0.01472864,-0.01817761,0.00225819,-0.10872365
 ,-0.25893981,0.04161482,-0.00467904,-0.00995651,0.00247964,0.12054135,
 0.27876694,0.00013979,-0.00001510,-0.00007117,0.00003942,0.00001039,0.
 00001617,0.00000751,-0.00011095,0.00005329,-0.00034382,-0.00023984,-0.
 00038973,-0.00000687,0.00006921,0.00004481,0.00000971,0.00001477,0.000
 04918,-0.00000581,0.00000481,0.00001817,-0.00000260,-0.00002897,-0.000
 00763,0.00000608,0.00000706,-0.00001433,0.00088910,-0.00135798,0.00006
 724,0.00000512,0.00001393,0.00001577,-0.00000140,-0.00000487,-0.000004
 52,-0.00000047,-0.00000515,0.00000048,-0.00000282,-0.00000057,-0.00000
 148,0.00889492,0.01424892,-0.00504887,0.02456819,0.04254709,-0.0493786
 9,-0.01273878,-0.02619218,0.00640280,-0.02351537,-0.04762892,0.0534233
 6,-0.00036016,-0.00032117,-0.00008850,0.00018105,0.00016338,0.00006346
 ,0.00004908,0.00027783,-0.00001257,0.00008229,-0.00059728,0.00066071,-
 0.00015662,0.00010374,-0.00004097,-0.00019634,0.00030990,-0.00018666,0
 .00002903,-0.00001259,0.00000513,0.00002015,-0.00001560,0.00000289,-0.
 00011527,-0.00002335,0.00007277,-0.00364452,0.00454705,-0.00213154,-0.
 00003273,-0.00005520,-0.00001636,0.00000763,0.00001568,0.00000532,0.00
 000095,0.00001553,0.00000010,0.00000451,0.00000886,0.00000141,-0.01753
 904,-0.00064601,0.01534361,-0.22901233,0.02988162,0.13258278,0.0099772
 3,-0.00113529,-0.00626592,-0.00915079,0.00279656,0.00588493,0.24711113
 ,0.00009271,0.00036365,-0.00005992,-0.00012247,-0.00017374,-0.00000996
 ,-0.00000367,-0.00019427,0.00003846,0.00058935,0.00097088,-0.00019745,
 0.00013513,-0.00010144,0.00005654,0.00018380,-0.00030469,0.00018329,-0
 .00000458,0.00000610,0.00001759,-0.00001950,-0.00000167,-0.00001074,0.
 00011337,0.00002502,-0.00007903,0.00422782,-0.00265172,0.00225122,0.00
 003721,0.00006489,0.00000709,-0.00000528,-0.00001356,-0.00000331,-0.00
 000134,-0.00000991,0.00000115,-0.00000586,-0.00000715,-0.00000115,0.01
 542520,-0.00242858,-0.01654154,0.02603998,-0.05371084,-0.01801948,0.01
 020336,-0.00247707,-0.00592263,-0.02182805,0.00681162,0.01682357,-0.03
 324802,0.05287579,-0.00023258,-0.00010231,-0.00013230,0.00010911,-0.00
 000148,0.00010301,0.00006036,0.00002488,0.00003479,-0.00061787,0.00012
 878,0.00054455,0.00002562,-0.00004700,0.00000336,-0.00012433,0.0001974
 9,-0.00011857,0.00000375,-0.00000690,-0.00000504,-0.00000542,0.0000103
 0,0.00001220,-0.00007749,-0.00001743,0.00005274,-0.00308614,0.00273058
 ,-0.00069060,0.00000150,0.00001926,-0.00000634,0.00000109,0.00000344,0
 .00000207,0.00000071,0.00000322,0.00000249,-0.00000079,0.00000218,-0.0
 0000144,-0.01336628,0.00173800,0.00854860,0.13838939,-0.02179103,-0.14
 691152,0.02277799,-0.00210355,-0.01373447,0.00132000,-0.00090481,-0.00
 277814,-0.14529289,0.02131018,0.15460560,-0.00222997,-0.00430941,-0.00
 174285,0.00183774,0.00226263,0.00083939,0.00045657,0.00237892,0.000134
 81,0.00372367,-0.01026375,0.00261307,-0.00169043,0.00100208,0.00206140
 ,0.00083680,0.00002342,0.00161961,0.00008402,0.00005605,0.00008505,-0.
 00061703,-0.00026820,0.00012323,-0.00019072,0.00013114,-0.00015004,-0.
 03059391,-0.02717116,0.06633933,-0.00045060,-0.00087774,-0.00007553,0.
 00006710,0.00019774,0.00004312,0.00001542,0.00014486,-0.00001793,0.000
 07040,0.00012256,0.00002054,-0.12813141,-0.05629877,0.09347081,0.01615
 935,0.01724275,-0.01290127,-0.00002862,0.00030349,-0.00140946,-0.00295
 400,0.00378264,-0.00382682,0.00274476,-0.00180916,0.00011428,0.1408908
 6,-0.00659820,-0.00132426,-0.00014638,0.00494431,0.00017457,-0.0021880
 6,0.00092746,0.00135511,0.00011275,0.00727956,-0.00825262,0.00100478,-
 0.00200328,0.00056588,-0.00154551,-0.00154149,0.00215448,-0.00147258,0
 .00063723,0.00006803,-0.00015363,0.00062889,-0.00015417,-0.00032041,-0
 .00076469,-0.00005795,0.00024922,-0.03689365,0.01906229,0.03094577,-0.
 00055915,0.00048803,0.00011285,0.00003827,0.00027069,0.00007289,0.0000
 9432,0.00006114,0.00004659,0.00005373,0.00003162,-0.00007710,-0.042914
 75,-0.32744339,0.31906435,0.00113687,-0.00693763,0.03928273,0.00290063
 ,-0.00576282,0.00272968,0.00134967,-0.00099204,0.00184478,-0.00206564,
 0.00095670,-0.00119382,0.07334992,0.32573633,0.00274943,0.00334806,-0.
 00227332,-0.00005959,-0.00218699,-0.00005356,-0.00004811,-0.00419158,0
 .00155812,-0.01370748,0.00877165,-0.00839407,0.00282084,-0.00150935,0.
 00147851,0.00124288,-0.00152185,0.00175408,-0.00053454,-0.00000514,-0.
 00016050,-0.00061362,0.00020468,0.00045847,0.00082564,-0.00021004,-0.0
 0028340,0.07362724,0.02691629,-0.04381462,0.00056253,0.00056478,0.0001
 6174,-0.00012308,-0.00027948,-0.00017142,-0.00000537,-0.00022477,-0.00
 000477,-0.00012801,-0.00005253,0.00003763,0.07998062,0.32479105,-0.514
 39083,0.00578131,0.03148203,-0.01642686,0.00057332,-0.00011355,0.00138
 632,-0.00501557,0.00242956,-0.00239672,-0.00058770,0.00015612,0.000469
 00,-0.14734074,-0.38836892,0.58106621\\-0.00000199,-0.00000453,-0.0000
 0192,0.00000222,0.00000562,0.00000298,-0.00000073,0.00001492,0.0000016
 1,0.00001024,-0.00000331,0.00000254,-0.00000454,-0.00000302,0.00000007
 ,-0.00000955,-0.00000022,0.00001078,-0.00000119,0.00000094,-0.00000012
 ,0.00000118,-0.00000101,-0.00000217,0.00000162,0.00000023,-0.00000163,
 -0.00003895,-0.00000228,0.00000918,0.00000047,-0.00001071,-0.00000166,
 0.00000149,0.00000097,0.00000010,0.00000113,0.00000128,-0.00000031,0.,
 0.00000176,-0.00000012,0.00004274,0.00000690,-0.00002627,-0.00000860,-
 0.00000436,-0.00000363,0.00000113,0.00000430,-0.00000204,-0.00000068,0
 .00000284,0.00000262,0.00000175,-0.00000346,-0.00000013,0.00000227,-0.
 00000685,0.00001012\\\@


 A SOLDIER'S LIFE IS A LIFE OF HONOR, BUT A DOG WOULD NOT LEAD IT.
 -- PRINCE RUPERT, FOUNDER OF THE HUDSON'S BAY COMPANY
 Job cpu time:       0 days  3 hours 26 minutes 22.7 seconds.
 Elapsed time:       0 days  0 hours  8 minutes 38.2 seconds.
 File lengths (MBytes):  RWF=    239 Int=      0 D2E=      0 Chk=     19 Scr=      1
 Normal termination of Gaussian 16 at Wed Oct  2 16:29:31 2019.
