 Entering Gaussian System, Link 0=g16
 Initial command:
 /opt/gaussian/16.B.01/g16/l1.exe "/oasis/scratch/comet/mayes/temp_project/Gau-28281.inp" -scrdir="/oasis/scratch/comet/mayes/temp_project/"
 Entering Link 1 = /opt/gaussian/16.B.01/g16/l1.exe PID=     28282.
  
 Copyright (c) 1988-2017, Gaussian, Inc.  All Rights Reserved.
  
 This is part of the Gaussian(R) 16 program.  It is based on
 the Gaussian(R) 09 system (copyright 2009, Gaussian, Inc.),
 the Gaussian(R) 03 system (copyright 2003, Gaussian, Inc.),
 the Gaussian(R) 98 system (copyright 1998, Gaussian, Inc.),
 the Gaussian(R) 94 system (copyright 1995, Gaussian, Inc.),
 the Gaussian 92(TM) system (copyright 1992, Gaussian, Inc.),
 the Gaussian 90(TM) system (copyright 1990, Gaussian, Inc.),
 the Gaussian 88(TM) system (copyright 1988, Gaussian, Inc.),
 the Gaussian 86(TM) system (copyright 1986, Carnegie Mellon
 University), and the Gaussian 82(TM) system (copyright 1983,
 Carnegie Mellon University). Gaussian is a federally registered
 trademark of Gaussian, Inc.
  
 This software contains proprietary and confidential information,
 including trade secrets, belonging to Gaussian, Inc.
  
 This software is provided under written license and may be
 used, copied, transmitted, or stored only in accord with that
 written license.
  
 The following legend is applicable only to US Government
 contracts under FAR:
  
                    RESTRICTED RIGHTS LEGEND
  
 Use, reproduction and disclosure by the US Government is
 subject to restrictions as set forth in subparagraphs (a)
 and (c) of the Commercial Computer Software - Restricted
 Rights clause in FAR 52.227-19.
  
 Gaussian, Inc.
 340 Quinnipiac St., Bldg. 40, Wallingford CT 06492
  
  
 ---------------------------------------------------------------
 Warning -- This program may not be used in any manner that
 competes with the business of Gaussian, Inc. or will provide
 assistance to any competitor of Gaussian, Inc.  The licensee
 of this program is prohibited from giving any competitor of
 Gaussian, Inc. access to this program.  By using this program,
 the user acknowledges that Gaussian, Inc. is engaged in the
 business of creating and licensing software in the field of
 computational chemistry and represents and warrants to the
 licensee that it is not a competitor of Gaussian, Inc. and that
 it will not use this program in any manner prohibited above.
 ---------------------------------------------------------------
  

 Cite this work as:
 Gaussian 16, Revision B.01,
 M. J. Frisch, G. W. Trucks, H. B. Schlegel, G. E. Scuseria, 
 M. A. Robb, J. R. Cheeseman, G. Scalmani, V. Barone, 
 G. A. Petersson, H. Nakatsuji, X. Li, M. Caricato, A. V. Marenich, 
 J. Bloino, B. G. Janesko, R. Gomperts, B. Mennucci, H. P. Hratchian, 
 J. V. Ortiz, A. F. Izmaylov, J. L. Sonnenberg, D. Williams-Young, 
 F. Ding, F. Lipparini, F. Egidi, J. Goings, B. Peng, A. Petrone, 
 T. Henderson, D. Ranasinghe, V. G. Zakrzewski, J. Gao, N. Rega, 
 G. Zheng, W. Liang, M. Hada, M. Ehara, K. Toyota, R. Fukuda, 
 J. Hasegawa, M. Ishida, T. Nakajima, Y. Honda, O. Kitao, H. Nakai, 
 T. Vreven, K. Throssell, J. A. Montgomery, Jr., J. E. Peralta, 
 F. Ogliaro, M. J. Bearpark, J. J. Heyd, E. N. Brothers, K. N. Kudin, 
 V. N. Staroverov, T. A. Keith, R. Kobayashi, J. Normand, 
 K. Raghavachari, A. P. Rendell, J. C. Burant, S. S. Iyengar, 
 J. Tomasi, M. Cossi, J. M. Millam, M. Klene, C. Adamo, R. Cammi, 
 J. W. Ochterski, R. L. Martin, K. Morokuma, O. Farkas, 
 J. B. Foresman, and D. J. Fox, Gaussian, Inc., Wallingford CT, 2016.
 
 ******************************************
 Gaussian 16:  ES64L-G16RevB.01 20-Dec-2017
                 3-Oct-2019 
 ******************************************
 %RWF=/oasis/scratch/comet/mayes/temp_project/lme2acetoxypropionate_46_t.rwf
 %NoSave
 %OldChk=/oasis/scratch/comet/mayes/temp_project/lme2acetoxypropionate_46.chk
 %Chk=/oasis/scratch/comet/mayes/temp_project/lme2acetoxypropionate_46_t.chk
 %cpu=0-23
 SetSPE:  set environment variable "MP_BIND" = "yes"
 SetSPE:  set environment variable "MP_BLIST" = "0,1,2,3,4,5,6,7,8,9,10,11,12,13,14,15,16,17,18,19,20,21,22,23"
 Will use up to   24 processors via shared memory.
 %mem=112GB
 Copying data from "/oasis/scratch/comet/mayes/temp_project/lme2acetoxypropionate_46.chk" to current chk file "/oasis/scratch/comet/mayes/temp_project/lme2acetoxypropionate_46_t.chk"
 IOpt=  2 FromEx=T IUOpen= 4 IOptOp= 5 NList=   0 IFRang= 0 IUIn= 4 IUOut= 2.
 ----------------------------------------------------------------------
 # m062x/Def2TZVP nosymm scf=xqc opt=ReadFC freq=NoRaman CPHF=Grid=Fine
  guess=read geom=allcheck
 ----------------------------------------------------------------------
 1/10=3,18=20,19=15,26=3,29=7,38=1/1,3;
 2/9=110,12=2,15=1,40=1/2;
 3/5=44,7=101,11=2,14=-4,25=1,30=1,71=1,74=-55,116=-2/1,2,3;
 4/5=1/1;
 5/5=2,8=3,13=1,38=6/2,8;
 6/7=2,8=2,9=2,10=2,28=1/1;
 7/30=1/1,2,3,16;
 1/18=20,19=15,26=3/3(2);
 2/9=110,15=1/2;
 99//99;
 2/9=110,15=1/2;
 3/5=44,7=101,11=2,14=-2,25=1,30=1,71=1,74=-55/1,2,3;
 4/5=5,16=3,69=1/1;
 5/5=2,8=3,13=1,38=5/2,8;
 7/30=1/1,2,3,16;
 1/18=20,19=15,26=3/3(-5);
 2/9=110,15=1/2;
 6/7=2,8=2,9=2,10=2,19=2,28=1/1;
 99/9=1/99;
 Structure from the checkpoint file:  "/oasis/scratch/comet/mayes/temp_project/lme2acetoxypropionate_46_t.chk"
 ----------------------------------------------------------------------
 obabel lme2acetoxypropionate_0.pdb -O lme2acetoxypropionate.pdb --conf
 ab --conf10000 --original
 ----------------------------------------------------------------------
 Charge =  0 Multiplicity = 1
 Redundant internal coordinates found in file.  (old form).
 C,0,-1.2430308713,0.5889844332,0.5642830808
 O,0,-0.2987363649,0.878179497,1.2481962179
 O,0,-1.9928329297,1.4673425316,-0.0899216555
 C,0,-1.7695072111,-0.8258682049,0.3567619787
 H,0,-1.8807696819,-0.9814863119,-0.7262119606
 C,0,-3.0920021639,-1.0303529639,1.0746306927
 H,0,-3.8375210467,-0.3270961565,0.6849506571
 H,0,-3.4452419977,-2.0556770509,0.9094985505
 H,0,-2.967479116,-0.8636867856,2.1529523308
 O,0,-0.8336593511,-1.7481792914,0.885052169
 C,0,-1.6347960483,2.8395174984,0.0595714822
 H,0,-0.613954064,3.0069236907,-0.3066334189
 H,0,-2.3521834377,3.4105856677,-0.5356619541
 H,0,-1.6919373826,3.1343835222,1.1150976661
 C,0,0.3364020902,-1.8505904147,0.2297104512
 C,0,1.2757865263,-2.7868701081,0.9284266983
 H,0,1.5501773495,-2.349775936,1.8982557817
 H,0,0.7746199561,-3.7433076909,1.122745148
 H,0,2.1708381145,-2.9356709113,0.3178568488
 O,0,0.5618276305,-1.2463550148,-0.7855607648
 Recover connectivity data from disk.

 GradGradGradGradGradGradGradGradGradGradGradGradGradGradGradGradGradGrad
 Berny optimization.
 Initialization pass.
 Force constant matrix read from checkpoint file:
 "/oasis/scratch/comet/mayes/temp_project/lme2acetoxypropionate_46_t.chk"
                           ----------------------------
                           !    Initial Parameters    !
                           ! (Angstroms and Degrees)  !
 --------------------------                            --------------------------
 ! Name  Definition              Value          Derivative Info.                !
 --------------------------------------------------------------------------------
 ! R1    R(1,2)                  1.2013         D2E/DX2 =    0.9251             !
 ! R2    R(1,3)                  1.3273         D2E/DX2 =    0.4745             !
 ! R3    R(1,4)                  1.5238         D2E/DX2 =    0.2957             !
 ! R4    R(3,11)                 1.426          D2E/DX2 =    0.3529             !
 ! R5    R(4,5)                  1.0997         D2E/DX2 =    0.3439             !
 ! R6    R(4,6)                  1.5186         D2E/DX2 =    0.3077             !
 ! R7    R(4,10)                 1.4162         D2E/DX2 =    0.3663             !
 ! R8    R(6,7)                  1.0965         D2E/DX2 =    0.3544             !
 ! R9    R(6,8)                  1.097          D2E/DX2 =    0.3522             !
 ! R10   R(6,9)                  1.0982         D2E/DX2 =    0.3487             !
 ! R11   R(10,15)                1.345          D2E/DX2 =    0.432              !
 ! R12   R(11,12)                1.0974         D2E/DX2 =    0.351              !
 ! R13   R(11,13)                1.0932         D2E/DX2 =    0.3618             !
 ! R14   R(11,14)                1.0974         D2E/DX2 =    0.3507             !
 ! R15   R(15,16)                1.4991         D2E/DX2 =    0.3172             !
 ! R16   R(15,20)                1.2028         D2E/DX2 =    0.9176             !
 ! R17   R(16,17)                1.0986         D2E/DX2 =    0.3498             !
 ! R18   R(16,18)                1.0971         D2E/DX2 =    0.353              !
 ! R19   R(16,19)                1.0936         D2E/DX2 =    0.361              !
 ! A1    A(2,1,3)              124.4274         D2E/DX2 =    0.215              !
 ! A2    A(2,1,4)              124.9347         D2E/DX2 =    0.1659             !
 ! A3    A(3,1,4)              110.6185         D2E/DX2 =    0.1732             !
 ! A4    A(1,3,11)             116.3139         D2E/DX2 =    0.2932             !
 ! A5    A(1,4,5)              107.4845         D2E/DX2 =    0.032              !
 ! A6    A(1,4,6)              111.1941         D2E/DX2 =    0.0929             !
 ! A7    A(1,4,10)             109.0006         D2E/DX2 =    0.0826             !
 ! A8    A(5,4,6)              110.9989         D2E/DX2 =    0.0364             !
 ! A9    A(5,4,10)             110.0019         D2E/DX2 =    0.0299             !
 ! A10   A(6,4,10)             108.1468         D2E/DX2 =    0.0846             !
 ! A11   A(4,6,7)              109.7406         D2E/DX2 =    0.1015             !
 ! A12   A(4,6,8)              109.5805         D2E/DX2 =    0.1024             !
 ! A13   A(4,6,9)              110.1804         D2E/DX2 =    0.1053             !
 ! A14   A(7,6,8)              109.0899         D2E/DX2 =    0.0471             !
 ! A15   A(7,6,9)              109.1912         D2E/DX2 =    0.0482             !
 ! A16   A(8,6,9)              109.0366         D2E/DX2 =    0.049              !
 ! A17   A(4,10,15)            116.2767         D2E/DX2 =    0.3435             !
 ! A18   A(3,11,12)            110.205          D2E/DX2 =    0.1434             !
 ! A19   A(3,11,13)            106.3096         D2E/DX2 =    0.1431             !
 ! A20   A(3,11,14)            110.2618         D2E/DX2 =    0.1436             !
 ! A21   A(12,11,13)           110.4304         D2E/DX2 =    0.0674             !
 ! A22   A(12,11,14)           109.1726         D2E/DX2 =    0.0691             !
 ! A23   A(13,11,14)           110.4368         D2E/DX2 =    0.0675             !
 ! A24   A(10,15,16)           111.4439         D2E/DX2 =    0.1761             !
 ! A25   A(10,15,20)           122.4169         D2E/DX2 =    0.2293             !
 ! A26   A(16,15,20)           126.1389         D2E/DX2 =    0.1636             !
 ! A27   A(15,16,17)           108.6316         D2E/DX2 =    0.0955             !
 ! A28   A(15,16,18)           109.9243         D2E/DX2 =    0.0975             !
 ! A29   A(15,16,19)           109.7314         D2E/DX2 =    0.1029             !
 ! A30   A(17,16,18)           107.733          D2E/DX2 =    0.0494             !
 ! A31   A(17,16,19)           110.0339         D2E/DX2 =    0.0507             !
 ! A32   A(18,16,19)           110.7394         D2E/DX2 =    0.0519             !
 ! D1    D(2,1,3,11)            -0.6005         D2E/DX2 =    0.0172             !
 ! D2    D(4,1,3,11)           177.8646         D2E/DX2 =    0.0171             !
 ! D3    D(2,1,4,5)           -129.9593         D2E/DX2 =    0.016              !
 ! D4    D(2,1,4,6)            108.3653         D2E/DX2 =    0.0184             !
 ! D5    D(2,1,4,10)           -10.7663         D2E/DX2 =    0.0232             !
 ! D6    D(3,1,4,5)             51.585          D2E/DX2 =    0.0174             !
 ! D7    D(3,1,4,6)            -70.0904         D2E/DX2 =    0.0194             !
 ! D8    D(3,1,4,10)           170.778          D2E/DX2 =    0.0233             !
 ! D9    D(1,3,11,12)           60.5826         D2E/DX2 =    0.0232             !
 ! D10   D(1,3,11,13)         -179.7318         D2E/DX2 =    0.0237             !
 ! D11   D(1,3,11,14)          -60.0074         D2E/DX2 =    0.0233             !
 ! D12   D(1,4,6,7)             60.3361         D2E/DX2 =    0.0168             !
 ! D13   D(1,4,6,8)           -179.899          D2E/DX2 =    0.0172             !
 ! D14   D(1,4,6,9)            -59.9275         D2E/DX2 =    0.0173             !
 ! D15   D(5,4,6,7)            -59.2679         D2E/DX2 =    0.0138             !
 ! D16   D(5,4,6,8)             60.497          D2E/DX2 =    0.0139             !
 ! D17   D(5,4,6,9)           -179.5316         D2E/DX2 =    0.0135             !
 ! D18   D(10,4,6,7)           179.9771         D2E/DX2 =    0.0188             !
 ! D19   D(10,4,6,8)           -60.258          D2E/DX2 =    0.0187             !
 ! D20   D(10,4,6,9)            59.7135         D2E/DX2 =    0.0194             !
 ! D21   D(1,4,10,15)          -68.7236         D2E/DX2 =    0.0332             !
 ! D22   D(5,4,10,15)           48.8896         D2E/DX2 =    0.0169             !
 ! D23   D(6,4,10,15)          170.2634         D2E/DX2 =    0.0219             !
 ! D24   D(4,10,15,16)         176.3259         D2E/DX2 =    0.0177             !
 ! D25   D(4,10,15,20)          -3.4981         D2E/DX2 =    0.0207             !
 ! D26   D(10,15,16,17)        -65.914          D2E/DX2 =    0.0168             !
 ! D27   D(10,15,16,18)         51.738          D2E/DX2 =    0.0174             !
 ! D28   D(10,15,16,19)        173.7547         D2E/DX2 =    0.0167             !
 ! D29   D(20,15,16,17)        113.9021         D2E/DX2 =    0.0149             !
 ! D30   D(20,15,16,18)       -128.446          D2E/DX2 =    0.0149             !
 ! D31   D(20,15,16,19)         -6.4292         D2E/DX2 =    0.0181             !
 --------------------------------------------------------------------------------
 Trust Radius=3.00D-01 FncErr=1.00D-07 GrdErr=1.00D-06 EigMax=2.50D+02 EigMin=1.00D-04
 Number of steps in this run=     92 maximum allowed number of steps=    120.
 GradGradGradGradGradGradGradGradGradGradGradGradGradGradGradGradGradGrad

                          Input orientation:                          
 ---------------------------------------------------------------------
 Center     Atomic      Atomic             Coordinates (Angstroms)
 Number     Number       Type             X           Y           Z
 ---------------------------------------------------------------------
      1          6           0       -1.243031    0.588984    0.564283
      2          8           0       -0.298736    0.878179    1.248196
      3          8           0       -1.992833    1.467343   -0.089922
      4          6           0       -1.769507   -0.825868    0.356762
      5          1           0       -1.880770   -0.981486   -0.726212
      6          6           0       -3.092002   -1.030353    1.074631
      7          1           0       -3.837521   -0.327096    0.684951
      8          1           0       -3.445242   -2.055677    0.909499
      9          1           0       -2.967479   -0.863687    2.152952
     10          8           0       -0.833659   -1.748179    0.885052
     11          6           0       -1.634796    2.839517    0.059571
     12          1           0       -0.613954    3.006924   -0.306633
     13          1           0       -2.352183    3.410586   -0.535662
     14          1           0       -1.691937    3.134384    1.115098
     15          6           0        0.336402   -1.850590    0.229710
     16          6           0        1.275787   -2.786870    0.928427
     17          1           0        1.550177   -2.349776    1.898256
     18          1           0        0.774620   -3.743308    1.122745
     19          1           0        2.170838   -2.935671    0.317857
     20          8           0        0.561828   -1.246355   -0.785561
 ---------------------------------------------------------------------
                    Distance matrix (angstroms):
                    1          2          3          4          5
     1  C    0.000000
     2  O    1.201276   0.000000
     3  O    1.327290   2.237775   0.000000
     4  C    1.523828   2.421074   2.346959   0.000000
     5  H    2.130368   3.139980   2.532624   1.099740   0.000000
     6  C    2.510260   3.387470   2.966958   1.518599   2.170831
     7  H    2.754114   3.780599   2.687622   2.152478   2.499696
     8  H    3.458778   4.315406   3.939543   2.150822   2.505396
     9  H    2.758232   3.312834   3.378478   2.159367   3.079675
    10  O    2.394329   2.704769   3.554411   1.416178   2.068920
    11  C    2.339468   2.654191   1.425974   3.679881   3.908712
    12  H    2.645877   2.654884   2.078120   4.057794   4.205744
    13  H    3.225141   3.716433   2.025836   4.368464   4.421407
    14  H    2.642720   2.655029   2.078854   4.032950   4.512922
    15  C    2.925418   2.981090   4.066470   2.345432   2.566122
    16  C    4.227699   4.001745   5.460699   3.666898   3.995133
    17  H    4.268232   3.776342   5.574600   3.964695   4.531164
    18  H    4.811606   4.746154   6.023307   3.945981   4.254103
    19  H    4.913087   4.637864   6.073629   4.469799   4.617840
    20  O    2.906555   3.064373   3.791353   2.629987   2.457633
                    6          7          8          9         10
     6  C    0.000000
     7  H    1.096458   0.000000
     8  H    1.096967   1.786700   0.000000
     9  H    1.098208   1.788835   1.787533   0.000000
    10  O    2.377252   3.329069   2.629737   2.634973   0.000000
    11  C    4.257898   3.907754   5.288007   4.457803   4.729715
    12  H    4.934391   4.742395   5.926643   5.154636   4.907075
    13  H    4.781455   4.203140   5.758758   5.086909   5.562122
    14  H    4.393956   4.095168   5.482069   4.323045   4.962759
    15  C    3.625001   4.466533   3.847727   3.948224   1.344992
    16  C    4.710022   5.679409   4.777354   4.816991   2.351706
    17  H    4.895821   5.881381   5.100819   4.762620   2.659169
    18  H    4.723686   5.756215   4.549814   4.832892   2.573635
    19  H    5.648047   6.560473   5.715311   5.836351   3.280069
    20  O    4.105781   4.728817   4.425476   4.608395   2.233866
                   11         12         13         14         15
    11  C    0.000000
    12  H    1.097383   0.000000
    13  H    1.093191   1.799122   0.000000
    14  H    1.097427   1.788746   1.799228   0.000000
    15  C    5.090352   4.978583   5.957706   5.454176   0.000000
    16  C    6.393953   6.218082   7.328996   6.625970   1.499089
    17  H    6.360313   6.183788   7.371170   6.418773   2.122847
    18  H    7.090078   7.038244   7.981566   7.306613   2.138206
    19  H    6.921153   6.592381   7.839719   7.238936   2.133149
    20  O    4.715269   4.438718   5.499182   5.280419   1.202785
                   16         17         18         19         20
    16  C    0.000000
    17  H    1.098595   0.000000
    18  H    1.097133   1.773369   0.000000
    19  H    1.093643   1.796150   1.802650   0.000000
    20  O    2.412608   3.065492   3.149871   2.580743   0.000000
 Symmetry turned off by external request.
 Stoichiometry    C6H10O4
 Framework group  C1[X(C6H10O4)]
 Deg. of freedom    54
 Full point group                 C1      NOp   1
 Rotational constants (GHZ):           2.3146516           0.8842595           0.7405127
 Standard basis: def2TZVP (5D, 7F)
   370 basis functions,   590 primitive gaussians,   420 cartesian basis functions
    39 alpha electrons       39 beta electrons
       nuclear repulsion energy       571.5852234490 Hartrees.
 NAtoms=   20 NActive=   20 NUniq=   20 SFac= 1.00D+00 NAtFMM=   60 NAOKFM=F Big=F
 Integral buffers will be    131072 words long.
 Raffenetti 2 integral format.
 Two-electron integral symmetry is turned off.
 One-electron integrals computed using PRISM.
   1 Symmetry operations used in ECPInt.
 ECPInt:  NShTT=   11325 NPrTT=   34180 LenC2=   10810 LenP2D=   25020.
 LDataN:  DoStor=T MaxTD1= 6 Len=  172
 NBasis=   370 RedAO= T EigKep=  1.46D-04  NBF=   370
 NBsUse=   370 1.00D-06 EigRej= -1.00D+00 NBFU=   370
 Initial guess from the checkpoint file:  "/oasis/scratch/comet/mayes/temp_project/lme2acetoxypropionate_46_t.chk"
 B after Tr=     0.000000    0.000000    0.000000
         Rot=    1.000000    0.000000    0.000000    0.000000 Ang=   0.00 deg.
 Requested convergence on RMS density matrix=1.00D-08 within  32 cycles.
 Requested convergence on MAX density matrix=1.00D-06.
 Requested convergence on             energy=1.00D-06.
 No special actions if energy rises.
 SCF Done:  E(RM062X) =  -535.577572272     A.U. after   12 cycles
            NFock= 12  Conv=0.52D-08     -V/T= 2.0047
 QCSCF skips out because SCF is already converged.

 **********************************************************************

            Population analysis using the SCF Density.

 **********************************************************************

 Alpha  occ. eigenvalues --  -19.68076 -19.67389 -19.61980 -19.61438 -10.67409
 Alpha  occ. eigenvalues --  -10.67314 -10.61793 -10.59815 -10.54790 -10.54739
...
 Alpha virt. eigenvalues --   23.40746  23.49303  44.03620  44.06963  44.25596
 Alpha virt. eigenvalues --   44.49890
          Condensed to atoms (all electrons):
               1          2          3          4          5          6
     1  C    4.632734   0.624704   0.343394   0.243056  -0.086423  -0.021789
     2  O    0.624704   7.826164  -0.083502  -0.064302   0.003241  -0.007261
...
    19  H    0.502752   0.005799
    20  O    0.005799   7.854094
 Mulliken charges:
               1
     1  C    0.368325
     2  O   -0.328687
     3  O   -0.274969
     4  C    0.007813
     5  H    0.170282
     6  C   -0.431600
     7  H    0.158566
     8  H    0.153833
     9  H    0.159433
    10  O   -0.262188
    11  C   -0.259256
    12  H    0.161451
    13  H    0.147081
    14  H    0.151692
    15  C    0.392325
    16  C   -0.456377
    17  H    0.169796
    18  H    0.156055
    19  H    0.158468
    20  O   -0.342045
 Sum of Mulliken charges =  -0.00000
 Mulliken charges with hydrogens summed into heavy atoms:
               1
     1  C    0.368325
     2  O   -0.328687
     3  O   -0.274969
     4  C    0.178095
     6  C    0.040233
    10  O   -0.262188
    11  C    0.200969
    15  C    0.392325
    16  C    0.027942
    20  O   -0.342045
 Electronic spatial extent (au):  <R**2>=           1952.5649
 Charge=              0.0000 electrons
 Dipole moment (field-independent basis, Debye):
    X=             -2.2006    Y=             -0.2201    Z=              0.5919  Tot=              2.2894
 Quadrupole moment (field-independent basis, Debye-Ang):
   XX=            -52.8779   YY=            -47.7581   ZZ=            -62.4377
   XY=             -3.7683   XZ=              0.5620   YZ=             -3.3730
 Traceless Quadrupole moment (field-independent basis, Debye-Ang):
   XX=              1.4800   YY=              6.5998   ZZ=             -8.0798
   XY=             -3.7683   XZ=              0.5620   YZ=             -3.3730
 Octapole moment (field-independent basis, Debye-Ang**2):
  XXX=            150.9120  YYY=             73.4393  ZZZ=            -84.0011  XYY=             47.2272
  XXY=             18.1057  XXZ=            -21.4131  XZZ=             52.1267  YZZ=             22.3309
  YYZ=            -25.9482  XYZ=             -5.5556
 Hexadecapole moment (field-independent basis, Debye-Ang**3):
 XXXX=           -999.8782 YYYY=          -1096.8389 ZZZZ=           -288.3305 XXXY=            147.6301
 XXXZ=             82.3160 YYYX=             87.9275 YYYZ=             66.7521 ZZZX=             91.8737
 ZZZY=             76.0770 XXYY=           -339.9410 XXZZ=           -212.9488 YYZZ=           -255.0316
 XXYZ=             23.2308 YYXZ=             39.3456 ZZXY=             43.8130
 N-N= 5.715852234490D+02 E-N=-2.397709761827D+03  KE= 5.330859204799D+02
   1 Symmetry operations used in ECPInt.
 ECPInt:  NShTT=   11325 NPrTT=   34180 LenC2=   10810 LenP2D=   25020.
 LDataN:  DoStor=T MaxTD1= 7 Len=  274
 Calling FoFJK, ICntrl=      2127 FMM=F ISym2X=0 I1Cent= 0 IOpClX= 0 NMat=1 NMatS=1 NMatT=0.
 -------------------------------------------------------------------
 Center     Atomic                   Forces (Hartrees/Bohr)
 Number     Number              X              Y              Z
 -------------------------------------------------------------------
      1        6           0.009937333   -0.000246109    0.006935729
      2        8          -0.006546133   -0.001797542   -0.003235075
      3        8          -0.005612877    0.002526805   -0.003951590
      4        6           0.000260718    0.000946469   -0.005893789
      5        1           0.000814572    0.000559199    0.005226103
      6        6          -0.002785917   -0.000733808    0.002215503
      7        1           0.003599655   -0.003443386    0.001876265
      8        1           0.001677006    0.005107300    0.001265135
      9        1          -0.000735349   -0.001166459   -0.005215770
     10        8          -0.004038548   -0.002646248    0.003319084
     11        6           0.003139747    0.005227550    0.001221937
     12        1          -0.005071189   -0.001182015    0.002220197
     13        1           0.002993845   -0.003503346    0.002569099
     14        1           0.000675430   -0.001708906   -0.005148496
     15        6           0.003029966    0.006239870   -0.008349615
     16        6           0.002468322   -0.002668433    0.002643596
     17        1          -0.001365618   -0.002016934   -0.004889569
     18        1           0.002592354    0.004504801   -0.000904270
     19        1          -0.004913764    0.001011218    0.002941689
     20        8          -0.000119554   -0.005010026    0.005153836
 -------------------------------------------------------------------
 Cartesian Forces:  Max     0.009937333 RMS     0.003799296

 GradGradGradGradGradGradGradGradGradGradGradGradGradGradGradGradGradGrad
 Berny optimization.
 FormGI is forming the generalized inverse of G from B-inverse, IUseBI=4.
 Internal  Forces:  Max     0.007420319 RMS     0.002457542
 Search for a local minimum.
 Step number   1 out of a maximum of   92
 All quantities printed in internal units (Hartrees-Bohrs-Radians)
 Mixed Optimization -- RFO/linear search
 Second derivative matrix not updated -- first step.
 ITU=  0
     Eigenvalues ---    0.00037   0.00137   0.00238   0.00274   0.01113
     Eigenvalues ---    0.02165   0.03220   0.04100   0.04329   0.04422
     Eigenvalues ---    0.04835   0.05212   0.05285   0.05537   0.05933
     Eigenvalues ---    0.06966   0.08028   0.08241   0.12105   0.12211
     Eigenvalues ---    0.12790   0.12848   0.13240   0.13415   0.14415
     Eigenvalues ---    0.18540   0.18881   0.18926   0.19570   0.21343
     Eigenvalues ---    0.21734   0.25189   0.26062   0.26157   0.28430
     Eigenvalues ---    0.31849   0.34176   0.34467   0.34944   0.35021
     Eigenvalues ---    0.35051   0.35152   0.35325   0.35411   0.35607
     Eigenvalues ---    0.36155   0.36231   0.37712   0.39447   0.40020
     Eigenvalues ---    0.50835   0.51281   0.94864   0.95537
 RFO step:  Lambda=-1.60395817D-03 EMin= 3.67305231D-04
 Linear search not attempted -- first point.
 Iteration  1 RMS(Cart)=  0.05809513 RMS(Int)=  0.00125842
 Iteration  2 RMS(Cart)=  0.00201304 RMS(Int)=  0.00001242
 Iteration  3 RMS(Cart)=  0.00000200 RMS(Int)=  0.00001238
 Iteration  4 RMS(Cart)=  0.00000000 RMS(Int)=  0.00001238
 Variable       Old X    -DE/DX   Delta X   Delta X   Delta X     New X
                                 (Linear)    (Quad)   (Total)
    R1        2.27008  -0.00742   0.00000  -0.00926  -0.00926   2.26082
...
   D31       -0.11221   0.00023   0.00000  -0.01996  -0.01998  -0.13219
         Item               Value     Threshold  Converged?
 Maximum Force            0.007420     0.000450     NO 
 RMS     Force            0.002458     0.000300     NO 
 Maximum Displacement     0.216294     0.001800     NO 
 RMS     Displacement     0.058525     0.001200     NO 
 Predicted change in Energy=-8.419300D-04
 GradGradGradGradGradGradGradGradGradGradGradGradGradGradGradGradGradGrad

                          Input orientation:                          
 ---------------------------------------------------------------------
 Center     Atomic      Atomic             Coordinates (Angstroms)
 Number     Number       Type             X           Y           Z
 ---------------------------------------------------------------------
      1          6           0       -1.268250    0.570471    0.588669
      2          8           0       -0.373989    0.854492    1.330927
      3          8           0       -1.973477    1.455053   -0.119248
      4          6           0       -1.796413   -0.837998    0.355532
      5          1           0       -1.913912   -0.977778   -0.720058
      6          6           0       -3.108235   -1.047435    1.087979
      7          1           0       -3.853038   -0.341871    0.723519
      8          1           0       -3.465240   -2.062043    0.918351
      9          1           0       -2.966327   -0.899575    2.158700
     10          8           0       -0.863272   -1.772795    0.867500
     11          6           0       -1.580079    2.817289    0.047304
     12          1           0       -0.540556    2.944294   -0.250769
     13          1           0       -2.237726    3.397937   -0.592217
     14          1           0       -1.690643    3.116946    1.088629
     15          6           0        0.314903   -1.833346    0.210293
     16          6           0        1.280086   -2.736361    0.914620
     17          1           0        1.550079   -2.276095    1.865629
     18          1           0        0.810639   -3.695486    1.128512
     19          1           0        2.165397   -2.868525    0.300902
     20          8           0        0.526053   -1.226173   -0.800774
 ---------------------------------------------------------------------
                    Distance matrix (angstroms):
                    1          2          3          4          5
     1  C    0.000000
     2  O    1.196376   0.000000
     3  O    1.334533   2.240992   0.000000
     4  C    1.522201   2.416445   2.348373   0.000000
     5  H    2.127610   3.152002   2.506629   1.090981   0.000000
     6  C    2.500496   3.339528   3.001253   1.516977   2.168008
     7  H    2.744391   3.728808   2.733485   2.147385   2.499701
     8  H    3.444647   4.269921   3.958780   2.144769   2.503324
     9  H    2.740347   3.237619   3.423314   2.150327   3.066096
    10  O    2.394295   2.712342   3.553200   1.416583   2.063065
    11  C    2.332060   2.637217   1.427651   3.674633   3.886235
    12  H    2.620921   2.626172   2.070845   4.031192   4.181984
    13  H    3.213867   3.693387   2.017009   4.363042   4.389543
    14  H    2.629241   2.628874   2.073849   4.023705   4.481960
    15  C    2.903081   2.992468   4.019808   2.338689   2.562258
    16  C    4.187529   3.975362   5.405785   3.658033   3.995799
    17  H    4.204348   3.713289   5.502422   3.943034   4.513384
    18  H    4.776149   4.706019   5.986340   3.944547   4.269230
    19  H    4.868206   4.622801   6.000011   4.452186   4.610645
    20  O    2.894478   3.111815   3.728419   2.623275   2.453904
                    6          7          8          9         10
     6  C    0.000000
     7  H    1.088753   0.000000
     8  H    1.088878   1.774075   0.000000
     9  H    1.090158   1.776805   1.771641   0.000000
    10  O    2.369518   3.317676   2.618490   2.617738   0.000000
    11  C    4.284198   3.950177   5.302871   4.493857   4.717563
    12  H    4.931442   4.766619   5.914730   5.144437   4.858559
    13  H    4.831375   4.280953   5.796550   5.154320   5.545842
    14  H    4.399049   4.095445   5.477236   4.347972   4.964172
    15  C    3.620202   4.456415   3.852678   3.928701   1.350438
    16  C    4.705304   5.667368   4.792999   4.790986   2.350460
    17  H    4.879983   5.851436   5.108481   4.730604   2.659668
    18  H    4.729840   5.758527   4.582078   4.810808   2.562586
    19  H    5.634452   6.540959   5.721515   5.801963   3.270244
    20  O    4.099681   4.720371   4.425437   4.589322   2.238785
                   11         12         13         14         15
    11  C    0.000000
    12  H    1.088847   0.000000
    13  H    1.085651   1.789627   0.000000
    14  H    1.089209   1.773837   1.789833   0.000000
    15  C    5.024533   4.875472   5.875905   5.412862   0.000000
    16  C    6.306807   6.078051   7.230157   6.566332   1.497695
    17  H    6.248740   6.008523   7.251421   6.339628   2.112303
    18  H    7.021451   6.914826   7.910126   7.257218   2.134583
    19  H    6.813324   6.435478   7.710622   7.163478   2.122294
    20  O    4.637307   4.339695   5.391138   5.229366   1.198124
                   16         17         18         19         20
    16  C    0.000000
    17  H    1.090486   0.000000
    18  H    1.089059   1.762040   0.000000
    19  H    1.085308   1.782684   1.790021   0.000000
    20  O    2.406618   3.043135   3.146528   2.568746   0.000000
 Symmetry turned off by external request.
 Stoichiometry    C6H10O4
 Framework group  C1[X(C6H10O4)]
 Deg. of freedom    54
 Full point group                 C1      NOp   1
 Rotational constants (GHZ):           2.2630385           0.8992679           0.7524938
 Standard basis: def2TZVP (5D, 7F)
   370 basis functions,   590 primitive gaussians,   420 cartesian basis functions
    39 alpha electrons       39 beta electrons
       nuclear repulsion energy       572.8751735556 Hartrees.
 NAtoms=   20 NActive=   20 NUniq=   20 SFac= 1.00D+00 NAtFMM=   60 NAOKFM=F Big=F
 Integral buffers will be    131072 words long.
 Raffenetti 2 integral format.
 Two-electron integral symmetry is turned off.
 One-electron integrals computed using PRISM.
   1 Symmetry operations used in ECPInt.
 ECPInt:  NShTT=   11325 NPrTT=   34180 LenC2=   10821 LenP2D=   25064.
 LDataN:  DoStor=T MaxTD1= 6 Len=  172
 NBasis=   370 RedAO= T EigKep=  1.44D-04  NBF=   370
 NBsUse=   370 1.00D-06 EigRej= -1.00D+00 NBFU=   370
 Initial guess from the checkpoint file:  "/oasis/scratch/comet/mayes/temp_project/lme2acetoxypropionate_46_t.chk"
 B after Tr=    -0.020537   -0.001917    0.013740
         Rot=    0.999994   -0.002601    0.002334   -0.000207 Ang=  -0.40 deg.
 ExpMin= 9.52D-02 ExpMax= 2.70D+04 ExpMxC= 9.22D+02 IAcc=3 IRadAn=         5 AccDes= 0.00D+00
 Harris functional with IExCor= 1009 and IRadAn=       5 diagonalized for initial guess.
 HarFok:  IExCor= 1009 AccDes= 0.00D+00 IRadAn=         5 IDoV= 1 UseB2=F ITyADJ=14
 ICtDFT=  3500011 ScaDFX=  1.000000  1.000000  1.000000  1.000000
 FoFCou: FMM=F IPFlag=           0 FMFlag=      100000 FMFlg1=           0
         NFxFlg=           0 DoJE=T BraDBF=F KetDBF=T FulRan=T
         wScrn=  0.000000 ICntrl=       500 IOpCl=  0 I1Cent=   200000004 NGrid=           0
         NMat0=    1 NMatS0=      1 NMatT0=    0 NMatD0=    1 NMtDS0=    0 NMtDT0=    0
 Symmetry not used in FoFCou.
 Requested convergence on RMS density matrix=1.00D-08 within  32 cycles.
 Requested convergence on MAX density matrix=1.00D-06.
 Requested convergence on             energy=1.00D-06.
 No special actions if energy rises.
 Integral accuracy reduced to 1.0D-05 until final iterations.
 Initial convergence to 1.0D-05 achieved.  Increase integral accuracy.
 SCF Done:  E(RM062X) =  -535.578410747     A.U. after   13 cycles
            NFock= 13  Conv=0.50D-08     -V/T= 2.0044
 QCSCF skips out because SCF is already converged.
   1 Symmetry operations used in ECPInt.
 ECPInt:  NShTT=   11325 NPrTT=   34180 LenC2=   10821 LenP2D=   25064.
 LDataN:  DoStor=T MaxTD1= 7 Len=  274
 Calling FoFJK, ICntrl=      2127 FMM=F ISym2X=0 I1Cent= 0 IOpClX= 0 NMat=1 NMatS=1 NMatT=0.
 -------------------------------------------------------------------
 Center     Atomic                   Forces (Hartrees/Bohr)
 Number     Number              X              Y              Z
 -------------------------------------------------------------------
      1        6           0.000007381   -0.000143033   -0.000040564
      2        8          -0.000059281    0.000023264    0.000151219
      3        8          -0.000043716    0.000003918   -0.000028866
      4        6          -0.000120779    0.000145524   -0.000240159
      5        1          -0.000107185    0.000001787    0.000198732
      6        6          -0.000081048   -0.000029003    0.000266731
      7        1           0.000070325   -0.000096463    0.000011788
      8        1           0.000053122    0.000147061   -0.000011778
      9        1          -0.000002697   -0.000006061   -0.000157669
     10        8           0.000042948   -0.000290275   -0.000110397
     11        6           0.000101511    0.000336406   -0.000004088
     12        1          -0.000140843   -0.000004579   -0.000032531
     13        1           0.000117996   -0.000100430    0.000108045
     14        1          -0.000036730   -0.000029172   -0.000156298
     15        6           0.000039304    0.000086292   -0.000107853
     16        6           0.000128141   -0.000112279    0.000084328
     17        1          -0.000013123   -0.000047074   -0.000124219
     18        1           0.000040699    0.000176002    0.000004108
     19        1          -0.000095508   -0.000036484    0.000056980
     20        8           0.000099482   -0.000025401    0.000132492
 -------------------------------------------------------------------
 Cartesian Forces:  Max     0.000336406 RMS     0.000114945

 GradGradGradGradGradGradGradGradGradGradGradGradGradGradGradGradGradGrad
 Berny optimization.
 Using GEDIIS/GDIIS optimizer.
 FormGI is forming the generalized inverse of G from B-inverse, IUseBI=4.
 Internal  Forces:  Max     0.000420827 RMS     0.000103346
 Search for a local minimum.
 Step number   2 out of a maximum of   92
 ... (edited for test) ...
 Step number   6 out of a maximum of   92
 All quantities printed in internal units (Hartrees-Bohrs-Radians)
 Mixed Optimization -- En-DIIS/RFO-DIIS
 Swapping is turned off.
 Update second derivatives using D2CorX and points    1    2    3    4    5
                                                      6
 DE= -2.93D-09 DEPred=-3.67D-09 R= 7.97D-01
 Trust test= 7.97D-01 RLast= 2.18D-03 DXMaxT set to 6.54D-01
 ITU=  0  0  1  1  1  0
     Eigenvalues ---    0.00056   0.00152   0.00270   0.00273   0.01107
     Eigenvalues ---    0.02125   0.03244   0.04096   0.04329   0.04445
     Eigenvalues ---    0.04839   0.05133   0.05282   0.05487   0.05926
     Eigenvalues ---    0.06919   0.08040   0.08243   0.12115   0.12203
     Eigenvalues ---    0.12802   0.12858   0.13207   0.13421   0.14294
     Eigenvalues ---    0.18196   0.18609   0.18919   0.18966   0.21409
     Eigenvalues ---    0.21532   0.25222   0.25993   0.26122   0.28478
     Eigenvalues ---    0.31833   0.34113   0.34230   0.34840   0.34995
     Eigenvalues ---    0.35023   0.35094   0.35277   0.35382   0.35572
     Eigenvalues ---    0.36105   0.36255   0.37574   0.39470   0.40142
     Eigenvalues ---    0.49936   0.51185   0.94840   0.95594
 En-DIIS/RFO-DIIS/Sim-DIIS IScMMF=       -3 using points:     6    5    4    3    2
 RFO step:  Lambda=-9.91760570D-11.
 DIIS inversion failure, remove point   5.
 RFO-DIIS uses    4 points instead of    5
 DidBck=T Rises=F RFO-DIIS coefs:    0.53546    0.40441    0.05494    0.00519    0.00000
 Iteration  1 RMS(Cart)=  0.00016049 RMS(Int)=  0.00000002
 Iteration  2 RMS(Cart)=  0.00000002 RMS(Int)=  0.00000000
 Variable       Old X    -DE/DX   Delta X   Delta X   Delta X     New X
                                 (Linear)    (Quad)   (Total)
    R1        2.26112  -0.00000  -0.00000   0.00000  -0.00000   2.26111
    R2        2.52150  -0.00000   0.00001  -0.00001   0.00000   2.52150
...
   D30       -2.33122  -0.00000  -0.00015  -0.00001  -0.00015  -2.33138
   D31       -0.19401  -0.00000  -0.00013  -0.00001  -0.00014  -0.19415
         Item               Value     Threshold  Converged?
 Maximum Force            0.000002     0.000450     YES
 RMS     Force            0.000001     0.000300     YES
 Maximum Displacement     0.000570     0.001800     YES
 RMS     Displacement     0.000160     0.001200     YES
 Predicted change in Energy=-3.411774D-10
 Optimization completed.
    -- Stationary point found.
                           ----------------------------
                           !   Optimized Parameters   !
                           ! (Angstroms and Degrees)  !
 --------------------------                            --------------------------
 ! Name  Definition              Value          Derivative Info.                !
 --------------------------------------------------------------------------------
 ! R1    R(1,2)                  1.1965         -DE/DX =    0.0                 !
 ! R2    R(1,3)                  1.3343         -DE/DX =    0.0                 !
 ! R3    R(1,4)                  1.5221         -DE/DX =    0.0                 !
 ! R4    R(3,11)                 1.4279         -DE/DX =    0.0                 !
 ! R5    R(4,5)                  1.0905         -DE/DX =    0.0                 !
 ! R6    R(4,6)                  1.517          -DE/DX =    0.0                 !
 ! R7    R(4,10)                 1.4175         -DE/DX =    0.0                 !
 ! R8    R(6,7)                  1.0888         -DE/DX =    0.0                 !
 ! R9    R(6,8)                  1.0887         -DE/DX =    0.0                 !
 ! R10   R(6,9)                  1.0899         -DE/DX =    0.0                 !
 ! R11   R(10,15)                1.3501         -DE/DX =    0.0                 !
 ! R12   R(11,12)                1.0886         -DE/DX =    0.0                 !
 ! R13   R(11,13)                1.0854         -DE/DX =    0.0                 !
 ! R14   R(11,14)                1.0889         -DE/DX =    0.0                 !
 ! R15   R(15,16)                1.4978         -DE/DX =    0.0                 !
 ! R16   R(15,20)                1.1982         -DE/DX =    0.0                 !
 ! R17   R(16,17)                1.0906         -DE/DX =    0.0                 !
 ! R18   R(16,18)                1.0884         -DE/DX =    0.0                 !
 ! R19   R(16,19)                1.0852         -DE/DX =    0.0                 !
 ! A1    A(2,1,3)              124.5573         -DE/DX =    0.0                 !
 ! A2    A(2,1,4)              124.9587         -DE/DX =    0.0                 !
 ! A3    A(3,1,4)              110.4377         -DE/DX =    0.0                 !
 ! A4    A(1,3,11)             115.1907         -DE/DX =    0.0                 !
 ! A5    A(1,4,5)              108.03           -DE/DX =    0.0                 !
 ! A6    A(1,4,6)              110.4895         -DE/DX =    0.0                 !
 ! A7    A(1,4,10)             109.2017         -DE/DX =    0.0                 !
 ! A8    A(5,4,6)              111.4702         -DE/DX =    0.0                 !
 ! A9    A(5,4,10)             110.0456         -DE/DX =    0.0                 !
 ! A10   A(6,4,10)             107.5899         -DE/DX =    0.0                 !
 ! A11   A(4,6,7)              109.907          -DE/DX =    0.0                 !
 ! A12   A(4,6,8)              109.7041         -DE/DX =    0.0                 !
 ! A13   A(4,6,9)              109.9927         -DE/DX =    0.0                 !
 ! A14   A(7,6,8)              109.068          -DE/DX =    0.0                 !
 ! A15   A(7,6,9)              109.2949         -DE/DX =    0.0                 !
 ! A16   A(8,6,9)              108.8509         -DE/DX =    0.0                 !
 ! A17   A(4,10,15)            115.3529         -DE/DX =    0.0                 !
 ! A18   A(3,11,12)            109.9938         -DE/DX =    0.0                 !
 ! A19   A(3,11,13)            105.9216         -DE/DX =    0.0                 !
 ! A20   A(3,11,14)            110.264          -DE/DX =    0.0                 !
 ! A21   A(12,11,13)           110.752          -DE/DX =    0.0                 !
 ! A22   A(12,11,14)           109.1196         -DE/DX =    0.0                 !
 ! A23   A(13,11,14)           110.7596         -DE/DX =    0.0                 !
 ! A24   A(10,15,16)           111.1824         -DE/DX =    0.0                 !
 ! A25   A(10,15,20)           122.7832         -DE/DX =    0.0                 !
 ! A26   A(16,15,20)           126.0325         -DE/DX =    0.0                 !
 ! A27   A(15,16,17)           108.1561         -DE/DX =    0.0                 !
 ! A28   A(15,16,18)           110.3963         -DE/DX =    0.0                 !
 ! A29   A(15,16,19)           109.4931         -DE/DX =    0.0                 !
 ! A30   A(17,16,18)           107.9233         -DE/DX =    0.0                 !
 ! A31   A(17,16,19)           109.8469         -DE/DX =    0.0                 !
 ! A32   A(18,16,19)           110.9679         -DE/DX =    0.0                 !
 ! D1    D(2,1,3,11)             1.0054         -DE/DX =    0.0                 !
 ! D2    D(4,1,3,11)           178.629          -DE/DX =    0.0                 !
 ! D3    D(2,1,4,5)           -137.8059         -DE/DX =    0.0                 !
 ! D4    D(2,1,4,6)            100.0165         -DE/DX =    0.0                 !
 ! D5    D(2,1,4,10)           -18.1319         -DE/DX =    0.0                 !
 ! D6    D(3,1,4,5)             44.582          -DE/DX =    0.0                 !
 ! D7    D(3,1,4,6)            -77.5956         -DE/DX =    0.0                 !
 ! D8    D(3,1,4,10)           164.2561         -DE/DX =    0.0                 !
 ! D9    D(1,3,11,12)           60.0291         -DE/DX =    0.0                 !
 ! D10   D(1,3,11,13)          179.7571         -DE/DX =    0.0                 !
 ! D11   D(1,3,11,14)          -60.3604         -DE/DX =    0.0                 !
 ! D12   D(1,4,6,7)             60.7854         -DE/DX =    0.0                 !
 ! D13   D(1,4,6,8)           -179.297          -DE/DX =    0.0                 !
 ! D14   D(1,4,6,9)            -59.5937         -DE/DX =    0.0                 !
 ! D15   D(5,4,6,7)            -59.3487         -DE/DX =    0.0                 !
 ! D16   D(5,4,6,8)             60.5688         -DE/DX =    0.0                 !
 ! D17   D(5,4,6,9)           -179.7279         -DE/DX =    0.0                 !
 ! D18   D(10,4,6,7)           179.9154         -DE/DX =    0.0                 !
 ! D19   D(10,4,6,8)           -60.167          -DE/DX =    0.0                 !
 ! D20   D(10,4,6,9)            59.5363         -DE/DX =    0.0                 !
 ! D21   D(1,4,10,15)          -66.0896         -DE/DX =    0.0                 !
 ! D22   D(5,4,10,15)           52.3321         -DE/DX =    0.0                 !
 ! D23   D(6,4,10,15)          173.9602         -DE/DX =    0.0                 !
 ! D24   D(4,10,15,16)         173.7475         -DE/DX =    0.0                 !
 ! D25   D(4,10,15,20)          -5.7759         -DE/DX =    0.0                 !
 ! D26   D(10,15,16,17)        -70.9436         -DE/DX =    0.0                 !
 ! D27   D(10,15,16,18)         46.9263         -DE/DX =    0.0                 !
 ! D28   D(10,15,16,19)        169.3797         -DE/DX =    0.0                 !
 ! D29   D(20,15,16,17)        108.5609         -DE/DX =    0.0                 !
 ! D30   D(20,15,16,18)       -133.5692         -DE/DX =    0.0                 !
 ! D31   D(20,15,16,19)        -11.1158         -DE/DX =    0.0                 !
 --------------------------------------------------------------------------------
 GradGradGradGradGradGradGradGradGradGradGradGradGradGradGradGradGradGrad

                          Input orientation:                          
 ---------------------------------------------------------------------
 Center     Atomic      Atomic             Coordinates (Angstroms)
 Number     Number       Type             X           Y           Z
 ---------------------------------------------------------------------
      1          6           0       -1.282081    0.564528    0.601850
      2          8           0       -0.421322    0.848218    1.383067
      3          8           0       -1.951917    1.448268   -0.140269
      4          6           0       -1.807851   -0.842624    0.356353
      5          1           0       -1.932816   -0.973420   -0.719078
      6          6           0       -3.113884   -1.058318    1.097408
      7          1           0       -3.862152   -0.351067    0.743429
      8          1           0       -3.471739   -2.071627    0.923207
      9          1           0       -2.962823   -0.917301    2.167487
     10          8           0       -0.872108   -1.783487    0.854739
     11          6           0       -1.559685    2.810076    0.034627
     12          1           0       -0.508957    2.930863   -0.223285
     13          1           0       -2.188790    3.389313   -0.633778
     14          1           0       -1.710594    3.116196    1.068702
     15          6           0        0.314436   -1.815122    0.211415
     16          6           0        1.280742   -2.727142    0.902712
     17          1           0        1.581819   -2.256370    1.839250
     18          1           0        0.802419   -3.674906    1.142838
     19          1           0        2.149866   -2.879836    0.271013
     20          8           0        0.533438   -1.175244   -0.777688
 ---------------------------------------------------------------------
                    Distance matrix (angstroms):
                    1          2          3          4          5
     1  C    0.000000
     2  O    1.196531   0.000000
     3  O    1.334322   2.241279   0.000000
     4  C    1.522097   2.415688   2.348526   0.000000
     5  H    2.129223   3.165753   2.489972   1.090540   0.000000
     6  C    2.496940   3.311551   3.027373   1.517039   2.168353
     7  H    2.741373   3.699558   2.769030   2.147466   2.499718
     8  H    3.441975   4.247589   3.978757   2.144830   2.504285
     9  H    2.733484   3.192429   3.455950   2.149359   3.065342
    10  O    2.396916   2.721802   3.549686   1.417472   2.063543
    11  C    2.332658   2.638759   1.427920   3.675230   3.875841
    12  H    2.622615   2.631626   2.070534   4.032656   4.185285
    13  H    3.213768   3.694424   2.016759   4.362885   4.371069
    14  H    2.629180   2.627693   2.074086   4.023575   4.468837
    15  C    2.892065   3.001247   3.988703   2.338987   2.573795
    16  C    4.182544   3.988854   5.382559   3.659142   4.004085
    17  H    4.206013   3.722787   5.489092   3.960748   4.532511
    18  H    4.755062   4.691897   5.956479   3.931143   4.271565
    19  H    4.873537   4.663267   5.977145   4.452083   4.613349
    20  O    2.868108   3.110438   3.669620   2.622655   2.475192
                    6          7          8          9         10
     6  C    0.000000
     7  H    1.088766   0.000000
     8  H    1.088670   1.773434   0.000000
     9  H    1.089850   1.776895   1.771919   0.000000
    10  O    2.368611   3.317316   2.616447   2.616234   0.000000
    11  C    4.302269   3.974492   5.317571   4.517879   4.716585
    12  H    4.944031   4.790565   5.925996   5.152244   4.849650
    13  H    4.861505   4.322879   5.821686   5.195492   5.541407
    14  H    4.404159   4.093522   5.480540   4.364002   4.975514
    15  C    3.620927   4.457621   3.861032   3.920807   1.350093
    16  C    4.704851   5.667492   4.797520   4.783621   2.351074
    17  H    4.902579   5.870931   5.139233   4.749170   2.686008
    18  H    4.710204   5.741573   4.570248   4.778215   2.542539
    19  H    5.630979   6.539283   5.716731   5.795494   3.267269
    20  O    4.102757   4.723799   4.442746   4.578694   2.238378
                   11         12         13         14         15
    11  C    0.000000
    12  H    1.088640   0.000000
    13  H    1.085382   1.789000   0.000000
    14  H    1.088942   1.774122   1.789331   0.000000
    15  C    4.993600   4.836457   5.836663   5.399406   0.000000
    16  C    6.283501   6.040191   7.197880   6.566600   1.497804
    17  H    6.228530   5.960938   7.225448   6.348086   2.109693
    18  H    6.990183   6.871840   7.874445   7.241533   2.136462
    19  H    6.796451   6.409204   7.677553   7.175783   2.122727
    20  O    4.574254   4.272478   5.316618   5.182789   1.198220
                   16         17         18         19         20
    16  C    0.000000
    17  H    1.090586   0.000000
    18  H    1.088445   1.762016   0.000000
    19  H    1.085235   1.780662   1.791042   0.000000
    20  O    2.406365   3.019321   3.163713   2.572595   0.000000
 Symmetry turned off by external request.
 Stoichiometry    C6H10O4
 Framework group  C1[X(C6H10O4)]
 Deg. of freedom    54
 Full point group                 C1      NOp   1
 Rotational constants (GHZ):           2.2404835           0.9071278           0.7565301

 **********************************************************************

            Population analysis using the SCF Density.

 **********************************************************************

 Alpha  occ. eigenvalues --  -19.67933 -19.67404 -19.62113 -19.61708 -10.67378
 Alpha  occ. eigenvalues --  -10.67375 -10.61590 -10.59413 -10.54499 -10.54497
...
 Alpha virt. eigenvalues --   23.40254  23.48076  44.03774  44.07891  44.26196
 Alpha virt. eigenvalues --   44.48532
          Condensed to atoms (all electrons):
               1          2          3          4          5          6
     1  C    4.663865   0.620588   0.341965   0.224555  -0.093381  -0.016108
     2  O    0.620588   7.818329  -0.082864  -0.057079   0.003677  -0.008489
...
    19  H    0.504905   0.005700
    20  O    0.005700   7.842672
 Mulliken charges:
               1
     1  C    0.357141
     2  O   -0.323776
     3  O   -0.274871
     4  C    0.016685
     5  H    0.167628
     6  C   -0.432785
     7  H    0.156621
     8  H    0.154024
     9  H    0.161654
    10  O   -0.264327
    11  C   -0.256443
    12  H    0.160332
    13  H    0.145783
    14  H    0.150646
    15  C    0.385659
    16  C   -0.452146
    17  H    0.170084
    18  H    0.155435
    19  H    0.156763
    20  O   -0.334107
 Sum of Mulliken charges =  -0.00000
 Mulliken charges with hydrogens summed into heavy atoms:
               1
     1  C    0.357141
     2  O   -0.323776
     3  O   -0.274871
     4  C    0.184312
     6  C    0.039514
    10  O   -0.264327
    11  C    0.200317
    15  C    0.385659
    16  C    0.030137
    20  O   -0.334107
 Electronic spatial extent (au):  <R**2>=           1940.0947
 Charge=              0.0000 electrons
 Dipole moment (field-independent basis, Debye):
    X=             -1.9253    Y=             -0.2731    Z=              0.4432  Tot=              1.9944
 Quadrupole moment (field-independent basis, Debye-Ang):
   XX=            -52.6809   YY=            -48.0918   ZZ=            -62.9724
   XY=             -3.3899   XZ=              0.5596   YZ=             -3.2209
 Traceless Quadrupole moment (field-independent basis, Debye-Ang):
   XX=              1.9007   YY=              6.4899   ZZ=             -8.3907
   XY=             -3.3899   XZ=              0.5596   YZ=             -3.2209
 Octapole moment (field-independent basis, Debye-Ang**2):
  XXX=            152.5239  YYY=             73.9972  ZZZ=            -86.4084  XYY=             49.4153
  XXY=             17.1942  XXZ=            -21.0771  XZZ=             53.4121  YZZ=             21.4359
  YYZ=            -27.1592  XYZ=             -4.8898
 Hexadecapole moment (field-independent basis, Debye-Ang**3):
 XXXX=           -997.7087 YYYY=          -1074.0515 ZZZZ=           -301.7816 XXXY=            136.8796
 XXXZ=             84.2480 YYYX=             76.7888 YYYZ=             67.5200 ZZZX=             97.5663
 ZZZY=             74.1592 XXYY=           -338.0871 XXZZ=           -213.9454 YYZZ=           -250.7822
 XXYZ=             23.6955 YYXZ=             40.7236 ZZXY=             39.3722
 N-N= 5.732141880322D+02 E-N=-2.401049714037D+03  KE= 5.332232134121D+02
 1\1\GINC-COMET-07-42\FOpt\RM062X\def2TZVP\C6H10O4\MAYES\03-Oct-2019\0\
 \# m062x/Def2TZVP nosymm scf=xqc opt=ReadFC freq=NoRaman CPHF=Grid=Fin
 e guess=read geom=allcheck\\obabel lme2acetoxypropionate_0.pdb -O lme2
 acetoxypropionate.pdb --confab --conf10000 --original\\0,1\C,-1.282081
 108,0.5645282809,0.6018495199\O,-0.4213222315,0.8482178766,1.383066563
 2\O,-1.9519168394,1.4482682783,-0.1402686758\C,-1.8078512276,-0.842623
 9994,0.3563534598\H,-1.9328155037,-0.9734202067,-0.7190780367\C,-3.113
 8841676,-1.0583178408,1.0974084718\H,-3.8621523652,-0.3510669309,0.743
 4292534\H,-3.4717393407,-2.0716271634,0.9232068412\H,-2.9628234368,-0.
 9173009896,2.1674871986\O,-0.8721077364,-1.7834868917,0.8547390793\C,-
 1.5596849879,2.8100764415,0.0346265616\H,-0.5089573556,2.9308630687,-0
 .2232848463\H,-2.1887902986,3.3893130003,-0.6337782695\H,-1.7105935468
 ,3.1161964481,1.0687022944\C,0.3144359181,-1.8151220402,0.2114154774\C
 ,1.2807421932,-2.7271415741,0.902711682\H,1.5818188487,-2.2563697191,1
 .8392504418\H,0.8024187299,-3.6749060102,1.1428380493\H,2.1498664539,-
 2.8798355718,0.2710129427\O,0.5334380019,-1.1752444566,-0.7776880081\\
 Version=ES64L-G16RevB.01\HF=-535.5784346\RMSD=9.744e-09\RMSF=6.939e-07
 \Dipole=-0.7574748,-0.1074455,0.1743521\Quadrupole=1.4131568,4.8251086
 ,-6.2382654,-2.520288,0.4160668,-2.3946575\PG=C01 [X(C6H10O4)]\\@


 WE TEND TO MEET ANY NEW SITUATION BY REORGANIZING. IT CAN BE A
 WONDERFUL METHOD FOR CREATING THE ILLUSION OF PROGRESS WHILE PRODUCING
 CONFUSION, INEFFICIENCY, AND DEMORALIZATION.
     -- PETRONIUS ARBITER, 210 B.C.
 Job cpu time:       0 days  1 hours 51 minutes 20.7 seconds.
 Elapsed time:       0 days  0 hours  4 minutes 40.6 seconds.
 File lengths (MBytes):  RWF=     88 Int=      0 D2E=      0 Chk=     17 Scr=      1
 Normal termination of Gaussian 16 at Thu Oct  3 09:32:17 2019.
 Link1:  Proceeding to internal job step number  2.
 --------------------------------------------------------------------
 #N Geom=AllCheck Guess=TCheck SCRF=Check GenChk RM062X/def2TZVP Freq
 --------------------------------------------------------------------
 1/10=4,29=7,30=1,38=1,40=1/1,3;
 2/12=2,15=1,40=1/2;
 3/5=44,7=101,11=2,14=-4,25=1,30=1,70=2,71=2,74=-55,116=1,140=1/1,2,3;
 4/5=101/1;
 5/5=2,8=3,13=1,38=6,98=1/2,8;
 8/6=4,10=90,11=11/1;
 11/6=1,8=1,9=11,15=111,16=1,31=1/1,2,10;
 10/6=1,31=1,60=4/2;
 6/7=2,8=2,9=2,10=2,28=1/1;
 7/8=1,10=1,25=1,30=1/1,2,3,16;
 1/10=4,30=1/3;
 99//99;
 Structure from the checkpoint file:  "/oasis/scratch/comet/mayes/temp_project/lme2acetoxypropionate_46_t.chk"
 ----------------------------------------------------------------------
 obabel lme2acetoxypropionate_0.pdb -O lme2acetoxypropionate.pdb --conf
 ab --conf10000 --original
 ----------------------------------------------------------------------
 Charge =  0 Multiplicity = 1
 Redundant internal coordinates found in file.  (old form).
 C,0,-1.282081108,0.5645282809,0.6018495199
 O,0,-0.4213222315,0.8482178766,1.3830665632
 O,0,-1.9519168394,1.4482682783,-0.1402686758
 C,0,-1.8078512276,-0.8426239994,0.3563534598
 H,0,-1.9328155037,-0.9734202067,-0.7190780367
 C,0,-3.1138841676,-1.0583178408,1.0974084718
 H,0,-3.8621523652,-0.3510669309,0.7434292534
 H,0,-3.4717393407,-2.0716271634,0.9232068412
 H,0,-2.9628234368,-0.9173009896,2.1674871986
 O,0,-0.8721077364,-1.7834868917,0.8547390793
 C,0,-1.5596849879,2.8100764415,0.0346265616
 H,0,-0.5089573556,2.9308630687,-0.2232848463
 H,0,-2.1887902986,3.3893130003,-0.6337782695
 H,0,-1.7105935468,3.1161964481,1.0687022944
 C,0,0.3144359181,-1.8151220402,0.2114154774
 C,0,1.2807421932,-2.7271415741,0.902711682
 H,0,1.5818188487,-2.2563697191,1.8392504418
 H,0,0.8024187299,-3.6749060102,1.1428380493
 H,0,2.1498664539,-2.8798355718,0.2710129427
 O,0,0.5334380019,-1.1752444566,-0.7776880081
 Recover connectivity data from disk.

 GradGradGradGradGradGradGradGradGradGradGradGradGradGradGradGradGradGrad
 Berny optimization.
 Initialization pass.
                           ----------------------------
                           !    Initial Parameters    !
                           ! (Angstroms and Degrees)  !
 --------------------------                            --------------------------
 ! Name  Definition              Value          Derivative Info.                !
 --------------------------------------------------------------------------------
 ! R1    R(1,2)                  1.1965         calculate D2E/DX2 analytically  !
 ! R2    R(1,3)                  1.3343         calculate D2E/DX2 analytically  !
 ! R3    R(1,4)                  1.5221         calculate D2E/DX2 analytically  !
 ! R4    R(3,11)                 1.4279         calculate D2E/DX2 analytically  !
 ! R5    R(4,5)                  1.0905         calculate D2E/DX2 analytically  !
 ! R6    R(4,6)                  1.517          calculate D2E/DX2 analytically  !
 ! R7    R(4,10)                 1.4175         calculate D2E/DX2 analytically  !
 ! R8    R(6,7)                  1.0888         calculate D2E/DX2 analytically  !
 ! R9    R(6,8)                  1.0887         calculate D2E/DX2 analytically  !
 ! R10   R(6,9)                  1.0899         calculate D2E/DX2 analytically  !
 ! R11   R(10,15)                1.3501         calculate D2E/DX2 analytically  !
 ! R12   R(11,12)                1.0886         calculate D2E/DX2 analytically  !
 ! R13   R(11,13)                1.0854         calculate D2E/DX2 analytically  !
 ! R14   R(11,14)                1.0889         calculate D2E/DX2 analytically  !
 ! R15   R(15,16)                1.4978         calculate D2E/DX2 analytically  !
 ! R16   R(15,20)                1.1982         calculate D2E/DX2 analytically  !
 ! R17   R(16,17)                1.0906         calculate D2E/DX2 analytically  !
 ! R18   R(16,18)                1.0884         calculate D2E/DX2 analytically  !
 ! R19   R(16,19)                1.0852         calculate D2E/DX2 analytically  !
 ! A1    A(2,1,3)              124.5573         calculate D2E/DX2 analytically  !
 ! A2    A(2,1,4)              124.9587         calculate D2E/DX2 analytically  !
 ! A3    A(3,1,4)              110.4377         calculate D2E/DX2 analytically  !
 ! A4    A(1,3,11)             115.1907         calculate D2E/DX2 analytically  !
 ! A5    A(1,4,5)              108.03           calculate D2E/DX2 analytically  !
 ! A6    A(1,4,6)              110.4895         calculate D2E/DX2 analytically  !
 ! A7    A(1,4,10)             109.2017         calculate D2E/DX2 analytically  !
 ! A8    A(5,4,6)              111.4702         calculate D2E/DX2 analytically  !
 ! A9    A(5,4,10)             110.0456         calculate D2E/DX2 analytically  !
 ! A10   A(6,4,10)             107.5899         calculate D2E/DX2 analytically  !
 ! A11   A(4,6,7)              109.907          calculate D2E/DX2 analytically  !
 ! A12   A(4,6,8)              109.7041         calculate D2E/DX2 analytically  !
 ! A13   A(4,6,9)              109.9927         calculate D2E/DX2 analytically  !
 ! A14   A(7,6,8)              109.068          calculate D2E/DX2 analytically  !
 ! A15   A(7,6,9)              109.2949         calculate D2E/DX2 analytically  !
 ! A16   A(8,6,9)              108.8509         calculate D2E/DX2 analytically  !
 ! A17   A(4,10,15)            115.3529         calculate D2E/DX2 analytically  !
 ! A18   A(3,11,12)            109.9938         calculate D2E/DX2 analytically  !
 ! A19   A(3,11,13)            105.9216         calculate D2E/DX2 analytically  !
 ! A20   A(3,11,14)            110.264          calculate D2E/DX2 analytically  !
 ! A21   A(12,11,13)           110.752          calculate D2E/DX2 analytically  !
 ! A22   A(12,11,14)           109.1196         calculate D2E/DX2 analytically  !
 ! A23   A(13,11,14)           110.7596         calculate D2E/DX2 analytically  !
 ! A24   A(10,15,16)           111.1824         calculate D2E/DX2 analytically  !
 ! A25   A(10,15,20)           122.7832         calculate D2E/DX2 analytically  !
 ! A26   A(16,15,20)           126.0325         calculate D2E/DX2 analytically  !
 ! A27   A(15,16,17)           108.1561         calculate D2E/DX2 analytically  !
 ! A28   A(15,16,18)           110.3963         calculate D2E/DX2 analytically  !
 ! A29   A(15,16,19)           109.4931         calculate D2E/DX2 analytically  !
 ! A30   A(17,16,18)           107.9233         calculate D2E/DX2 analytically  !
 ! A31   A(17,16,19)           109.8469         calculate D2E/DX2 analytically  !
 ! A32   A(18,16,19)           110.9679         calculate D2E/DX2 analytically  !
 ! D1    D(2,1,3,11)             1.0054         calculate D2E/DX2 analytically  !
 ! D2    D(4,1,3,11)           178.629          calculate D2E/DX2 analytically  !
 ! D3    D(2,1,4,5)           -137.8059         calculate D2E/DX2 analytically  !
 ! D4    D(2,1,4,6)            100.0165         calculate D2E/DX2 analytically  !
 ! D5    D(2,1,4,10)           -18.1319         calculate D2E/DX2 analytically  !
 ! D6    D(3,1,4,5)             44.582          calculate D2E/DX2 analytically  !
 ! D7    D(3,1,4,6)            -77.5956         calculate D2E/DX2 analytically  !
 ! D8    D(3,1,4,10)           164.2561         calculate D2E/DX2 analytically  !
 ! D9    D(1,3,11,12)           60.0291         calculate D2E/DX2 analytically  !
 ! D10   D(1,3,11,13)          179.7571         calculate D2E/DX2 analytically  !
 ! D11   D(1,3,11,14)          -60.3604         calculate D2E/DX2 analytically  !
 ! D12   D(1,4,6,7)             60.7854         calculate D2E/DX2 analytically  !
 ! D13   D(1,4,6,8)           -179.297          calculate D2E/DX2 analytically  !
 ! D14   D(1,4,6,9)            -59.5937         calculate D2E/DX2 analytically  !
 ! D15   D(5,4,6,7)            -59.3487         calculate D2E/DX2 analytically  !
 ! D16   D(5,4,6,8)             60.5688         calculate D2E/DX2 analytically  !
 ! D17   D(5,4,6,9)           -179.7279         calculate D2E/DX2 analytically  !
 ! D18   D(10,4,6,7)           179.9154         calculate D2E/DX2 analytically  !
 ! D19   D(10,4,6,8)           -60.167          calculate D2E/DX2 analytically  !
 ! D20   D(10,4,6,9)            59.5363         calculate D2E/DX2 analytically  !
 ! D21   D(1,4,10,15)          -66.0896         calculate D2E/DX2 analytically  !
 ! D22   D(5,4,10,15)           52.3321         calculate D2E/DX2 analytically  !
 ! D23   D(6,4,10,15)          173.9602         calculate D2E/DX2 analytically  !
 ! D24   D(4,10,15,16)         173.7475         calculate D2E/DX2 analytically  !
 ! D25   D(4,10,15,20)          -5.7759         calculate D2E/DX2 analytically  !
 ! D26   D(10,15,16,17)        -70.9436         calculate D2E/DX2 analytically  !
 ! D27   D(10,15,16,18)         46.9263         calculate D2E/DX2 analytically  !
 ! D28   D(10,15,16,19)        169.3797         calculate D2E/DX2 analytically  !
 ! D29   D(20,15,16,17)        108.5609         calculate D2E/DX2 analytically  !
 ! D30   D(20,15,16,18)       -133.5692         calculate D2E/DX2 analytically  !
 ! D31   D(20,15,16,19)        -11.1158         calculate D2E/DX2 analytically  !
 --------------------------------------------------------------------------------
 Trust Radius=3.00D-01 FncErr=1.00D-07 GrdErr=1.00D-07 EigMax=2.50D+02 EigMin=1.00D-04
 Number of steps in this run=      2 maximum allowed number of steps=      2.
 GradGradGradGradGradGradGradGradGradGradGradGradGradGradGradGradGradGrad

                          Input orientation:                          
 ---------------------------------------------------------------------
 Center     Atomic      Atomic             Coordinates (Angstroms)
 Number     Number       Type             X           Y           Z
 ---------------------------------------------------------------------
      1          6           0       -1.282081    0.564528    0.601850
      2          8           0       -0.421322    0.848218    1.383067
      3          8           0       -1.951917    1.448268   -0.140269
      4          6           0       -1.807851   -0.842624    0.356353
      5          1           0       -1.932816   -0.973420   -0.719078
      6          6           0       -3.113884   -1.058318    1.097408
      7          1           0       -3.862152   -0.351067    0.743429
      8          1           0       -3.471739   -2.071627    0.923207
      9          1           0       -2.962823   -0.917301    2.167487
     10          8           0       -0.872108   -1.783487    0.854739
     11          6           0       -1.559685    2.810076    0.034627
     12          1           0       -0.508957    2.930863   -0.223285
     13          1           0       -2.188790    3.389313   -0.633778
     14          1           0       -1.710594    3.116196    1.068702
     15          6           0        0.314436   -1.815122    0.211415
     16          6           0        1.280742   -2.727142    0.902712
     17          1           0        1.581819   -2.256370    1.839250
     18          1           0        0.802419   -3.674906    1.142838
     19          1           0        2.149866   -2.879836    0.271013
     20          8           0        0.533438   -1.175244   -0.777688
 ---------------------------------------------------------------------
                    Distance matrix (angstroms):
                    1          2          3          4          5
     1  C    0.000000
     2  O    1.196531   0.000000
     3  O    1.334322   2.241279   0.000000
     4  C    1.522097   2.415688   2.348526   0.000000
     5  H    2.129223   3.165753   2.489972   1.090540   0.000000
     6  C    2.496940   3.311551   3.027373   1.517039   2.168353
     7  H    2.741373   3.699558   2.769030   2.147466   2.499718
     8  H    3.441975   4.247589   3.978757   2.144830   2.504285
     9  H    2.733484   3.192429   3.455950   2.149359   3.065342
    10  O    2.396916   2.721802   3.549686   1.417472   2.063543
    11  C    2.332658   2.638759   1.427920   3.675230   3.875841
    12  H    2.622615   2.631626   2.070534   4.032656   4.185285
    13  H    3.213768   3.694424   2.016759   4.362885   4.371069
    14  H    2.629180   2.627693   2.074086   4.023575   4.468837
    15  C    2.892065   3.001247   3.988703   2.338987   2.573795
    16  C    4.182544   3.988854   5.382559   3.659142   4.004085
    17  H    4.206013   3.722787   5.489092   3.960748   4.532511
    18  H    4.755062   4.691897   5.956479   3.931143   4.271565
    19  H    4.873537   4.663267   5.977145   4.452083   4.613349
    20  O    2.868108   3.110438   3.669620   2.622655   2.475192
                    6          7          8          9         10
     6  C    0.000000
     7  H    1.088766   0.000000
     8  H    1.088670   1.773434   0.000000
     9  H    1.089850   1.776895   1.771919   0.000000
    10  O    2.368611   3.317316   2.616447   2.616234   0.000000
    11  C    4.302269   3.974492   5.317571   4.517879   4.716585
    12  H    4.944031   4.790565   5.925996   5.152244   4.849650
    13  H    4.861505   4.322879   5.821686   5.195492   5.541407
    14  H    4.404159   4.093522   5.480540   4.364002   4.975514
    15  C    3.620927   4.457621   3.861032   3.920807   1.350093
    16  C    4.704851   5.667492   4.797520   4.783621   2.351074
    17  H    4.902579   5.870931   5.139233   4.749170   2.686008
    18  H    4.710204   5.741573   4.570248   4.778215   2.542539
    19  H    5.630979   6.539283   5.716731   5.795494   3.267269
    20  O    4.102757   4.723799   4.442746   4.578694   2.238378
                   11         12         13         14         15
    11  C    0.000000
    12  H    1.088640   0.000000
    13  H    1.085382   1.789000   0.000000
    14  H    1.088942   1.774122   1.789331   0.000000
    15  C    4.993600   4.836457   5.836663   5.399406   0.000000
    16  C    6.283501   6.040191   7.197880   6.566600   1.497804
    17  H    6.228530   5.960938   7.225448   6.348086   2.109693
    18  H    6.990183   6.871840   7.874445   7.241533   2.136462
    19  H    6.796451   6.409204   7.677553   7.175783   2.122727
    20  O    4.574254   4.272478   5.316618   5.182789   1.198220
                   16         17         18         19         20
    16  C    0.000000
    17  H    1.090586   0.000000
    18  H    1.088445   1.762016   0.000000
    19  H    1.085235   1.780662   1.791042   0.000000
    20  O    2.406365   3.019321   3.163713   2.572595   0.000000
 Symmetry turned off by external request.
 Stoichiometry    C6H10O4
 Framework group  C1[X(C6H10O4)]
 Deg. of freedom    54
 Full point group                 C1      NOp   1
 Rotational constants (GHZ):           2.2404835           0.9071278           0.7565301
 Standard basis: def2TZVP (5D, 7F)
   370 basis functions,   590 primitive gaussians,   420 cartesian basis functions
    39 alpha electrons       39 beta electrons
       nuclear repulsion energy       573.2141880322 Hartrees.
 NAtoms=   20 NActive=   20 NUniq=   20 SFac= 1.00D+00 NAtFMM=   60 NAOKFM=F Big=F
 Integral buffers will be    131072 words long.
 Raffenetti 2 integral format.
 Two-electron integral symmetry is turned off.
 One-electron integrals computed using PRISM.
   1 Symmetry operations used in ECPInt.
 ECPInt:  NShTT=   11325 NPrTT=   34180 LenC2=   10825 LenP2D=   25078.
 LDataN:  DoStor=T MaxTD1= 6 Len=  172
 NBasis=   370 RedAO= T EigKep=  1.44D-04  NBF=   370
 NBsUse=   370 1.00D-06 EigRej= -1.00D+00 NBFU=   370
 Initial guess from the checkpoint file:  "/oasis/scratch/comet/mayes/temp_project/lme2acetoxypropionate_46_t.chk"
 B after Tr=     0.000000    0.000000    0.000000
         Rot=    1.000000    0.000000    0.000000    0.000000 Ang=   0.00 deg.
 Requested convergence on RMS density matrix=1.00D-08 within  32 cycles.
 Requested convergence on MAX density matrix=1.00D-06.
 Requested convergence on             energy=1.00D-06.
 No special actions if energy rises.
 SCF Done:  E(RM062X) =  -535.578434576     A.U. after    1 cycles
            NFock=  1  Conv=0.61D-08     -V/T= 2.0044
 QCSCF skips out because SCF is already converged.
 DoSCS=F DFT=T ScalE2(SS,OS)=  1.000000  1.000000
 Range of M.O.s used for correlation:     1   370
 NBasis=   370 NAE=    39 NBE=    39 NFC=     0 NFV=     0
 NROrb=    370 NOA=    39 NOB=    39 NVA=   331 NVB=   331

 **** Warning!!: The largest alpha MO coefficient is  0.17895370D+02

   1 Symmetry operations used in ECPInt.
 ECPInt:  NShTT=   11325 NPrTT=   34180 LenC2=   10825 LenP2D=   25078.
 LDataN:  DoStor=T MaxTD1= 7 Len=  274
 Symmetrizing basis deriv contribution to polar:
 IMax=3 JMax=2 DiffMx= 0.00D+00
 G2DrvN: will do    21 centers at a time, making    1 passes.
 Calling FoFCou, ICntrl=  3107 FMM=F I1Cent=   0 AccDes= 0.00D+00.
 End of G2Drv F.D. properties file   721 does not exist.
 End of G2Drv F.D. properties file   722 does not exist.
 End of G2Drv F.D. properties file   788 does not exist.
          IDoAtm=11111111111111111111
          Differentiating once with respect to electric field.
                with respect to dipole field.
          Differentiating once with respect to nuclear coordinates.
 Keep R1 ints in memory in canonical form, NReq=2392738056.
          There are    63 degrees of freedom in the 1st order CPHF.  IDoFFX=6 NUNeed=     3.
     60 vectors produced by pass  0 Test12= 2.05D-14 1.59D-09 XBig12= 3.50D+01 1.20D+00.
 AX will form    60 AO Fock derivatives at one time.
     60 vectors produced by pass  1 Test12= 2.05D-14 1.59D-09 XBig12= 5.06D+00 6.59D-01.
     60 vectors produced by pass  2 Test12= 2.05D-14 1.59D-09 XBig12= 9.15D-02 3.52D-02.
     60 vectors produced by pass  3 Test12= 2.05D-14 1.59D-09 XBig12= 1.12D-03 3.10D-03.
     60 vectors produced by pass  4 Test12= 2.05D-14 1.59D-09 XBig12= 9.59D-06 2.37D-04.
     60 vectors produced by pass  5 Test12= 2.05D-14 1.59D-09 XBig12= 5.32D-08 1.90D-05.
     36 vectors produced by pass  6 Test12= 2.05D-14 1.59D-09 XBig12= 2.27D-10 1.34D-06.
      7 vectors produced by pass  7 Test12= 2.05D-14 1.59D-09 XBig12= 8.03D-13 6.91D-08.
      3 vectors produced by pass  8 Test12= 2.05D-14 1.59D-09 XBig12= 2.76D-15 5.10D-09.
 InvSVY:  IOpt=1 It=  1 EMax= 4.44D-15
 Solved reduced A of dimension   406 with    63 vectors.
 Isotropic polarizability for W=    0.000000       81.96 Bohr**3.
 End of Minotr F.D. properties file   721 does not exist.
 End of Minotr F.D. properties file   722 does not exist.
 End of Minotr F.D. properties file   788 does not exist.

 **********************************************************************

            Population analysis using the SCF Density.

 **********************************************************************

 Alpha  occ. eigenvalues --  -19.67933 -19.67404 -19.62113 -19.61708 -10.67378
 Alpha  occ. eigenvalues --  -10.67375 -10.61590 -10.59413 -10.54499 -10.54497
 Alpha  occ. eigenvalues --   -1.25366  -1.23778  -1.15371  -1.14622  -0.91290
 Alpha  occ. eigenvalues --   -0.84886  -0.82697  -0.74684  -0.69261  -0.64442
 Alpha  occ. eigenvalues --   -0.62079  -0.58596  -0.57878  -0.56849  -0.55587
 Alpha  occ. eigenvalues --   -0.54033  -0.51489  -0.49246  -0.48723  -0.47300
 Alpha  occ. eigenvalues --   -0.46360  -0.45590  -0.45305  -0.43426  -0.42452
 Alpha  occ. eigenvalues --   -0.39559  -0.38315  -0.36001  -0.35474
 Alpha virt. eigenvalues --    0.04364   0.05260   0.07017   0.08653   0.09653
 Alpha virt. eigenvalues --    0.11346   0.12071   0.13302   0.14174   0.14868
 Alpha virt. eigenvalues --    0.15315   0.15438   0.16064   0.16790   0.17798
 Alpha virt. eigenvalues --    0.18959   0.21669   0.21916   0.22537   0.23507
 Alpha virt. eigenvalues --    0.24983   0.26069   0.26651   0.27396   0.29234
 Alpha virt. eigenvalues --    0.30775   0.33236   0.34012   0.34457   0.36114
 Alpha virt. eigenvalues --    0.36672   0.37444   0.39260   0.39796   0.41217
 Alpha virt. eigenvalues --    0.42275   0.42842   0.43709   0.44410   0.45203
 Alpha virt. eigenvalues --    0.45379   0.46269   0.47458   0.48060   0.48809
 Alpha virt. eigenvalues --    0.49576   0.50137   0.50572   0.51386   0.52396
 Alpha virt. eigenvalues --    0.53279   0.54959   0.56784   0.57159   0.59915
 Alpha virt. eigenvalues --    0.60449   0.61929   0.63252   0.64184   0.65779
 Alpha virt. eigenvalues --    0.67662   0.68056   0.70701   0.71187   0.72696
 Alpha virt. eigenvalues --    0.76405   0.78929   0.80799   0.82070   0.83744
 Alpha virt. eigenvalues --    0.85843   0.86681   0.88181   0.89268   0.90428
 Alpha virt. eigenvalues --    0.91167   0.92467   0.94065   0.94972   0.97177
 Alpha virt. eigenvalues --    0.99530   1.00486   1.03154   1.05195   1.05793
 Alpha virt. eigenvalues --    1.07021   1.09464   1.10065   1.11096   1.13614
 Alpha virt. eigenvalues --    1.13778   1.17806   1.19193   1.21836   1.22370
 Alpha virt. eigenvalues --    1.25135   1.28839   1.35389   1.37876   1.40783
 Alpha virt. eigenvalues --    1.43937   1.47619   1.48956   1.50185   1.51563
 Alpha virt. eigenvalues --    1.52605   1.54563   1.55281   1.56205   1.56934
 Alpha virt. eigenvalues --    1.57391   1.58585   1.58831   1.59866   1.61188
 Alpha virt. eigenvalues --    1.62244   1.63147   1.63437   1.64670   1.65608
 Alpha virt. eigenvalues --    1.67680   1.70178   1.72813   1.75869   1.77083
 Alpha virt. eigenvalues --    1.78292   1.79239   1.82802   1.85807   1.86375
 Alpha virt. eigenvalues --    1.88899   1.90511   1.94410   1.95076   1.96064
 Alpha virt. eigenvalues --    1.98469   2.01638   2.04162   2.05009   2.06345
[...]
 00105730,-0.00127419,0.00006484,-0.01397026,-0.03022203,-0.00365102,0.
 00142527,0.00075568,-0.00039678,-0.07370167,-0.08137994,-0.01563106,0.
 00887217,0.02102911,0.00499635,0.08036474,0.00047646,0.00092465,0.0010
 5535,-0.00020279,0.00002172,-0.00008803,-0.00042465,-0.00024874,-0.000
 02283,-0.00034129,-0.00458800,-0.00047463,-0.00015169,0.00034427,0.000
 35012,-0.08412970,-0.28765270,-0.04317655,-0.00719871,-0.01688416,-0.0
 0386096,0.09197061,0.30890935,0.00242665,-0.00236594,-0.00238776,0.000
 62538,0.00127906,0.00160386,-0.00010889,0.00088306,0.00000406,0.007054
 46,0.01879133,0.00174836,-0.00096790,0.00037153,0.00060751,-0.01558509
 ,-0.04494668,-0.05544312,0.00455950,0.00989971,0.00083279,0.01337593,0
 .04655401,0.05636609,0.00252201,0.00143050,0.00160934,-0.00028574,0.00
 014148,-0.00099134,-0.00015129,-0.00003770,-0.00026969,0.00264446,0.00
 352328,0.03230875,-0.00501946,-0.00087714,0.00204988,-0.05362525,-0.00
 562702,-0.04269389,-0.00262886,-0.00510345,-0.02137245,-0.00228887,-0.
 00016411,-0.00984420,0.05668537,0.00068125,0.00053134,0.00191022,0.000
 16642,0.00003528,-0.00050604,-0.00007167,-0.00029508,-0.00028844,0.001
 33021,-0.00058666,0.00625359,-0.00118304,0.00079463,0.00041513,-0.0059
 8545,-0.05372192,-0.03600484,0.00133701,0.00340677,0.02122345,-0.00372
 293,-0.00236654,-0.03003207,0.00763804,0.05233981,-0.00116774,-0.00149
 780,-0.00099305,0.00073025,0.00065231,0.00089207,0.00016806,0.00053219
 ,0.00010804,-0.00167817,-0.00079740,-0.01789733,0.00275759,0.00076314,
 0.00040637,-0.03910916,-0.03569186,-0.30909336,-0.00068252,-0.00157028
 ,-0.00761571,-0.00054063,-0.00004074,-0.00334987,0.03980512,0.03765532
 ,0.33594626,-0.01084053,-0.00165556,-0.00275714,0.00794035,0.00022717,
 0.00306508,0.00233824,0.00632965,0.00014146,-0.12187348,0.06283572,-0.
 03725661,-0.01352631,0.01403019,-0.00996794,-0.04002281,0.03594902,-0.
 01636581,-0.00783193,-0.00150428,0.00531947,0.00360234,0.00014114,-0.0
 0153407,0.00341907,-0.00018085,-0.00089891,0.46936229,0.03162354,-0.03
 385501,0.01714321,0.00050977,0.00100803,0.00286375,-0.00253496,-0.0141
 2349,-0.00079027,0.04500281,-0.13797178,0.05022746,0.00410436,-0.00336
 144,0.00767246,0.00573665,-0.00071435,0.00025919,-0.00006924,0.0009668
 0,0.00018185,0.00003634,0.00117860,-0.00034820,-0.00095113,0.00000619,
 0.00012994,-0.12629045,0.26093761,0.00048137,0.00405307,-0.00275896,0.
 00184405,-0.00412271,0.00247123,0.00065681,-0.00145724,0.00222528,-0.0
 2445303,0.04708188,-0.11652353,-0.02521806,0.02911268,-0.00926088,0.01
 311146,-0.01309120,0.00874962,0.00432059,0.00043935,-0.00129343,-0.000
 67803,-0.00019305,0.00021035,-0.00099897,-0.00072461,0.00162356,-0.081
 29935,-0.11605682,0.27384591,0.01265203,0.01856664,0.00691342,-0.00598
 184,0.00312464,-0.00013687,-0.09379227,-0.05540460,-0.01727429,0.00103
 955,0.00109493,-0.00431262,-0.00038849,-0.00009877,-0.00028288,0.00010
 382,0.00064595,0.00033151,0.00012244,-0.00012246,-0.00003885,0.0002326
 8,0.00005979,-0.00007207,-0.00001609,-0.00008353,0.00006012,-0.0011681
 9,0.00164645,0.00015027,0.60274320,0.01380771,-0.06146603,0.02148229,-
 0.01314352,0.00176148,-0.01365653,-0.03381829,-0.19939170,-0.01343575,
 0.00251806,0.00094545,0.00233896,-0.00013051,0.00018867,-0.00062086,-0
 .00019401,0.00026933,0.00021862,-0.00069749,-0.00012307,0.00016213,0.0
 0000259,0.00030239,-0.00026402,-0.00001722,0.00002809,-0.00013923,-0.0
 0212728,0.00162358,0.00006873,-0.04811499,0.48728156,0.00785601,0.0265
 8591,0.00551428,0.00206004,0.00164053,-0.00462158,-0.01970118,-0.03200
 750,-0.08135845,-0.00498771,0.00068884,0.00079905,0.00045200,0.0002622
 7,0.00054186,-0.00019036,-0.00066384,-0.00009975,0.00002554,0.00008902
 ,0.00002596,-0.00011592,-0.00003669,-0.00001550,0.00005084,0.00010382,
 -0.00012230,-0.00037352,0.00159663,0.00047996,0.01226581,-0.02931887,0
 .61154183,-0.00129881,0.00225880,-0.00261540,0.00107545,0.00080339,0.0
 0069174,-0.00439437,-0.01118748,-0.00013312,-0.00025405,0.00010304,0.0
 0034517,0.00002764,0.00008065,0.00005147,-0.00005291,-0.00002718,-0.00
 003348,0.00007179,0.00001208,-0.00000787,0.00000582,-0.00002680,0.0000
 3044,-0.00000078,-0.00001026,-0.00000082,0.00024065,-0.00016346,-0.000
 05150,-0.30619302,-0.02213707,0.06586282,0.32805867,-0.00701317,0.0029
 7723,-0.00459130,0.00237964,0.00049262,0.00230139,-0.03778040,-0.02253
 717,0.01004052,0.00055156,0.00012696,-0.00071506,-0.00010695,-0.000007
 49,0.00000604,0.00008002,0.00005886,0.00000562,0.00016882,-0.00001066,
 -0.00003943,0.00002748,-0.00004484,0.00004257,-0.00001307,-0.00002964,
 0.00005708,0.00055013,-0.00040235,-0.00014687,-0.01198560,-0.04994271,
 0.00368707,0.03003349,0.06308071,0.00216308,0.00080553,0.00180912,-0.0
 0074090,-0.00134293,-0.00046062,-0.00718868,-0.00122050,0.00226378,-0.
 00006297,0.00007074,-0.00010564,-0.00004451,-0.00004851,-0.00002344,-0
 .00000633,-0.00003658,-0.00004521,0.00000855,-0.00000585,-0.00002395,-
 0.00002211,-0.00000578,0.00002537,0.00002496,-0.00000795,0.00001173,0.
 00007761,-0.00003512,-0.00008104,0.06560384,0.00628351,-0.06837780,-0.
 06983475,-0.00439460,0.06484357,-0.00196558,-0.00269842,-0.00159988,0.
 00116621,0.00156634,0.00028221,0.00788375,-0.01070367,0.00868934,0.000
 41621,-0.00014473,0.00019877,0.00000920,0.00001968,-0.00000746,0.00003
 159,0.00003335,0.00001824,-0.00001872,-0.00001550,0.00000826,-0.000001
 67,0.00001044,-0.00000483,-0.00001567,-0.00000268,0.00000527,0.0000754
 0,-0.00021154,0.00000919,-0.15219409,0.09127191,-0.10500645,-0.0140750
 5,0.01534299,-0.01999440,0.15459136,-0.00571612,-0.00396652,-0.0046516
 3,0.00094090,0.00196298,0.00070803,0.01966342,-0.03456179,0.02325295,0
 .00091724,0.00001244,0.00094033,0.00001910,-0.00003180,-0.00000481,0.0
 0007955,-0.00012110,-0.00006963,-0.00000862,-0.00000423,0.00001468,-0.
 00007510,-0.00002951,0.00003934,-0.00001688,0.00000526,0.00001003,0.00
 042678,-0.00089707,-0.00012479,0.08094493,-0.11663618,0.08445792,-0.00
 077410,0.00346045,-0.00262843,-0.09036447,0.14394985,-0.00118811,-0.00
 189587,-0.00071917,0.00038939,0.00129403,0.00083620,0.00441516,-0.0051
 5551,0.00502321,0.00004550,-0.00014192,0.00027579,0.00001134,0.0000325
 6,-0.00000393,-0.00003300,0.00002326,-0.00002637,-0.00001068,0.0000124
 8,0.00000814,0.00000945,0.00000132,0.00000339,-0.00000584,-0.00001194,
 0.00000509,0.00001511,-0.00000669,0.00002770,-0.10358330,0.09412132,-0
 .16318121,0.00541854,-0.00589030,0.00653084,0.11287922,-0.09795389,0.1
 6634116,0.00114526,0.00140102,0.00084822,-0.00030810,-0.00121692,-0.00
 012048,0.00174238,-0.00716531,-0.01194842,-0.00016808,-0.00000683,-0.0
 0007051,-0.00000210,-0.00002289,0.00004471,0.00007529,-0.00002656,-0.0
 0001276,-0.00002952,-0.00000480,-0.00004682,-0.00004876,0.00001243,0.0
 0001866,0.00001912,-0.00001793,0.00002217,0.00010115,-0.00008368,-0.00
 003287,-0.05805545,0.01172709,0.04147863,-0.00307169,0.00807790,0.0301
 2941,0.00412967,-0.00568164,-0.01839036,0.05459505,-0.00535729,0.00313
 593,-0.00762942,0.00267806,0.00081437,0.00242185,0.00334144,-0.0290272
 9,-0.03293189,-0.00083359,-0.00004210,0.00067769,0.00014785,0.00017407
 ,0.00022878,0.00006952,-0.00023298,-0.00010992,0.00002886,0.00000701,-
 0.00006893,-0.00010068,-0.00002436,0.00008071,0.00000104,-0.00004563,0
 .00006289,0.00030625,-0.00028146,0.00017257,0.01002818,-0.06451060,-0.
 05711385,0.00102473,0.00262802,0.00246868,-0.00410066,0.00678300,0.015
 59398,-0.00708474,0.08058511,-0.00188542,0.00194367,-0.00063264,0.0006
 2273,0.00087281,0.00074123,-0.00283552,-0.00722280,0.00313348,0.000447
 60,-0.00006385,-0.00046640,-0.00001917,-0.00001957,0.00003717,0.000029
 80,0.00009823,0.00002620,0.00002839,-0.00001896,-0.00002748,0.00002605
 ,0.00000288,-0.00000652,0.00000093,-0.00001067,0.00002277,0.00003697,-
 0.00013367,0.00008021,0.04087101,-0.06684140,-0.30092907,0.00021884,-0
 .00055416,-0.00637546,0.00446011,-0.00414120,-0.01511401,-0.04197581,0
 .07607719,0.31950796,0.00968420,0.01009837,0.00030359,-0.00580127,-0.0
 0617057,0.00004487,-0.00105803,-0.01004834,0.00128585,-0.06298893,0.02
 833775,-0.00063477,0.00427095,-0.00345503,0.00355889,0.00058490,0.0000
 5883,0.00023239,0.00113130,-0.00053887,0.00019058,-0.00085831,-0.00002
 734,-0.00004135,-0.00067905,0.00037570,0.00034918,-0.21729216,0.031125
 79,0.05646978,0.00141471,0.00218066,0.00046509,-0.00022276,-0.00056147
 ,-0.00014332,-0.00005335,-0.00056645,0.00005434,-0.00019502,-0.0003121
 5,-0.00005371,0.55241716,0.01181738,-0.00454938,0.00099914,-0.00422877
 ,0.00046319,0.00074686,-0.00157577,0.00103417,-0.00145541,0.02528123,0
 .00109836,-0.01637061,0.00216617,0.00007285,0.00090349,0.00304224,-0.0
 0413569,0.00291684,0.00136474,0.00058132,-0.00065449,-0.00041394,0.000
 10367,0.00015724,-0.00053873,0.00002230,0.00023522,0.02832107,-0.09746
 287,0.02108289,0.00021099,-0.00094651,-0.00007179,-0.00001982,-0.00011
 038,0.00003287,-0.00009443,0.00002475,-0.00006492,0.00004027,0.0000328
 4,0.00009986,-0.07667169,0.54492696,-0.00841019,-0.00502732,0.00333679
 ,0.00400845,0.00325061,-0.00216141,0.00027481,0.00697087,-0.00217771,0
 .00506159,-0.01527301,0.02058495,-0.00657334,0.00289638,-0.00256361,-0
 .00483070,0.00543106,-0.00429796,-0.00231327,0.00017371,0.00140655,0.0
 0105345,-0.00002572,-0.00008210,0.00106526,-0.00021217,-0.00040421,0.0
 5378081,0.01860386,-0.12446477,-0.00113893,-0.00086632,-0.00026480,0.0
 0018873,0.00053033,0.00019062,0.00007173,0.00037460,-0.00000663,0.0001
 9929,0.00012156,-0.00005565,-0.08611616,-0.36308856,0.77739068,-0.0012
 9219,-0.00114395,-0.00044187,0.00069463,0.00032068,0.00026102,0.000140
 01,0.00088910,-0.00003228,0.00025815,-0.00222163,0.00414706,-0.0001452
 6,0.00011659,-0.00040856,-0.00087575,0.00114939,-0.00066504,-0.0004143
 8,-0.00011817,0.00025256,0.00005141,-0.00004521,-0.00000589,0.00007402
 ,-0.00002060,-0.00000915,-0.03946654,0.02980141,-0.01006178,-0.0000814
 7,-0.00020557,-0.00006557,0.00001907,0.00004513,0.00000480,0.00000411,
 0.00004941,-0.00000430,0.00000845,0.00002597,0.00000858,-0.14486430,0.
 05188717,-0.03955255,0.56963790,-0.00027815,0.00028066,0.00021498,-0.0
 0028845,0.00000648,-0.00012856,-0.00003169,-0.00001143,-0.00006325,-0.
 00038790,0.00344457,0.00190042,0.00043163,-0.00036918,-0.00028705,0.00
 011055,-0.00002267,0.00007414,-0.00003021,-0.00003377,-0.00005346,-0.0
 0005837,-0.00002922,0.00000328,0.00000370,0.00003206,-0.00003929,0.011
 75409,0.00343476,0.00419636,0.00002197,0.00006288,-0.00001790,0.000000
 24,0.00000221,0.00000192,0.00000211,0.00000101,0.00000010,0.00000014,-
 0.00001403,-0.00000820,0.05402987,-0.13755822,0.02907654,0.02255872,0.
 53931538,0.00025008,0.00033768,-0.00029927,-0.00042546,-0.00023350,0.0
 0015028,-0.00014225,0.00012345,-0.00000751,0.00456747,0.00207209,0.000
 99457,0.00070780,-0.00029179,-0.00000141,0.00075138,-0.00092773,0.0006
 3891,0.00034362,0.00004773,-0.00026469,-0.00007069,-0.00001347,0.00001
 904,-0.00007142,0.00003165,-0.00001534,0.01424406,-0.00779904,0.012047
 94,0.00005228,-0.00015685,-0.00006827,-0.00000658,-0.00003046,-0.00001
 135,-0.00000807,0.00001058,-0.00000892,-0.00000446,0.00000339,0.000019
 11,-0.04116547,0.02886382,-0.10391918,-0.05916111,0.00932940,0.5581300
 6,-0.00060042,-0.00009851,-0.00051231,0.00028104,-0.00007961,0.0003851
 7,0.00016051,-0.00003910,0.00018008,0.00035847,0.00061577,0.00063102,0
 .00012693,-0.00007236,0.00004050,0.00004642,0.00000132,-0.00001739,-0.
 00000921,-0.00000485,0.00000604,0.00000432,-0.00000517,-0.00000305,-0.
 00003805,0.00002390,0.00002398,-0.00079832,0.00165334,0.00145275,0.000
 02162,0.00004146,-0.00002774,-0.00000343,-0.00000319,-0.00000676,0.000
 00389,0.00000380,0.00000407,-0.00000807,0.00000250,0.00000047,-0.00613
 182,-0.01405168,-0.01996941,-0.06731010,-0.03169527,-0.06635749,0.0686
 6488,0.00066345,0.00033821,0.00068998,-0.00063503,0.00004897,-0.000459
 65,-0.00020095,0.00002340,-0.00024378,-0.00040688,-0.00030698,-0.00038
 710,-0.00010683,-0.00001423,0.00003647,-0.00004111,-0.00002605,-0.0000
 5064,0.00000987,0.00000364,0.00001981,-0.00000868,0.00000103,-0.000008
 25,0.00001317,0.00001974,-0.00000210,-0.00000496,-0.00073853,-0.000980
 83,-0.00000417,-0.00002641,0.00001989,0.00000307,-0.00000007,0.0000159
 5,-0.00000738,-0.00000387,-0.00000469,0.00001157,-0.00000437,0.0000005
 0,0.00528138,0.01256739,0.02028414,-0.03040165,-0.09266624,-0.10243014
 ,0.03427880,0.10041006,-0.00021341,0.00001491,-0.00028709,0.00014523,0
 .00004520,0.00005728,0.00007467,-0.00011156,0.00014569,-0.00014510,0.0
 0054255,0.00025641,0.00017449,-0.00008235,0.00001153,0.00000549,-0.000
 00347,0.00004751,0.00000107,-0.00000385,-0.00001197,-0.00000301,0.0000
 0272,0.00000231,-0.00001470,-0.00000304,0.00000170,0.00130732,0.000210
 74,0.00088428,0.00000232,0.00003109,0.00000309,-0.00000331,-0.00000297
 ,-0.00000992,0.00000470,-0.00000361,0.00000145,-0.00000593,-0.00000126
 ,-0.00000282,-0.00397540,-0.00648478,-0.01727637,-0.06602712,-0.104963
 20,-0.24711358,0.07353561,0.11095545,0.26782873,0.00005399,-0.00000362
 ,-0.00004530,-0.00000037,0.00000408,0.00004574,-0.00000370,0.00000010,
 0.00001955,0.00029888,-0.00015287,-0.00005991,0.00004024,-0.00000699,0
 .00005022,0.00005437,-0.00002579,-0.00000190,0.00000807,-0.00000329,0.
 00000298,-0.00003835,-0.00000140,-0.00001173,-0.00000862,0.00000993,0.
 00001364,-0.00172057,-0.00091223,-0.00035357,-0.00000566,-0.00001202,-
 0.00000588,-0.00000200,-0.00000307,-0.00000262,0.00000137,0.00000074,0
 .00000011,-0.00000035,0.00000149,0.00000161,0.01424917,0.02014630,-0.0
 0083227,-0.10317119,-0.10630207,0.02956945,-0.00452900,-0.00756765,0.0
 0279737,0.10661890,-0.00041413,-0.00000556,-0.00012221,0.00022037,0.00
 003447,-0.00000665,0.00007896,0.00008710,0.00003767,0.00054722,0.00022
 194,0.00032280,-0.00005045,-0.00000237,-0.00009844,-0.00003826,0.00001
 065,-0.00000006,-0.00000739,0.00000358,-0.00001019,0.00004464,0.000004
 80,0.00001207,0.00002670,-0.00002242,-0.00001980,0.00058733,0.00201214
 ,-0.00050076,-0.00002157,0.00002089,-0.00000194,0.00000253,0.00001050,
 -0.00000095,0.00000441,0.00000588,0.00000226,-0.00000042,0.00000126,-0
 .00000358,-0.01363999,-0.01721105,0.00293226,-0.10424877,-0.25824453,0
 .05294292,-0.00517237,-0.01135257,0.00343921,0.11576081,0.27787801,0.0
 0015971,-0.00001655,-0.00006459,0.00002887,0.00001044,0.00001645,0.000
 00640,-0.00011250,0.00005688,-0.00037078,-0.00027698,-0.00039253,-0.00
 000558,0.00007158,0.00004629,0.00001123,0.00001729,0.00004830,0.000006
 12,0.00000626,-0.00001414,-0.00000787,0.00000539,0.00001736,-0.0000034
 8,-0.00002829,-0.00000515,0.00089006,-0.00143497,0.00015863,0.00000612
 ,0.00001387,0.00001514,-0.00000146,-0.00000563,-0.00000420,-0.00000060
 ,-0.00000544,0.00000063,-0.00000282,-0.00000077,-0.00000126,0.00924981
 ,0.01497056,-0.00595549,0.02912535,0.05388518,-0.05443439,-0.01195056,
 -0.02551173,0.00759453,-0.02854063,-0.05975877,0.05907442,-0.00035760,
 -0.00033848,-0.00006996,0.00018153,0.00017267,0.00005465,0.00004404,0.
 00028144,-0.00002725,0.00008493,-0.00057758,0.00069918,-0.00016083,0.0
 0009999,-0.00004661,-0.00020666,0.00030248,-0.00020536,-0.00011693,-0.
 00002224,0.00007604,0.00002931,-0.00001194,0.00000530,0.00002091,-0.00
 001495,0.00000376,-0.00382774,0.00441993,-0.00238959,-0.00003249,-0.00
 005776,-0.00001347,0.00000746,0.00001631,0.00000451,0.00000067,0.00001
 575,-0.00000071,0.00000444,0.00000917,0.00000095,-0.01780834,-0.000142
 57,0.01577560,-0.22902653,0.03310237,0.13160729,0.00986039,-0.00122139
 ,-0.00617734,-0.00876160,0.00277098,0.00544646,0.24724449,0.00006771,0
 .00034896,-0.00008557,-0.00011085,-0.00017257,0.00000627,0.00000400,-0
 .00018498,0.00004882,0.00054084,0.00096566,-0.00021023,0.00013531,-0.0
 0009626,0.00006055,0.00017987,-0.00027660,0.00018718,0.00010657,0.0000
 2185,-0.00007654,-0.00000386,0.00000632,0.00001709,-0.00001948,-0.0000
 0228,-0.00000984,0.00405477,-0.00224075,0.00227616,0.00003540,0.000065
 55,0.00000294,-0.00000484,-0.00001329,-0.00000237,-0.00000111,-0.00000
 939,0.00000175,-0.00000566,-0.00000703,-0.00000081,0.01439750,-0.00287
 926,-0.01571184,0.02956496,-0.05471038,-0.02022748,0.01154490,-0.00271
 316,-0.00662779,-0.02197498,0.00723018,0.01650435,-0.03674424,0.053838
 73,-0.00023420,-0.00012964,-0.00012125,0.00011469,0.00001390,0.0001021
 6,0.00005979,0.00003653,0.00003061,-0.00064488,0.00010037,0.00055161,0
 .00002051,-0.00004215,0.00000291,-0.00013676,0.00020204,-0.00013663,-0
 .00008201,-0.00001718,0.00005753,0.00000394,-0.00000738,-0.00000558,-0
 .00000466,0.00001100,0.00001218,-0.00333352,0.00273826,-0.00091912,-0.
 00000063,0.00001574,-0.00000747,0.00000126,0.00000419,0.00000200,0.000
 00072,0.00000379,0.00000224,-0.00000055,0.00000242,-0.00000150,-0.0140
 5115,0.00205487,0.00925330,0.13768111,-0.02390920,-0.14584060,0.022173
 96,-0.00220952,-0.01336514,0.00246540,-0.00139307,-0.00358562,-0.14425
 195,0.02372170,0.15344522,-0.00202899,-0.00437100,-0.00150982,0.001718
 32,0.00230631,0.00074232,0.00039648,0.00234438,0.00002128,0.00369387,-
 0.00985360,0.00305191,-0.00164895,0.00105852,0.00206267,0.00087906,0.0
 0008040,0.00165583,-0.00017601,0.00011953,-0.00016184,0.00006980,0.000
 05993,0.00008274,-0.00062720,-0.00026860,0.00014798,-0.02871092,-0.024
 44372,0.06704048,-0.00042100,-0.00089376,-0.00002899,0.00006232,0.0001
 9344,0.00003059,0.00001069,0.00014175,-0.00002594,0.00006630,0.0001240
 4,0.00001560,-0.12579906,-0.04654015,0.08825711,0.01575995,0.01705670,
 -0.01468042,-0.00010005,0.00034538,-0.00148295,-0.00308359,0.00354941,
 -0.00404638,0.00282056,-0.00176682,0.00021894,0.13711844,-0.00646433,-
 0.00137003,-0.00023138,0.00493733,0.00013090,-0.00216877,0.00090920,0.
 00119973,0.00013764,0.00677715,-0.00779551,0.00099625,-0.00190358,0.00
 039403,-0.00144646,-0.00150330,0.00196980,-0.00145108,-0.00072150,-0.0
 0006793,0.00023809,0.00060602,0.00007127,-0.00016585,0.00058800,-0.000
 15131,-0.00028978,-0.03374992,0.02088141,0.02891518,-0.00054418,0.0004
 9333,0.00009756,0.00002897,0.00026106,0.00005036,0.00009338,0.00005583
 ,0.00004267,0.00004695,0.00002823,-0.00007628,-0.03389394,-0.29607444,
 0.30955901,0.00199702,-0.00292033,0.03834773,0.00305631,-0.00555995,0.
 00304603,0.00104251,-0.00068289,0.00166670,-0.00205996,0.00082867,-0.0
 0119665,0.06075788,0.28830813,0.00304821,0.00334474,-0.00242901,-0.000
 30126,-0.00219437,0.00016922,-0.00000981,-0.00418540,0.00175399,-0.014
 29401,0.00854821,-0.00884349,0.00296172,-0.00140978,0.00160953,0.00135
 287,-0.00151276,0.00189359,0.00086864,-0.00020587,-0.00028811,-0.00056
 635,-0.00002595,-0.00015004,-0.00064446,0.00022587,0.00046654,0.074908
 90,0.02497742,-0.04750296,0.00058374,0.00056358,0.00012503,-0.00012071
 ,-0.00030402,-0.00015840,-0.00000607,-0.00022884,0.00000440,-0.0001293
 0,-0.00005567,0.00004472,0.07397694,0.31512689,-0.54853299,0.00495475,
 0.03078778,-0.02001539,0.00041107,0.00026626,0.00123239,-0.00511226,0.
 00222720,-0.00257126,-0.00049149,0.00012565,0.00052317,-0.14139111,-0.
 37607093,0.62266908\\-0.00000046,-0.00000010,-0.00000011,0.00000035,0.
 00000060,0.00000040,0.00000079,-0.00000003,-0.00000045,0.00000081,-0.0
 0000053,0.00000064,0.00000020,-0.00000007,-0.00000113,0.00000035,0.000
 00011,-0.00000098,-0.00000066,0.00000092,-0.00000078,-0.00000033,-0.00
 000124,-0.00000056,-0.00000022,0.00000006,0.00000066,-0.00000042,0.000
 00007,-0.00000015,-0.00000104,-0.00000112,-0.00000033,0.00000145,-0.00
 000041,0.00000033,-0.00000040,0.00000092,-0.00000093,-0.00000038,0.000
 00064,0.00000108,-0.00000059,0.00000041,0.00000160,-0.00000036,0.00000
 047,-0.00000017,-0.00000005,0.00000057,0.00000126,-0.00000048,-0.00000
 129,0.00000042,0.00000114,-0.00000024,-0.00000005,0.00000032,0.0000002
 7,-0.00000078\\\@


 SEE YOU NOW,
 YOUR BAIT OF FALSEHOOD TAKES THIS CARP OF TRUTH.
 AND THUS DO WE OF WISDOM AND OF REACH...
 BY INDIRECTIONS FIND DIRECTIONS OUT.    -- HAMLET, II, 1
 Job cpu time:       0 days  3 hours 26 minutes 57.2 seconds.
 Elapsed time:       0 days  0 hours  8 minutes 39.6 seconds.
 File lengths (MBytes):  RWF=    239 Int=      0 D2E=      0 Chk=     17 Scr=      1
 Normal termination of Gaussian 16 at Thu Oct  3 09:40:59 2019.
