 Entering Gaussian System, Link 0=g16
 Initial command:
 /opt/gaussian/16.B.01/g16/l1.exe "/oasis/scratch/comet/mayes/temp_project/Gau-8616.inp" -scrdir="/oasis/scratch/comet/mayes/temp_project/"
 Entering Link 1 = /opt/gaussian/16.B.01/g16/l1.exe PID=      8617.
  
 Copyright (c) 1988-2017, Gaussian, Inc.  All Rights Reserved.
  
 This is part of the Gaussian(R) 16 program.  It is based on
 the Gaussian(R) 09 system (copyright 2009, Gaussian, Inc.),
 the Gaussian(R) 03 system (copyright 2003, Gaussian, Inc.),
 the Gaussian(R) 98 system (copyright 1998, Gaussian, Inc.),
 the Gaussian(R) 94 system (copyright 1995, Gaussian, Inc.),
 the Gaussian 92(TM) system (copyright 1992, Gaussian, Inc.),
 the Gaussian 90(TM) system (copyright 1990, Gaussian, Inc.),
 the Gaussian 88(TM) system (copyright 1988, Gaussian, Inc.),
 the Gaussian 86(TM) system (copyright 1986, Carnegie Mellon
 University), and the Gaussian 82(TM) system (copyright 1983,
 Carnegie Mellon University). Gaussian is a federally registered
 trademark of Gaussian, Inc.
  
 This software contains proprietary and confidential information,
 including trade secrets, belonging to Gaussian, Inc.
  
 This software is provided under written license and may be
 used, copied, transmitted, or stored only in accord with that
 written license.
  
 The following legend is applicable only to US Government
 contracts under FAR:

                    RESTRICTED RIGHTS LEGEND
  
 Use, reproduction and disclosure by the US Government is
 subject to restrictions as set forth in subparagraphs (a)
 and (c) of the Commercial Computer Software - Restricted
 Rights clause in FAR 52.227-19.
  
 Gaussian, Inc.
 340 Quinnipiac St., Bldg. 40, Wallingford CT 06492
  
  
 ---------------------------------------------------------------
 Warning -- This program may not be used in any manner that
 competes with the business of Gaussian, Inc. or will provide
 assistance to any competitor of Gaussian, Inc.  The licensee
 of this program is prohibited from giving any competitor of
 Gaussian, Inc. access to this program.  By using this program,
 the user acknowledges that Gaussian, Inc. is engaged in the
 business of creating and licensing software in the field of
 computational chemistry and represents and warrants to the
 licensee that it is not a competitor of Gaussian, Inc. and that
 it will not use this program in any manner prohibited above.
 ---------------------------------------------------------------
  

 Cite this work as:
 Gaussian 16, Revision B.01,
 M. J. Frisch, G. W. Trucks, H. B. Schlegel, G. E. Scuseria, 
 M. A. Robb, J. R. Cheeseman, G. Scalmani, V. Barone, 
 G. A. Petersson, H. Nakatsuji, X. Li, M. Caricato, A. V. Marenich, 
 J. Bloino, B. G. Janesko, R. Gomperts, B. Mennucci, H. P. Hratchian, 
 J. V. Ortiz, A. F. Izmaylov, J. L. Sonnenberg, D. Williams-Young, 
 F. Ding, F. Lipparini, F. Egidi, J. Goings, B. Peng, A. Petrone, 
 T. Henderson, D. Ranasinghe, V. G. Zakrzewski, J. Gao, N. Rega, 
 G. Zheng, W. Liang, M. Hada, M. Ehara, K. Toyota, R. Fukuda, 
 J. Hasegawa, M. Ishida, T. Nakajima, Y. Honda, O. Kitao, H. Nakai, 
 T. Vreven, K. Throssell, J. A. Montgomery, Jr., J. E. Peralta, 
 F. Ogliaro, M. J. Bearpark, J. J. Heyd, E. N. Brothers, K. N. Kudin, 
 V. N. Staroverov, T. A. Keith, R. Kobayashi, J. Normand, 
 K. Raghavachari, A. P. Rendell, J. C. Burant, S. S. Iyengar, 
 J. Tomasi, M. Cossi, J. M. Millam, M. Klene, C. Adamo, R. Cammi, 
 J. W. Ochterski, R. L. Martin, K. Morokuma, O. Farkas, 
 J. B. Foresman, and D. J. Fox, Gaussian, Inc., Wallingford CT, 2016.
 
 ******************************************
 Gaussian 16:  ES64L-G16RevB.01 20-Dec-2017
                 2-Oct-2019 
 ******************************************
 %RWF=/oasis/scratch/comet/mayes/temp_project/lme2acetoxprpnt_ts3_ircf_opt.rwf
 %NoSave
 %OldChk=/oasis/scratch/comet/mayes/temp_project/lme2acetoxprpnt_ts3_ircf.chk
 %Chk=/oasis/scratch/comet/mayes/temp_project/lme2acetoxprpnt_ts3_ircf_opt.chk
 %cpu=0-23
 SetSPE:  set environment variable "MP_BIND" = "yes"
 SetSPE:  set environment variable "MP_BLIST" = "0,1,2,3,4,5,6,7,8,9,10,11,12,13,14,15,16,17,18,19,20,21,22,23"
 Will use up to   24 processors via shared memory.
 %mem=112GB
 Copying data from "/oasis/scratch/comet/mayes/temp_project/lme2acetoxprpnt_ts3_ircf.chk" to current chk file "/oasis/scratch/comet/mayes/temp_project/lme2acetoxprpnt_ts3_ircf_opt.chk"
 IOpt=  2 FromEx=T IUOpen= 4 IOptOp= 5 NList=   0 IFRang= 0 IUIn= 4 IUOut= 2.
 ----------------------------------------------------------------------
 # m062x/Def2TZVP nosymm scf=xqc opt freq=NoRaman CPHF=Grid=Fine guess=
 read geom=allcheck
 ----------------------------------------------------------------------
 1/18=20,19=15,26=3,29=7,38=1/1,3;
 2/9=110,12=2,15=1,40=1/2;
 3/5=44,7=101,11=2,14=-4,25=1,30=1,71=1,74=-55,116=-2/1,2,3;
 4/5=1/1;
 5/5=2,8=3,13=1,38=6/2,8;
 6/7=2,8=2,9=2,10=2,28=1/1;
 7/30=1/1,2,3,16;
 1/18=20,19=15,26=3/3(2);
 2/9=110,15=1/2;
 99//99;
 2/9=110,15=1/2;
 3/5=44,7=101,11=2,14=-2,25=1,30=1,71=1,74=-55/1,2,3;
 4/5=5,16=3,69=1/1;
 5/5=2,8=3,13=1,38=5/2,8;
 7/30=1/1,2,3,16;
 1/18=20,19=15,26=3/3(-5);
 2/9=110,15=1/2;
 6/7=2,8=2,9=2,10=2,19=2,28=1/1;
 99/9=1/99;
 Structure from the checkpoint file:  "/oasis/scratch/comet/mayes/temp_project/lme2acetoxprpnt_ts3_ircf_opt.chk"
 ----------------------------------
 based on lme2acetoxprpnt_scan3.log
 ----------------------------------
 Charge =  0 Multiplicity = 1
 No Z-Matrix found in chk file; cartesian coordinates used.
  C                                                -0.366214512956      0.923088297596      0.171878631609
  O                                                 0.545159324010      1.171907195366      0.905355412599
  O                                                -1.072109189288      1.838307893599     -0.497072668303
  C                                                -0.918853981721     -0.466167898923     -0.109429122408
  H                                                -1.017868477465     -0.555580336902     -1.191202638113
  C                                                -2.256474798901     -0.688972864737      0.598333087245
  H                                                -2.961374704065     -1.205398296815     -0.050518437242
  H                                                -2.089026130281     -1.295379746801      1.487324150103
  H                                                -2.703717211015      0.256831186155      0.901577458031
  O                                                 0.000670639138     -1.434224477021      0.369199311456
  C                                                -0.663656561136      3.191086094294     -0.295212594320
  H                                                 0.371891566219      3.318572075557     -0.605972883833
  H                                                -1.325750162429      3.796423526684     -0.906225851174
  H                                                -0.755861652913      3.460098338887      0.756057818877
  C                                                 1.181425014059     -1.489816804198     -0.284213972708
  C                                                 2.138120610450     -2.412018451971      0.407588888093
  H                                                 2.460331438602     -1.933757447127      1.333284634622
  H                                                 1.644681273441     -3.346826829954      0.667040099720
  H                                                 2.996073102909     -2.590198378297     -0.232690448257
  O                                                 1.403779240132     -0.862542523156     -1.280336208538
 Recover connectivity data from disk.

 GradGradGradGradGradGradGradGradGradGradGradGradGradGradGradGradGradGrad
 Berny optimization.
 Initialization pass.
                           ----------------------------
                           !    Initial Parameters    !
                           ! (Angstroms and Degrees)  !
 --------------------------                            --------------------------
 ! Name  Definition              Value          Derivative Info.                !
 --------------------------------------------------------------------------------
 ! R1    R(1,2)                  1.196          estimate D2E/DX2                !
 ! R2    R(1,3)                  1.3354         estimate D2E/DX2                !
 ! R3    R(1,4)                  1.5214         estimate D2E/DX2                !
 ! R4    R(3,11)                 1.4274         estimate D2E/DX2                !
 ! R5    R(4,5)                  1.09           estimate D2E/DX2                !
 ! R6    R(4,6)                  1.5296         estimate D2E/DX2                !
 ! R7    R(4,10)                 1.4184         estimate D2E/DX2                !
 ! R8    R(6,7)                  1.0884         estimate D2E/DX2                !
 ! R9    R(6,8)                  1.0891         estimate D2E/DX2                !
 ! R10   R(6,9)                  1.0893         estimate D2E/DX2                !
 ! R11   R(10,15)                1.3506         estimate D2E/DX2                !
 ! R12   R(11,12)                1.0887         estimate D2E/DX2                !
 ! R13   R(11,13)                1.0854         estimate D2E/DX2                !
 ! R14   R(11,14)                1.0891         estimate D2E/DX2                !
 ! R15   R(15,16)                1.4981         estimate D2E/DX2                !
 ! R16   R(15,20)                1.198          estimate D2E/DX2                !
 ! R17   R(16,17)                1.0906         estimate D2E/DX2                !
 ! R18   R(16,18)                1.0884         estimate D2E/DX2                !
 ! R19   R(16,19)                1.0853         estimate D2E/DX2                !
 ! A1    A(2,1,3)              124.569          estimate D2E/DX2                !
 ! A2    A(2,1,4)              125.4617         estimate D2E/DX2                !
 ! A3    A(3,1,4)              109.9491         estimate D2E/DX2                !
 ! A4    A(1,3,11)             115.3024         estimate D2E/DX2                !
 ! A5    A(1,4,5)              106.943          estimate D2E/DX2                !
 ! A6    A(1,4,6)              111.4141         estimate D2E/DX2                !
 ! A7    A(1,4,10)             108.9871         estimate D2E/DX2                !
 ! A8    A(5,4,6)              111.582          estimate D2E/DX2                !
 ! A9    A(5,4,10)             109.7441         estimate D2E/DX2                !
 ! A10   A(6,4,10)             108.1415         estimate D2E/DX2                !
 ! A11   A(4,6,7)              111.0772         estimate D2E/DX2                !
 ! A12   A(4,6,8)              108.9259         estimate D2E/DX2                !
 ! A13   A(4,6,9)              111.1851         estimate D2E/DX2                !
 ! A14   A(7,6,8)              108.7848         estimate D2E/DX2                !
 ! A15   A(7,6,9)              108.182          estimate D2E/DX2                !
 ! A16   A(8,6,9)              108.6239         estimate D2E/DX2                !
 ! A17   A(4,10,15)            115.569          estimate D2E/DX2                !
 ! A18   A(3,11,12)            110.0472         estimate D2E/DX2                !
 ! A19   A(3,11,13)            105.9249         estimate D2E/DX2                !
 ! A20   A(3,11,14)            110.2658         estimate D2E/DX2                !
 ! A21   A(12,11,13)           110.7463         estimate D2E/DX2                !
 ! A22   A(12,11,14)           109.0963         estimate D2E/DX2                !
 ! A23   A(13,11,14)           110.7317         estimate D2E/DX2                !
 ! A24   A(10,15,16)           111.1134         estimate D2E/DX2                !
 ! A25   A(10,15,20)           122.8862         estimate D2E/DX2                !
 ! A26   A(16,15,20)           125.9986         estimate D2E/DX2                !
 ! A27   A(15,16,17)           108.0999         estimate D2E/DX2                !
 ! A28   A(15,16,18)           110.4423         estimate D2E/DX2                !
 ! A29   A(15,16,19)           109.4797         estimate D2E/DX2                !
 ! A30   A(17,16,18)           107.9532         estimate D2E/DX2                !
 ! A31   A(17,16,19)           109.828          estimate D2E/DX2                !
 ! A32   A(18,16,19)           110.9788         estimate D2E/DX2                !
 ! D1    D(2,1,3,11)             0.4732         estimate D2E/DX2                !
 ! D2    D(4,1,3,11)           178.9123         estimate D2E/DX2                !
 ! D3    D(2,1,4,5)           -132.4478         estimate D2E/DX2                !
 ! D4    D(2,1,4,6)            105.377          estimate D2E/DX2                !
 ! D5    D(2,1,4,10)           -13.8741         estimate D2E/DX2                !
 ! D6    D(3,1,4,5)             49.1303         estimate D2E/DX2                !
 ! D7    D(3,1,4,6)            -73.045          estimate D2E/DX2                !
 ! D8    D(3,1,4,10)           167.7039         estimate D2E/DX2                !
 ! D9    D(1,3,11,12)           59.8895         estimate D2E/DX2                !
 ! D10   D(1,3,11,13)          179.6414         estimate D2E/DX2                !
 ! D11   D(1,3,11,14)          -60.5064         estimate D2E/DX2                !
 ! D12   D(1,4,6,7)            138.1894         estimate D2E/DX2                !
 ! D13   D(1,4,6,8)           -102.0105         estimate D2E/DX2                !
 ! D14   D(1,4,6,9)             17.6572         estimate D2E/DX2                !
 ! D15   D(5,4,6,7)             18.7329         estimate D2E/DX2                !
 ! D16   D(5,4,6,8)            138.533          estimate D2E/DX2                !
 ! D17   D(5,4,6,9)           -101.7993         estimate D2E/DX2                !
 ! D18   D(10,4,6,7)          -102.0576         estimate D2E/DX2                !
 ! D19   D(10,4,6,8)            17.7425         estimate D2E/DX2                !
 ! D20   D(10,4,6,9)           137.4102         estimate D2E/DX2                !
 ! D21   D(1,4,10,15)          -67.1709         estimate D2E/DX2                !
 ! D22   D(5,4,10,15)           49.6327         estimate D2E/DX2                !
 ! D23   D(6,4,10,15)          171.5607         estimate D2E/DX2                !
 ! D24   D(4,10,15,16)         172.6075         estimate D2E/DX2                !
 ! D25   D(4,10,15,20)          -6.9293         estimate D2E/DX2                !
 ! D26   D(10,15,16,17)        -71.4354         estimate D2E/DX2                !
 ! D27   D(10,15,16,18)         46.4634         estimate D2E/DX2                !
 ! D28   D(10,15,16,19)        168.9518         estimate D2E/DX2                !
 ! D29   D(20,15,16,17)        108.0837         estimate D2E/DX2                !
 ! D30   D(20,15,16,18)       -134.0175         estimate D2E/DX2                !
 ! D31   D(20,15,16,19)        -11.5291         estimate D2E/DX2                !
 --------------------------------------------------------------------------------
 Trust Radius=3.00D-01 FncErr=1.00D-07 GrdErr=1.00D-06 EigMax=2.50D+02 EigMin=1.00D-04
 Number of steps in this run=     92 maximum allowed number of steps=    120.
 GradGradGradGradGradGradGradGradGradGradGradGradGradGradGradGradGradGrad

                          Input orientation:                          
 ---------------------------------------------------------------------
 Center     Atomic      Atomic             Coordinates (Angstroms)
 Number     Number       Type             X           Y           Z
 ---------------------------------------------------------------------
      1          6           0       -0.366215    0.923088    0.171879
      2          8           0        0.545159    1.171907    0.905355
      3          8           0       -1.072109    1.838308   -0.497073
      4          6           0       -0.918854   -0.466168   -0.109429
      5          1           0       -1.017868   -0.555580   -1.191203
      6          6           0       -2.256475   -0.688973    0.598333
      7          1           0       -2.961375   -1.205398   -0.050518
      8          1           0       -2.089026   -1.295380    1.487324
      9          1           0       -2.703717    0.256831    0.901577
     10          8           0        0.000671   -1.434224    0.369199
     11          6           0       -0.663657    3.191086   -0.295213
     12          1           0        0.371892    3.318572   -0.605973
     13          1           0       -1.325750    3.796424   -0.906226
     14          1           0       -0.755862    3.460098    0.756058
     15          6           0        1.181425   -1.489817   -0.284214
     16          6           0        2.138121   -2.412018    0.407589
     17          1           0        2.460331   -1.933757    1.333285
     18          1           0        1.644681   -3.346827    0.667040
     19          1           0        2.996073   -2.590198   -0.232690
     20          8           0        1.403779   -0.862543   -1.280336
 ---------------------------------------------------------------------
                    Distance matrix (angstroms):
                    1          2          3          4          5
     1  C    0.000000
     2  O    1.196036   0.000000
     3  O    1.335444   2.241975   0.000000
     4  C    1.521373   2.420003   2.341872   0.000000
     5  H    2.114026   3.134139   2.493082   1.089969   0.000000
     6  C    2.520652   3.377320   2.998297   1.529640   2.180453
     7  H    3.363744   4.342932   3.610108   2.172976   2.345344
     8  H    3.101625   3.655834   3.846030   2.146280   2.978118
     9  H    2.537770   3.375289   2.668227   2.174994   2.807459
    10  O    2.393839   2.715852   3.551162   1.418360   2.060168
    11  C    2.334622   2.641909   1.427442   3.670851   3.868562
    12  H    2.624537   2.631027   2.070792   4.029496   4.157281
    13  H    3.215443   3.697325   2.016422   4.355472   4.372178
    14  H    2.632396   2.636430   2.073777   4.023829   4.470587
    15  C    2.902640   2.984072   4.024940   2.342985   2.555840
    16  C    4.177343   3.953457   5.402709   3.660428   3.995343
    17  H    4.183275   3.673712   5.482410   3.956531   4.513345
    18  H    4.745636   4.656683   5.968394   3.933550   4.281740
    19  H    4.879737   4.632015   6.019275   4.455710   4.601102
    20  O    2.903495   3.107002   3.746748   2.631114   2.442652
                    6          7          8          9         10
     6  C    0.000000
     7  H    1.088388   0.000000
     8  H    1.089070   1.770324   0.000000
     9  H    1.089279   1.763800   1.769266   0.000000
    10  O    2.388013   3.000373   2.374092   3.233699   0.000000
    11  C    4.288397   4.966735   5.033636   3.768820   4.719775
    12  H    4.941566   5.646725   5.632633   4.594163   4.865988
    13  H    4.821693   5.331578   5.677863   4.206621   5.544888
    14  H    4.414919   5.223190   4.992660   3.751831   4.967534
    15  C    3.638598   4.159122   3.724514   4.421675   1.350637
    16  C    4.724165   5.260290   4.503496   5.550692   2.350797
    17  H    4.933346   5.642722   4.596510   5.626051   2.688666
    18  H    4.721009   5.129947   4.338418   5.652427   2.539592
    19  H    5.647523   6.118990   5.522068   6.471457   3.266647
    20  O    4.117886   4.548029   4.477386   4.783855   2.239755
                   11         12         13         14         15
    11  C    0.000000
    12  H    1.088662   0.000000
    13  H    1.085421   1.788989   0.000000
    14  H    1.089054   1.773974   1.789155   0.000000
    15  C    5.031431   4.886663   5.883635   5.416355   0.000000
    16  C    6.303861   6.081656   7.229748   6.555785   1.498103
    17  H    6.218949   5.975723   7.223904   6.306407   2.109262
    18  H    6.999904   6.904209   7.894597   7.218363   2.137283
    19  H    6.842571   6.476051   7.740849   7.187540   2.122838
    20  O    4.655820   4.359045   5.412601   5.243679   1.197987
                   16         17         18         19         20
    16  C    0.000000
    17  H    1.090626   0.000000
    18  H    1.088423   1.762365   0.000000
    19  H    1.085260   1.780509   1.791162   0.000000
    20  O    2.406081   3.015762   3.165751   2.572500   0.000000
 Symmetry turned off by external request.
 Stoichiometry    C6H10O4
 Framework group  C1[X(C6H10O4)]
 Deg. of freedom    54
 Full point group                 C1      NOp   1
 Rotational constants (GHZ):           2.2480672           0.8990161           0.7503166
 Standard basis: def2TZVP (5D, 7F)
   370 basis functions,   590 primitive gaussians,   420 cartesian basis functions
    39 alpha electrons       39 beta electrons
       nuclear repulsion energy       572.2745614427 Hartrees.
 NAtoms=   20 NActive=   20 NUniq=   20 SFac= 1.00D+00 NAtFMM=   60 NAOKFM=F Big=F
 Integral buffers will be    131072 words long.
 Raffenetti 2 integral format.
 Two-electron integral symmetry is turned off.
 One-electron integrals computed using PRISM.
   1 Symmetry operations used in ECPInt.
 ECPInt:  NShTT=   11325 NPrTT=   34180 LenC2=   10822 LenP2D=   25058.
 LDataN:  DoStor=T MaxTD1= 6 Len=  172
 NBasis=   370 RedAO= T EigKep=  1.36D-04  NBF=   370
 NBsUse=   370 1.00D-06 EigRej= -1.00D+00 NBFU=   370
 Initial guess from the checkpoint file:  "/oasis/scratch/comet/mayes/temp_project/lme2acetoxprpnt_ts3_ircf_opt.chk"
 B after Tr=     0.000000   -0.000000    0.000000
         Rot=    1.000000   -0.000000    0.000000    0.000000 Ang=   0.00 deg.
 Requested convergence on RMS density matrix=1.00D-08 within  32 cycles.
 Requested convergence on MAX density matrix=1.00D-06.
 Requested convergence on             energy=1.00D-06.
 No special actions if energy rises.
 SCF Done:  E(RM062X) =  -535.574260102     A.U. after    1 cycles
            NFock=  1  Conv=0.24D-08     -V/T= 2.0044
 QCSCF skips out because SCF is already converged.

 **********************************************************************

            Population analysis using the SCF Density.

 **********************************************************************

 Alpha  occ. eigenvalues --  -19.67913 -19.67397 -19.62202 -19.61650 -10.67391
 Alpha  occ. eigenvalues --  -10.67333 -10.61658 -10.59453 -10.54504 -10.54462
 Alpha  occ. eigenvalues --   -1.25348  -1.23747  -1.15400  -1.14623  -0.91116
 Alpha  occ. eigenvalues --   -0.84865  -0.82596  -0.74859  -0.69256  -0.64515
 Alpha  occ. eigenvalues --   -0.61992  -0.58529  -0.57849  -0.56920  -0.55584
 Alpha  occ. eigenvalues --   -0.54009  -0.51335  -0.49282  -0.48594  -0.47073
 Alpha  occ. eigenvalues --   -0.46343  -0.45751  -0.45301  -0.43523  -0.42356
 Alpha  occ. eigenvalues --   -0.39601  -0.38347  -0.35976  -0.35355
 ...

 Alpha virt. eigenvalues --    6.68175   6.69417   6.76400   6.78015   6.82928
 Alpha virt. eigenvalues --    6.83567   6.89270   6.92693   7.01175   7.04136
 Alpha virt. eigenvalues --    7.10816   7.14492   7.25743   7.30971   7.36402
 Alpha virt. eigenvalues --    7.41080  22.40871  22.44042  22.44780  22.71831
 Alpha virt. eigenvalues --   23.39639  23.48304  44.04158  44.07736  44.24862
 Alpha virt. eigenvalues --   44.48773
          Condensed to atoms (all electrons):
               1          2          3          4          5          6
     1  C    4.639739   0.629561   0.335212   0.235996  -0.085869   0.006054
...
    20  O    0.005775   7.843030
 Mulliken charges:
               1
     1  C    0.325401
     2  O   -0.322712
     3  O   -0.276063
     4  C    0.052402
     5  H    0.172136
     6  C   -0.420071
     7  H    0.146101
     8  H    0.161585
     9  H    0.153062
    10  O   -0.274361
    11  C   -0.255028
    12  H    0.159952
    13  H    0.145689
    14  H    0.151018
    15  C    0.384455
    16  C   -0.451468
    17  H    0.170169
    18  H    0.155240
    19  H    0.156548
    20  O   -0.334058
 Sum of Mulliken charges =  -0.00000
 Mulliken charges with hydrogens summed into heavy atoms:
               1
     1  C    0.325401
     2  O   -0.322712
     3  O   -0.276063
     4  C    0.224538
     6  C    0.040677
    10  O   -0.274361
    11  C    0.201632
    15  C    0.384455
    16  C    0.030490
    20  O   -0.334058
 Electronic spatial extent (au):  <R**2>=           1628.5332
 Charge=             -0.0000 electrons
 Dipole moment (field-independent basis, Debye):
    X=             -1.9930    Y=             -0.1852    Z=              0.5872  Tot=              2.0860
 Quadrupole moment (field-independent basis, Debye-Ang):
   XX=            -56.4769   YY=            -48.1262   ZZ=            -63.2956
   XY=             -4.2636   XZ=              1.6898   YZ=             -2.6160
 Traceless Quadrupole moment (field-independent basis, Debye-Ang):
   XX=             -0.5107   YY=              7.8400   ZZ=             -7.3294
   XY=             -4.2636   XZ=              1.6898   YZ=             -2.6160
 Octapole moment (field-independent basis, Debye-Ang**2):
  XXX=              7.7551  YYY=             24.8087  ZZZ=             -0.4482  XYY=              4.5016
  XXY=             -9.1761  XXZ=              5.3034  XZZ=             -4.4667  YZZ=              1.7052
  YYZ=             -5.3890  XYZ=             -6.0972
 Hexadecapole moment (field-independent basis, Debye-Ang**3):
 XXXX=           -711.3647 YYYY=          -1024.8804 ZZZZ=           -216.8279 XXXY=            180.2374
 XXXZ=             30.2766 YYYX=            144.5579 YYYZ=             14.3113 ZZZX=             30.5572
 ZZZY=             25.4851 XXYY=           -292.2005 XXZZ=           -160.1192 YYZZ=           -227.6663
 XXYZ=              6.3531 YYXZ=              9.0491 ZZXY=             65.5040
 N-N= 5.722745614427D+02 E-N=-2.399166813728D+03  KE= 5.332154847472D+02
   1 Symmetry operations used in ECPInt.
 ECPInt:  NShTT=   11325 NPrTT=   34180 LenC2=   10822 LenP2D=   25058.
 LDataN:  DoStor=T MaxTD1= 7 Len=  274
 Calling FoFJK, ICntrl=      2127 FMM=F ISym2X=0 I1Cent= 0 IOpClX= 0 NMat=1 NMatS=1 NMatT=0.
 -------------------------------------------------------------------
 Center     Atomic                   Forces (Hartrees/Bohr)
 Number     Number              X              Y              Z
 -------------------------------------------------------------------
      1        6          -0.000023002    0.000036570    0.000243739
      2        8           0.000063860   -0.000055923    0.000243237
      3        8           0.000128468    0.000112448    0.000219658
      4        6          -0.000088701    0.000080992   -0.000009480
      5        1          -0.000025880    0.000035660   -0.000004061
      6        6          -0.000214460   -0.000238665    0.000194084
      7        1           0.000688545   -0.000654567    0.000695074
      8        1           0.000041254    0.001154142    0.000117098
      9        1          -0.000265356   -0.000436285   -0.001058777
     10        8          -0.000287163   -0.000214743   -0.000429885
     11        6           0.000166289    0.000062258    0.000065828
     12        1           0.000012510   -0.000000823    0.000003708
     13        1           0.000014451    0.000004467    0.000002177
     14        1           0.000013333    0.000010132    0.000003515
     15        6          -0.000096599   -0.000030169   -0.000150932
     16        6          -0.000110707    0.000017298   -0.000061374
     17        1          -0.000011042    0.000007098   -0.000006280
     18        1          -0.000007305    0.000002056   -0.000000456
     19        1          -0.000005970   -0.000000164   -0.000001211
     20        8           0.000007475    0.000108219   -0.000065662
 -------------------------------------------------------------------
 Cartesian Forces:  Max     0.001154142 RMS     0.000285561

 GradGradGradGradGradGradGradGradGradGradGradGradGradGradGradGradGradGrad
 Berny optimization.
 FormGI is forming the generalized inverse of G from B-inverse, IUseBI=4.
 Internal  Forces:  Max     0.001159342 RMS     0.000345686
 Search for a local minimum.
 Step number   1 out of a maximum of   92
 All quantities printed in internal units (Hartrees-Bohrs-Radians)
 Mixed Optimization -- En-DIIS/RFO-DIIS
 Second derivative matrix not updated -- first step.
 ITU=  0
     Eigenvalues ---    0.00374   0.00483   0.00791   0.00993   0.01158
     Eigenvalues ---    0.01329   0.01449   0.02345   0.02546   0.04963
     Eigenvalues ---    0.05514   0.05526   0.05749   0.07407   0.07733
     Eigenvalues ---    0.07990   0.10291   0.10662   0.16000   0.16000
     Eigenvalues ---    0.16000   0.16000   0.16000   0.16000   0.16000
     Eigenvalues ---    0.16000   0.16000   0.17395   0.19705   0.24994
     Eigenvalues ---    0.24999   0.25000   0.25000   0.25000   0.25000
     Eigenvalues ---    0.29457   0.30235   0.32577   0.34740   0.34816
     Eigenvalues ---    0.34896   0.34920   0.34922   0.34968   0.34996
     Eigenvalues ---    0.35000   0.35347   0.35366   0.41359   0.42708
     Eigenvalues ---    0.54886   0.58238   1.05841   1.06841
 RFO step:  Lambda=-8.97781783D-04 EMin= 3.73865769D-03
 Linear search not attempted -- first point.
 Iteration  1 RMS(Cart)=  0.05508750 RMS(Int)=  0.00377889
 Iteration  2 RMS(Cart)=  0.00390811 RMS(Int)=  0.00001183
 Iteration  3 RMS(Cart)=  0.00001403 RMS(Int)=  0.00000415
 Iteration  4 RMS(Cart)=  0.00000000 RMS(Int)=  0.00000415
 Variable       Old X    -DE/DX   Delta X   Delta X   Delta X     New X
                                 (Linear)    (Quad)   (Total)
    R1        2.26018   0.00019   0.00000   0.00017   0.00017   2.26035
    R2        2.52362  -0.00020   0.00000  -0.00034  -0.00034   2.52328
...
   D30       -2.33905   0.00001   0.00000   0.00056   0.00056  -2.33849
   D31       -0.20122   0.00001   0.00000   0.00059   0.00059  -0.20063
         Item               Value     Threshold  Converged?
 Maximum Force            0.001159     0.000450     NO 
 RMS     Force            0.000346     0.000300     NO 
 Maximum Displacement     0.253218     0.001800     NO 
 RMS     Displacement     0.055023     0.001200     NO 
 Predicted change in Energy=-5.321019D-04
 GradGradGradGradGradGradGradGradGradGradGradGradGradGradGradGradGradGrad

                          Input orientation:                          
 ---------------------------------------------------------------------
 Center     Atomic      Atomic             Coordinates (Angstroms)
 Number     Number       Type             X           Y           Z
 ---------------------------------------------------------------------
      1          6           0       -0.370140    0.924159    0.177136
      2          8           0        0.534492    1.168751    0.920465
      3          8           0       -1.067104    1.844752   -0.493446
      4          6           0       -0.921834   -0.465190   -0.109637
      5          1           0       -1.015924   -0.561529   -1.191261
      6          6           0       -2.260066   -0.693529    0.594353
      7          1           0       -2.908996   -1.334933    0.002512
      8          1           0       -2.076876   -1.171163    1.554874
      9          1           0       -2.779000    0.247411    0.767580
     10          8           0       -0.001529   -1.431106    0.369989
     11          6           0       -0.651145    3.194152   -0.283187
     12          1           0        0.387314    3.316028   -0.586448
     13          1           0       -1.305028    3.806448   -0.896085
     14          1           0       -0.748521    3.459491    0.768560
     15          6           0        1.175878   -1.486831   -0.289306
     16          6           0        2.134440   -2.411530    0.396077
     17          1           0        2.462182   -1.935079    1.320754
     18          1           0        1.640696   -3.345839    0.656751
     19          1           0        2.988744   -2.590257   -0.248900
     20          8           0        1.393639   -0.858776   -1.286019
 ---------------------------------------------------------------------
                    Distance matrix (angstroms):
                    1          2          3          4          5
     1  C    0.000000
     2  O    1.196128   0.000000
     3  O    1.335265   2.240811   0.000000
     4  C    1.522135   2.419041   2.346113   0.000000
     5  H    2.120569   3.139593   2.505944   1.089975   0.000000
     6  C    2.522460   3.374017   3.008212   1.529249   2.180306
     7  H    3.402908   4.355305   3.707957   2.172059   2.367905
     8  H    3.033394   3.563273   3.782988   2.145487   3.006415
     9  H    2.570840   3.442597   2.659375   2.174022   2.756788
    10  O    2.391723   2.711014   3.551369   1.417744   2.054912
    11  C    2.333180   2.637568   1.427624   3.673442   3.881082
    12  H    2.622563   2.627404   2.070902   4.029744   4.167772
    13  H    3.214562   3.693390   2.016674   4.360301   4.387474
    14  H    2.630754   2.629961   2.074014   4.025468   4.481183
    15  C    2.901828   2.987814   4.021453   2.340177   2.544347
    16  C    4.177041   3.956415   5.399729   3.658524   3.983332
    17  H    4.183916   3.675592   5.480356   3.957039   4.504895
    18  H    4.744088   4.655615   5.966353   3.930909   4.269093
    19  H    4.880033   4.639063   6.014899   4.452856   4.587063
    20  O    2.903548   3.117301   3.740654   2.626824   2.429677
                    6          7          8          9         10
     6  C    0.000000
     7  H    1.087559   0.000000
     8  H    1.088252   1.768918   0.000000
     9  H    1.088424   1.762396   1.767812   0.000000
    10  O    2.386493   2.932176   2.403870   3.269533   0.000000
    11  C    4.297995   5.068740   4.946428   3.783538   4.716106
    12  H    4.947672   5.730967   5.549088   4.612521   4.858112
    13  H    4.835627   5.460219   5.601746   4.196084   5.543827
    14  H    4.422973   5.314225   4.881165   3.800040   4.963346
    15  C    3.635367   4.098100   3.752473   4.445859   1.350578
    16  C    4.722555   5.172059   4.540540   5.599095   2.350377
    17  H    4.936470   5.563047   4.608843   5.704319   2.688460
    18  H    4.717476   5.017117   4.399566   5.697143   2.538766
    19  H    5.644348   6.035096   5.561289   6.507877   3.266250
    20  O    4.112501   4.516604   4.495857   4.780359   2.239736
                   11         12         13         14         15
    11  C    0.000000
    12  H    1.088678   0.000000
    13  H    1.085409   1.788968   0.000000
    14  H    1.089063   1.773908   1.789167   0.000000
    15  C    5.024903   4.876226   5.877233   5.411885   0.000000
    16  C    6.296392   6.068173   7.222386   6.551267   1.497885
    17  H    6.210833   5.959583   7.216050   6.301978   2.108980
    18  H    6.993390   6.891806   7.889473   7.213417   2.137052
    19  H    6.834424   6.462630   7.731310   7.183441   2.122655
    20  O    4.648983   4.350986   5.403625   5.239998   1.198044
                   16         17         18         19         20
    16  C    0.000000
    17  H    1.090618   0.000000
    18  H    1.088425   1.762380   0.000000
    19  H    1.085254   1.780545   1.791186   0.000000
    20  O    2.406092   3.015871   3.165577   2.572547   0.000000
 Symmetry turned off by external request.
 Stoichiometry    C6H10O4
 Framework group  C1[X(C6H10O4)]
 Deg. of freedom    54
 Full point group                 C1      NOp   1
 Rotational constants (GHZ):           2.2422467           0.8999754           0.7513648
 Standard basis: def2TZVP (5D, 7F)
   370 basis functions,   590 primitive gaussians,   420 cartesian basis functions
    39 alpha electrons       39 beta electrons
       nuclear repulsion energy       572.3452453760 Hartrees.
 NAtoms=   20 NActive=   20 NUniq=   20 SFac= 1.00D+00 NAtFMM=   60 NAOKFM=F Big=F
 Integral buffers will be    131072 words long.
 Raffenetti 2 integral format.
 Two-electron integral symmetry is turned off.
 One-electron integrals computed using PRISM.
   1 Symmetry operations used in ECPInt.
 ECPInt:  NShTT=   11325 NPrTT=   34180 LenC2=   10822 LenP2D=   25056.
 LDataN:  DoStor=T MaxTD1= 6 Len=  172
 NBasis=   370 RedAO= T EigKep=  1.39D-04  NBF=   370
 NBsUse=   370 1.00D-06 EigRej= -1.00D+00 NBFU=   370
 Initial guess from the checkpoint file:  "/oasis/scratch/comet/mayes/temp_project/lme2acetoxprpnt_ts3_ircf_opt.chk"
 B after Tr=    -0.003918    0.002247    0.001938
         Rot=    0.999999   -0.001321    0.000152    0.000435 Ang=  -0.16 deg.
 ExpMin= 9.52D-02 ExpMax= 2.70D+04 ExpMxC= 9.22D+02 IAcc=3 IRadAn=         5 AccDes= 0.00D+00
 Harris functional with IExCor= 1009 and IRadAn=       5 diagonalized for initial guess.
 HarFok:  IExCor= 1009 AccDes= 0.00D+00 IRadAn=         5 IDoV= 1 UseB2=F ITyADJ=14
 ICtDFT=  3500011 ScaDFX=  1.000000  1.000000  1.000000  1.000000
 FoFCou: FMM=F IPFlag=           0 FMFlag=      100000 FMFlg1=           0
         NFxFlg=           0 DoJE=T BraDBF=F KetDBF=T FulRan=T
         wScrn=  0.000000 ICntrl=       500 IOpCl=  0 I1Cent=   200000004 NGrid=           0
         NMat0=    1 NMatS0=      1 NMatT0=    0 NMatD0=    1 NMtDS0=    0 NMtDT0=    0
 Symmetry not used in FoFCou.
 Requested convergence on RMS density matrix=1.00D-08 within  32 cycles.
 Requested convergence on MAX density matrix=1.00D-06.
 Requested convergence on             energy=1.00D-06.
 No special actions if energy rises.
 Integral accuracy reduced to 1.0D-05 until final iterations.
 Initial convergence to 1.0D-05 achieved.  Increase integral accuracy.
 SCF Done:  E(RM062X) =  -535.575242465     A.U. after   11 cycles
            NFock= 11  Conv=0.60D-08     -V/T= 2.0044
 QCSCF skips out because SCF is already converged.
   1 Symmetry operations used in ECPInt.
 ECPInt:  NShTT=   11325 NPrTT=   34180 LenC2=   10822 LenP2D=   25056.
 LDataN:  DoStor=T MaxTD1= 7 Len=  274
 Calling FoFJK, ICntrl=      2127 FMM=F ISym2X=0 I1Cent= 0 IOpClX= 0 NMat=1 NMatS=1 NMatT=0.
 -------------------------------------------------------------------
 Center     Atomic                   Forces (Hartrees/Bohr)
 Number     Number              X              Y              Z
 -------------------------------------------------------------------
      1        6          -0.000731340    0.000162621    0.000699617
      2        8           0.000381935   -0.000264717    0.000118559
      3        8           0.000191283   -0.000089667    0.000037075
      4        6          -0.001222989   -0.000217456    0.000047630
      5        1          -0.000582521    0.001206677   -0.000113321
      6        6           0.001295177   -0.000018220    0.000022180
      7        1           0.000755255   -0.001206730    0.000202834
      8        1           0.000182941    0.000879649    0.000753828
      9        1          -0.000027606    0.000313797   -0.001456863
     10        8          -0.000354621   -0.000650846   -0.000256045
     11        6           0.000054611    0.000130872   -0.000003162
     12        1          -0.000006521   -0.000008609    0.000002826
     13        1          -0.000007438   -0.000016542   -0.000020118
     14        1           0.000005739   -0.000021003   -0.000022941
     15        6          -0.000118714   -0.000444234   -0.000028840
     16        6           0.000030094    0.000048428   -0.000023398
     17        1           0.000009402   -0.000014796    0.000013786
     18        1          -0.000015506    0.000023774   -0.000002491
     19        1           0.000016543   -0.000001229    0.000011763
     20        8           0.000144276    0.000188229    0.000017079
 -------------------------------------------------------------------
 Cartesian Forces:  Max     0.001456863 RMS     0.000464305

 GradGradGradGradGradGradGradGradGradGradGradGradGradGradGradGradGradGrad
 Berny optimization.
 Using GEDIIS/GDIIS optimizer.
 FormGI is forming the generalized inverse of G from B-inverse, IUseBI=4.
 Internal  Forces:  Max     0.002145636 RMS     0.000420620
 Search for a local minimum.
 Step number   2 out of a maximum of   92
 All quantities printed in internal units (Hartrees-Bohrs-Radians)
 Mixed Optimization -- En-DIIS/RFO-DIIS
 Swapping is turned off.
 Update second derivatives using D2CorX and points    1    2
 DE= -9.82D-04 DEPred=-5.32D-04 R= 1.85D+00
 TightC=F SS=  1.41D+00  RLast= 4.30D-01 DXNew= 5.0454D-01 1.2915D+00
 Trust test= 1.85D+00 RLast= 4.30D-01 DXMaxT set to 5.05D-01
 ITU=  1  0
     Eigenvalues ---   -0.00235   0.00472   0.00743   0.00791   0.01129
     Eigenvalues ---    0.01329   0.01367   0.02341   0.02539   0.03562
     Eigenvalues ---    0.05349   0.05525   0.05747   0.07407   0.07733
     Eigenvalues ---    0.07945   0.10290   0.10661   0.12989   0.16000
     Eigenvalues ---    0.16000   0.16000   0.16000   0.16000   0.16000
     Eigenvalues ---    0.16000   0.16000   0.16861   0.19671   0.22701
     Eigenvalues ---    0.24911   0.24995   0.25000   0.25000   0.25000
     Eigenvalues ---    0.27831   0.30183   0.32568   0.34252   0.34740
     Eigenvalues ---    0.34816   0.34903   0.34922   0.34968   0.34975
     Eigenvalues ---    0.34996   0.35347   0.35366   0.41355   0.42406
     Eigenvalues ---    0.54876   0.58231   1.05839   1.06826
 Use linear search instead of GDIIS.
 RFO step:  Lambda=-4.10720280D-03 EMin=-2.35209635D-03
 Skip linear search -- no minimum in search direction.
 Iteration  1 RMS(Cart)=  0.08835954 RMS(Int)=  0.04195703
 Iteration  2 RMS(Cart)=  0.04440857 RMS(Int)=  0.00249054
 Iteration  3 RMS(Cart)=  0.00249204 RMS(Int)=  0.00058939
 Iteration  4 RMS(Cart)=  0.00000564 RMS(Int)=  0.00058938
 Iteration  5 RMS(Cart)=  0.00000001 RMS(Int)=  0.00058938
 Variable       Old X    -DE/DX   Delta X   Delta X   Delta X     New X
                                 (Linear)    (Quad)   (Total)
    R1        2.26035   0.00031   0.00000   0.00143   0.00143   2.26179
...
   D31       -0.20063  -0.00006   0.00000  -0.03100  -0.03096  -0.23159
         Item               Value     Threshold  Converged?
 Maximum Force            0.002146     0.000450     NO 
 RMS     Force            0.000421     0.000300     NO 
 Maximum Displacement     0.470426     0.001800     NO 
 RMS     Displacement     0.120724     0.001200     NO 
 Predicted change in Energy=-3.861165D-03
 GradGradGradGradGradGradGradGradGradGradGradGradGradGradGradGradGradGrad

                          Input orientation:                          
 ---------------------------------------------------------------------
 Center     Atomic      Atomic             Coordinates (Angstroms)
 Number     Number       Type             X           Y           Z
 ---------------------------------------------------------------------
      1          6           0       -0.397129    0.933937    0.215370
      2          8           0        0.570649    1.151952    0.885006
      3          8           0       -1.098170    1.856366   -0.448467
      4          6           0       -0.930904   -0.447011   -0.121028
      5          1           0       -1.082138   -0.456768   -1.201088
      6          6           0       -2.217397   -0.698435    0.608034
      7          1           0       -2.736232   -1.544982    0.148938
      8          1           0       -2.009480   -0.922224    1.661134
      9          1           0       -2.836401    0.199672    0.528102
     10          8           0       -0.016110   -1.447997    0.314061
     11          6           0       -0.669659    3.207503   -0.278945
     12          1           0        0.360350    3.317055   -0.613446
     13          1           0       -1.338248    3.808359   -0.887530
     14          1           0       -0.737273    3.494853    0.768952
     15          6           0        1.188567   -1.489849   -0.297088
     16          6           0        2.106525   -2.459349    0.384243
     17          1           0        2.373097   -2.048933    1.359049
     18          1           0        1.599731   -3.408338    0.548085
     19          1           0        3.001614   -2.594644   -0.214533
     20          8           0        1.479835   -0.775738   -1.214083
 ---------------------------------------------------------------------
                    Distance matrix (angstroms):
                    1          2          3          4          5
     1  C    0.000000
     2  O    1.196887   0.000000
     3  O    1.335296   2.249291   0.000000
     4  C    1.518254   2.413183   2.332540   0.000000
     5  H    2.099917   3.109900   2.432547   1.090641   0.000000
     6  C    2.476327   3.357655   2.982595   1.499936   2.149451
     7  H    3.408937   4.330209   3.822213   2.130171   2.396416
     8  H    2.852234   3.400242   3.605755   2.136646   3.044492
     9  H    2.566514   3.555589   2.592252   2.114353   2.549206
    10  O    2.414233   2.725803   3.559651   1.424121   2.101101
    11  C    2.342589   2.668040   1.427561   3.667242   3.800970
    12  H    2.634381   2.641449   2.070775   4.009739   4.082626
    13  H    3.219378   3.720520   2.015115   4.342998   4.284299
    14  H    2.642053   2.685761   2.072919   4.045720   4.428916
    15  C    2.941392   2.959440   4.055767   2.368685   2.653408
    16  C    4.220331   3.956157   5.439566   3.678421   4.085484
    17  H    4.228435   3.703944   5.528849   3.958940   4.585623
    18  H    4.790981   4.687085   5.999074   3.952377   4.354744
    19  H    4.918044   4.599517   6.055943   4.481715   4.713898
    20  O    2.913643   2.991451   3.763011   2.667301   2.581786
                    6          7          8          9         10
     6  C    0.000000
     7  H    1.093893   0.000000
     8  H    1.096509   1.789618   0.000000
     9  H    1.093688   1.788188   1.796167   0.000000
    10  O    2.343912   2.726854   2.462634   3.273327   0.000000
    11  C    4.294016   5.199992   4.755383   3.793830   4.738403
    12  H    4.925541   5.814590   5.362956   4.608734   4.869056
    13  H    4.829162   5.629110   5.415224   4.155851   5.551679
    14  H    4.449755   5.457123   4.682421   3.914405   5.015851
    15  C    3.611948   3.950446   3.792669   4.442498   1.351481
    16  C    4.674099   4.933937   4.575445   5.614589   2.352305
    17  H    4.843604   5.274805   4.535163   5.734594   2.676086
    18  H    4.681627   4.736242   4.521730   5.718164   2.551205
    19  H    5.613403   5.844380   5.605905   6.514763   3.271219
    20  O    4.122573   4.497197   4.523676   4.755684   2.241653
                   11         12         13         14         15
    11  C    0.000000
    12  H    1.088490   0.000000
    13  H    1.085548   1.789340   0.000000
    14  H    1.088683   1.774095   1.789802   0.000000
    15  C    5.051579   4.887981   5.899528   5.449088   0.000000
    16  C    6.345095   6.116482   7.264161   6.609668   1.498929
    17  H    6.290589   6.060999   7.288969   6.384056   2.111510
    18  H    7.042972   6.936579   7.922968   7.291393   2.136345
    19  H    6.866390   6.487187   7.764391   7.213078   2.124741
    20  O    4.621798   4.285436   5.390934   5.204415   1.198195
                   16         17         18         19         20
    16  C    0.000000
    17  H    1.090756   0.000000
    18  H    1.088239   1.761743   0.000000
    19  H    1.085367   1.780167   1.791357   0.000000
    20  O    2.404565   3.006651   3.170204   2.573583   0.000000
 Symmetry turned off by external request.
 Stoichiometry    C6H10O4
 Framework group  C1[X(C6H10O4)]
 Deg. of freedom    54
 Full point group                 C1      NOp   1
 Rotational constants (GHZ):           2.2867245           0.8997283           0.7448180
 Standard basis: def2TZVP (5D, 7F)
   370 basis functions,   590 primitive gaussians,   420 cartesian basis functions
    39 alpha electrons       39 beta electrons
       nuclear repulsion energy       572.7111957000 Hartrees.
 NAtoms=   20 NActive=   20 NUniq=   20 SFac= 1.00D+00 NAtFMM=   60 NAOKFM=F Big=F
 Integral buffers will be    131072 words long.
 Raffenetti 2 integral format.
 Two-electron integral symmetry is turned off.
 One-electron integrals computed using PRISM.
   1 Symmetry operations used in ECPInt.
 ECPInt:  NShTT=   11325 NPrTT=   34180 LenC2=   10816 LenP2D=   25056.
 LDataN:  DoStor=T MaxTD1= 6 Len=  172
 NBasis=   370 RedAO= T EigKep=  1.39D-04  NBF=   370
 NBsUse=   370 1.00D-06 EigRej= -1.00D+00 NBFU=   370
 Initial guess from the checkpoint file:  "/oasis/scratch/comet/mayes/temp_project/lme2acetoxprpnt_ts3_ircf_opt.chk"
 B after Tr=     0.009886    0.008921    0.007627
         Rot=    0.999986   -0.004310    0.002917   -0.001031 Ang=  -0.61 deg.
 ExpMin= 9.52D-02 ExpMax= 2.70D+04 ExpMxC= 9.22D+02 IAcc=3 IRadAn=         5 AccDes= 0.00D+00
 Harris functional with IExCor= 1009 and IRadAn=       5 diagonalized for initial guess.
 HarFok:  IExCor= 1009 AccDes= 0.00D+00 IRadAn=         5 IDoV= 1 UseB2=F ITyADJ=14
 ICtDFT=  3500011 ScaDFX=  1.000000  1.000000  1.000000  1.000000
 FoFCou: FMM=F IPFlag=           0 FMFlag=      100000 FMFlg1=           0
         NFxFlg=           0 DoJE=T BraDBF=F KetDBF=T FulRan=T
         wScrn=  0.000000 ICntrl=       500 IOpCl=  0 I1Cent=   200000004 NGrid=           0
         NMat0=    1 NMatS0=      1 NMatT0=    0 NMatD0=    1 NMtDS0=    0 NMtDT0=    0
 Symmetry not used in FoFCou.
 Requested convergence on RMS density matrix=1.00D-08 within  32 cycles.
 Requested convergence on MAX density matrix=1.00D-06.
 Requested convergence on             energy=1.00D-06.
 No special actions if energy rises.
 Integral accuracy reduced to 1.0D-05 until final iterations.
 Initial convergence to 1.0D-05 achieved.  Increase integral accuracy.
 SCF Done:  E(RM062X) =  -535.574910636     A.U. after   12 cycles
            NFock= 12  Conv=0.82D-08     -V/T= 2.0044
 QCSCF skips out because SCF is already converged.
   1 Symmetry operations used in ECPInt.
 ECPInt:  NShTT=   11325 NPrTT=   34180 LenC2=   10816 LenP2D=   25056.
 LDataN:  DoStor=T MaxTD1= 7 Len=  274
 Calling FoFJK, ICntrl=      2127 FMM=F ISym2X=0 I1Cent= 0 IOpClX= 0 NMat=1 NMatS=1 NMatT=0.
 -------------------------------------------------------------------
 Center     Atomic                   Forces (Hartrees/Bohr)
 Number     Number              X              Y              Z
 -------------------------------------------------------------------
      1        6           0.016556160   -0.002887874   -0.011542684
      2        8          -0.006419351    0.003484981    0.004979050
      3        8          -0.002682056    0.001996503    0.004049829
      4        6           0.006955745   -0.000162008    0.004669872
      5        1           0.003442438   -0.004094622   -0.000515481
      6        6          -0.010834009   -0.002097769    0.002251741
      7        1          -0.000160771    0.002414101    0.004232174
      8        1          -0.001913117    0.002256437   -0.004526792
      9        1          -0.002001688   -0.004890747    0.001476547
     10        8          -0.001816424    0.000430601   -0.005706476
     11        6           0.000471314   -0.000737692    0.000617212
     12        1           0.000206231   -0.000229563   -0.000076893
     13        1           0.000136957    0.000154137    0.000254985
     14        1          -0.000016104    0.000344325    0.000160647
     15        6           0.002679842    0.009890876    0.003182688
     16        6          -0.001484640   -0.001893806   -0.001181023
     17        1          -0.000408107    0.000419218   -0.000376910
     18        1           0.000354247   -0.000535005    0.000204319
     19        1          -0.000258205   -0.000015979   -0.000131358
     20        8          -0.002808463   -0.003846115   -0.002021449
 -------------------------------------------------------------------
 Cartesian Forces:  Max     0.016556160 RMS     0.004119320

 GradGradGradGradGradGradGradGradGradGradGradGradGradGradGradGradGradGrad
 Berny optimization.
 Using GEDIIS/GDIIS optimizer.
 FormGI is forming the generalized inverse of G from B-inverse, IUseBI=4.
 Internal  Forces:  Max     0.014846228 RMS     0.003230895
 Search for a local minimum.
 Step number   3 out of a maximum of   92
 .... (shortened for test) ....
 Step number  12 out of a maximum of   92
 All quantities printed in internal units (Hartrees-Bohrs-Radians)
 Mixed Optimization -- En-DIIS/RFO-DIIS
 Swapping is turned off.
 Update second derivatives using D2CorX and points    5    6    7    8    9
                                                     10   11   12
 DE= -3.33D-07 DEPred=-3.25D-07 R= 1.03D+00
 Trust test= 1.03D+00 RLast= 1.55D-02 DXMaxT set to 2.12D-01
 ITU=  0  1  1  1  1 -1  1  0  1 -1  1  0
     Eigenvalues ---    0.00133   0.00264   0.00790   0.01310   0.01706
     Eigenvalues ---    0.02520   0.03121   0.04670   0.05116   0.05304
     Eigenvalues ---    0.05709   0.05763   0.06211   0.07475   0.07735
     Eigenvalues ---    0.08218   0.10296   0.10663   0.15916   0.15956
     Eigenvalues ---    0.15999   0.16001   0.16013   0.16040   0.16079
     Eigenvalues ---    0.16139   0.16815   0.18064   0.19749   0.23664
     Eigenvalues ---    0.24979   0.25058   0.25136   0.25402   0.30186
     Eigenvalues ---    0.32046   0.32566   0.32655   0.34569   0.34758
     Eigenvalues ---    0.34911   0.34934   0.34968   0.34971   0.35014
     Eigenvalues ---    0.35109   0.35350   0.35376   0.41370   0.45363
     Eigenvalues ---    0.56996   0.58751   1.06006   1.06580
 En-DIIS/RFO-DIIS/Sim-DIIS IScMMF=       -3 using points:    12   11   10    9    8    7    6    5
 RFO step:  Lambda=-1.44167510D-07.
 DidBck=F Rises=F RFO-DIIS coefs:    1.38847   -0.15406   -0.42505    0.02733    0.06088
                  RFO-DIIS coefs:    0.02625    0.04186    0.03433
 Iteration  1 RMS(Cart)=  0.00093848 RMS(Int)=  0.00000242
 Iteration  2 RMS(Cart)=  0.00000049 RMS(Int)=  0.00000240
 Variable       Old X    -DE/DX   Delta X   Delta X   Delta X     New X
                                 (Linear)    (Quad)   (Total)
    R1        2.26106   0.00006   0.00007   0.00002   0.00009   2.26114
...
   D31       -0.19716   0.00000   0.00012   0.00034   0.00045  -0.19671
         Item               Value     Threshold  Converged?
 Maximum Force            0.000086     0.000450     YES
 RMS     Force            0.000019     0.000300     YES
 Maximum Displacement     0.003104     0.001800     NO 
 RMS     Displacement     0.000938     0.001200     YES
 Predicted change in Energy=-5.825806D-08
 GradGradGradGradGradGradGradGradGradGradGradGradGradGradGradGradGradGrad

                          Input orientation:                          
 ---------------------------------------------------------------------
 Center     Atomic      Atomic             Coordinates (Angstroms)
 Number     Number       Type             X           Y           Z
 ---------------------------------------------------------------------
      1          6           0       -0.386165    0.919577    0.200972
      2          8           0        0.473587    1.147259    1.001414
      3          8           0       -1.033496    1.852008   -0.500367
      4          6           0       -0.936347   -0.463244   -0.118306
      5          1           0       -1.058477   -0.536737   -1.199463
      6          6           0       -2.249725   -0.692033    0.605692
      7          1           0       -2.624883   -1.688626    0.379281
      8          1           0       -2.101422   -0.607702    1.682093
      9          1           0       -2.983381    0.045631    0.284677
     10          8           0       -0.020571   -1.445630    0.335077
     11          6           0       -0.616926    3.195582   -0.254906
     12          1           0        0.437817    3.308811   -0.499518
     13          1           0       -1.229935    3.819442   -0.897639
     14          1           0       -0.769818    3.452526    0.792190
     15          6           0        1.169026   -1.465374   -0.303144
     16          6           0        2.114750   -2.429496    0.344508
     17          1           0        2.420683   -2.012166    1.304526
     18          1           0        1.617524   -3.378770    0.535038
     19          1           0        2.983618   -2.566802   -0.291071
     20          8           0        1.405367   -0.778825   -1.256290
 ---------------------------------------------------------------------
                    Distance matrix (angstroms):
                    1          2          3          4          5
     1  C    0.000000
     2  O    1.196546   0.000000
     3  O    1.334295   2.241276   0.000000
     4  C    1.522114   2.415659   2.348575   0.000000
     5  H    2.129335   3.166531   2.489068   1.090512   0.000000
     6  C    2.496785   3.309988   3.028981   1.517062   2.168357
     7  H    3.441856   4.246152   3.980250   2.144833   2.504578
...
    20  O    2.406345   3.018241   3.164425   2.572817   0.000000
 Symmetry turned off by external request.
 Stoichiometry    C6H10O4
 Framework group  C1[X(C6H10O4)]
 Deg. of freedom    54
 Full point group                 C1      NOp   1
 Rotational constants (GHZ):           2.2389990           0.9076186           0.7567702
 Standard basis: def2TZVP (5D, 7F)
   370 basis functions,   590 primitive gaussians,   420 cartesian basis functions
    39 alpha electrons       39 beta electrons
       nuclear repulsion energy       573.2323265755 Hartrees.
 NAtoms=   20 NActive=   20 NUniq=   20 SFac= 1.00D+00 NAtFMM=   60 NAOKFM=F Big=F
 Integral buffers will be    131072 words long.
 Raffenetti 2 integral format.
 Two-electron integral symmetry is turned off.
 One-electron integrals computed using PRISM.
   1 Symmetry operations used in ECPInt.
 ECPInt:  NShTT=   11325 NPrTT=   34180 LenC2=   10826 LenP2D=   25080.
 LDataN:  DoStor=T MaxTD1= 6 Len=  172
 NBasis=   370 RedAO= T EigKep=  1.44D-04  NBF=   370
 NBsUse=   370 1.00D-06 EigRej= -1.00D+00 NBFU=   370
 Initial guess from the checkpoint file:  "/oasis/scratch/comet/mayes/temp_project/lme2acetoxprpnt_ts3_ircf_opt.chk"
 B after Tr=     0.000047    0.000432    0.000442
         Rot=    1.000000    0.000007    0.000063   -0.000033 Ang=   0.01 deg.
 Requested convergence on RMS density matrix=1.00D-08 within  32 cycles.
 Requested convergence on MAX density matrix=1.00D-06.
 Requested convergence on             energy=1.00D-06.
 No special actions if energy rises.
 SCF Done:  E(RM062X) =  -535.578433967     A.U. after    8 cycles
            NFock=  8  Conv=0.35D-08     -V/T= 2.0044
 QCSCF skips out because SCF is already converged.
   1 Symmetry operations used in ECPInt.
 ECPInt:  NShTT=   11325 NPrTT=   34180 LenC2=   10826 LenP2D=   25080.
 LDataN:  DoStor=T MaxTD1= 7 Len=  274
 Calling FoFJK, ICntrl=      2127 FMM=F ISym2X=0 I1Cent= 0 IOpClX= 0 NMat=1 NMatS=1 NMatT=0.
 -------------------------------------------------------------------
 Center     Atomic                   Forces (Hartrees/Bohr)
 Number     Number              X              Y              Z
 -------------------------------------------------------------------
      1        6           0.000002078    0.000004575    0.000001980
      2        8          -0.000002263   -0.000005650   -0.000002996
      3        8           0.000000709   -0.000014891   -0.000001631
      4        6          -0.000010281    0.000003321   -0.000002545
      5        1           0.000004539    0.000003007   -0.000000099
      6        6           0.000009551    0.000000240   -0.000010783
      7        1           0.000001177   -0.000000961    0.000000112
      8        1          -0.000001176    0.000001013    0.000002189
      9        1          -0.000001618   -0.000000229    0.000001631
     10        8           0.000038834    0.000002238   -0.000009102
     11        6          -0.000000473    0.000010708    0.000001658
     12        1          -0.000001501   -0.000000975   -0.000000095
     13        1          -0.000001117   -0.000001291    0.000000321
     14        1           0.000000007   -0.000001765    0.000000110
     15        6          -0.000042557   -0.000006767    0.000025994
     16        6           0.000008627    0.000004369    0.000003679
     17        1          -0.000001133   -0.000004303    0.000002034
     18        1           0.000000660   -0.000002871   -0.000002617
     19        1          -0.000001757    0.000003468    0.000000132
     20        8          -0.000002306    0.000006765   -0.000009970
 -------------------------------------------------------------------
 Cartesian Forces:  Max     0.000042557 RMS     0.000009348

 GradGradGradGradGradGradGradGradGradGradGradGradGradGradGradGradGradGrad
 Berny optimization.
 Using GEDIIS/GDIIS optimizer.
 FormGI is forming the generalized inverse of G from B-inverse, IUseBI=4.
 Internal  Forces:  Max     0.000044696 RMS     0.000006641
 Search for a local minimum.
 Step number  13 out of a maximum of   92
 All quantities printed in internal units (Hartrees-Bohrs-Radians)
 Mixed Optimization -- En-DIIS/RFO-DIIS
 Swapping is turned off.
 Update second derivatives using D2CorX and points    5    6    7    8    9
                                                     10   11   12   13
 DE= -1.04D-07 DEPred=-5.83D-08 R= 1.79D+00
 Trust test= 1.79D+00 RLast= 4.61D-03 DXMaxT set to 2.12D-01
 ITU=  0  0  1  1  1  1 -1  1  0  1 -1  1  0
     Eigenvalues ---    0.00146   0.00277   0.00735   0.01278   0.01402
     Eigenvalues ---    0.02521   0.03152   0.04675   0.05140   0.05436
     Eigenvalues ---    0.05717   0.05758   0.06188   0.07471   0.07734
     Eigenvalues ---    0.08095   0.10294   0.10661   0.15812   0.15941
     Eigenvalues ---    0.15950   0.16001   0.16007   0.16045   0.16057
     Eigenvalues ---    0.16133   0.16665   0.18402   0.19527   0.23724
     Eigenvalues ---    0.24525   0.24986   0.25325   0.25544   0.30481
     Eigenvalues ---    0.31473   0.32616   0.32820   0.34644   0.34756
     Eigenvalues ---    0.34912   0.34928   0.34964   0.35010   0.35040
     Eigenvalues ---    0.35148   0.35344   0.35385   0.40585   0.42688
     Eigenvalues ---    0.55779   0.58867   1.05022   1.06679
 En-DIIS/RFO-DIIS/Sim-DIIS IScMMF=       -3 using points:    13   12   11   10    9    8    7    6    5
 RFO step:  Lambda=-2.14126376D-08.
 DIIS inversion failure, remove point   9.
 DIIS inversion failure, remove point   8.
 DIIS inversion failure, remove point   7.
 RFO-DIIS uses    6 points instead of    9
 DidBck=F Rises=F RFO-DIIS coefs:    1.21130   -0.09466   -0.19367    0.06163    0.03044
                  RFO-DIIS coefs:   -0.01504    0.00000    0.00000    0.00000
 Iteration  1 RMS(Cart)=  0.00023790 RMS(Int)=  0.00000005
 Iteration  2 RMS(Cart)=  0.00000005 RMS(Int)=  0.00000002
 Variable       Old X    -DE/DX   Delta X   Delta X   Delta X     New X
                                 (Linear)    (Quad)   (Total)
    R1        2.26114  -0.00000   0.00003  -0.00002   0.00001   2.26115
    R2        2.52145  -0.00001  -0.00008   0.00003  -0.00004   2.52141
    R3        2.87638  -0.00001   0.00003  -0.00005  -0.00002   2.87636
    R4        2.69839   0.00001   0.00002   0.00001   0.00003   2.69841
    R5        2.06077  -0.00000  -0.00000  -0.00000  -0.00001   2.06076
    R6        2.86683  -0.00001  -0.00009   0.00004  -0.00005   2.86679
    R7        2.67867   0.00000   0.00008  -0.00003   0.00005   2.67873
    R8        2.05729  -0.00000   0.00001  -0.00001   0.00000   2.05729
    R9        2.05949   0.00000   0.00000   0.00000   0.00000   2.05950
   R10        2.05750   0.00000   0.00002  -0.00001   0.00001   2.05751
   R11        2.55138  -0.00004  -0.00006  -0.00005  -0.00011   2.55127
   R12        2.05723  -0.00000  -0.00000  -0.00000  -0.00000   2.05723
   R13        2.05110  -0.00000  -0.00000   0.00000  -0.00000   2.05110
   R14        2.05781  -0.00000  -0.00001   0.00000  -0.00000   2.05781
   R15        2.83042   0.00000   0.00002   0.00000   0.00003   2.83044
   R16        2.26428   0.00001   0.00002   0.00000   0.00002   2.26430
   R17        2.06092  -0.00000  -0.00000  -0.00000  -0.00000   2.06092
   R18        2.05682   0.00000  -0.00000   0.00001   0.00001   2.05682
   R19        2.05081  -0.00000   0.00000  -0.00001  -0.00001   2.05080
    A1        2.17395   0.00001  -0.00001   0.00006   0.00005   2.17400
    A2        2.18085  -0.00000  -0.00000  -0.00002  -0.00002   2.18083
    A3        1.92757  -0.00001   0.00001  -0.00004  -0.00003   1.92754
    A4        2.01048   0.00000   0.00002   0.00000   0.00003   2.01050
    A5        1.88564  -0.00000  -0.00003  -0.00001  -0.00004   1.88560
    A6        1.92819   0.00000   0.00007  -0.00004   0.00003   1.92822
    A7        1.90605  -0.00000   0.00000  -0.00003  -0.00002   1.90603
    A8        1.94553   0.00000   0.00004   0.00001   0.00005   1.94558
    A9        1.92064   0.00000  -0.00001  -0.00001  -0.00002   1.92062
   A10        1.87774   0.00000  -0.00007   0.00008   0.00001   1.87775
   A11        1.91467  -0.00000  -0.00000  -0.00000  -0.00001   1.91467
   A12        1.91971   0.00000   0.00003  -0.00002   0.00001   1.91972
   A13        1.91822   0.00000  -0.00006   0.00009   0.00003   1.91825
   A14        1.89984  -0.00000   0.00004  -0.00003   0.00001   1.89984
   A15        1.90359  -0.00000  -0.00001   0.00000  -0.00001   1.90359
   A16        1.90760  -0.00000   0.00001  -0.00004  -0.00003   1.90757
   A17        2.01327  -0.00002  -0.00001  -0.00006  -0.00007   2.01319
   A18        1.91972  -0.00000  -0.00002   0.00000  -0.00002   1.91970
   A19        1.84862  -0.00000  -0.00001  -0.00000  -0.00001   1.84861
   A20        1.92448  -0.00000  -0.00001  -0.00000  -0.00001   1.92446
   A21        1.93302   0.00000   0.00001   0.00000   0.00001   1.93303
   A22        1.90450   0.00000   0.00001  -0.00000   0.00001   1.90451
   A23        1.93316   0.00000   0.00002   0.00000   0.00002   1.93318
   A24        1.94051   0.00001  -0.00001   0.00006   0.00005   1.94056
   A25        2.14295  -0.00001   0.00004  -0.00006  -0.00003   2.14292
   A26        2.19969  -0.00000  -0.00003   0.00000  -0.00002   2.19967
   A27        1.88750   0.00001   0.00003   0.00004   0.00007   1.88757
   A28        1.92692  -0.00000  -0.00001  -0.00001  -0.00002   1.92691
   A29        1.91105  -0.00001   0.00000  -0.00004  -0.00004   1.91101
   A30        1.88368  -0.00000  -0.00001   0.00000  -0.00001   1.88367
   A31        1.91704   0.00000  -0.00001   0.00002   0.00001   1.91705
   A32        1.93684   0.00000  -0.00000  -0.00001  -0.00002   1.93682
    D1        0.01795  -0.00000   0.00004  -0.00006  -0.00002   0.01793
    D2        3.11785  -0.00000   0.00000  -0.00005  -0.00004   3.11781
    D3       -2.40846   0.00000  -0.00009   0.00008  -0.00001  -2.40846
    D4        1.74235   0.00000  -0.00016   0.00010  -0.00006   1.74229
    D5       -0.31961  -0.00000  -0.00011   0.00004  -0.00007  -0.31968
    D6        0.77503   0.00000  -0.00005   0.00006   0.00001   0.77505
    D7       -1.35734   0.00000  -0.00012   0.00008  -0.00004  -1.35738
    D8        2.86388  -0.00000  -0.00007   0.00002  -0.00005   2.86383
    D9        1.04774   0.00000   0.00009   0.00008   0.00016   1.04791
   D10        3.13738   0.00000   0.00008   0.00008   0.00016   3.13754
   D11       -1.05344   0.00000   0.00009   0.00008   0.00018  -1.05327
   D12       -3.12843   0.00000  -0.00005   0.00006   0.00001  -3.12842
   D13       -1.03921   0.00000   0.00002   0.00001   0.00002  -1.03919
   D14        1.06183   0.00000   0.00001   0.00000   0.00001   1.06184
   D15        1.05796   0.00000  -0.00009   0.00010   0.00001   1.05797
   D16       -3.13601   0.00000  -0.00002   0.00004   0.00002  -3.13598
   D17       -1.03497   0.00000  -0.00003   0.00004   0.00001  -1.03496
   D18       -1.04923  -0.00000  -0.00005   0.00005   0.00000  -1.04923
   D19        1.03999  -0.00000   0.00001  -0.00000   0.00001   1.04000
   D20        3.14103  -0.00000   0.00000  -0.00000   0.00000   3.14103
   D21       -1.15216   0.00000  -0.00021   0.00008  -0.00013  -1.15229
   D22        0.91495  -0.00000  -0.00025   0.00005  -0.00021   0.91474
   D23        3.03772  -0.00000  -0.00025   0.00010  -0.00015   3.03757
   D24        3.03245   0.00000   0.00043  -0.00015   0.00028   3.03274
   D25       -0.10050   0.00000   0.00032  -0.00006   0.00025  -0.10025
   D26       -1.24084   0.00000   0.00006   0.00038   0.00043  -1.24041
   D27        0.81642   0.00000   0.00006   0.00040   0.00046   0.81688
   D28        2.95386   0.00000   0.00005   0.00035   0.00040   2.95426
   D29        1.89177   0.00000   0.00018   0.00029   0.00046   1.89223
   D30       -2.33415   0.00000   0.00018   0.00031   0.00048  -2.33366
   D31       -0.19671   0.00000   0.00017   0.00026   0.00043  -0.19628
         Item               Value     Threshold  Converged?
 Maximum Force            0.000045     0.000450     YES
 RMS     Force            0.000007     0.000300     YES
 Maximum Displacement     0.001107     0.001800     YES
 RMS     Displacement     0.000238     0.001200     YES
 Predicted change in Energy=-1.062496D-08
 Optimization completed.
    -- Stationary point found.
                           ----------------------------
                           !   Optimized Parameters   !
                           ! (Angstroms and Degrees)  !
 --------------------------                            --------------------------
 ! Name  Definition              Value          Derivative Info.                !
 --------------------------------------------------------------------------------
 ! R1    R(1,2)                  1.1965         -DE/DX =    0.0                 !
 ! R2    R(1,3)                  1.3343         -DE/DX =    0.0                 !
 ! R3    R(1,4)                  1.5221         -DE/DX =    0.0                 !
 ! R4    R(3,11)                 1.4279         -DE/DX =    0.0                 !
 ! R5    R(4,5)                  1.0905         -DE/DX =    0.0                 !
 ! R6    R(4,6)                  1.5171         -DE/DX =    0.0                 !
 ! R7    R(4,10)                 1.4175         -DE/DX =    0.0                 !
 ! R8    R(6,7)                  1.0887         -DE/DX =    0.0                 !
 ! R9    R(6,8)                  1.0898         -DE/DX =    0.0                 !
 ! R10   R(6,9)                  1.0888         -DE/DX =    0.0                 !
 ! R11   R(10,15)                1.3501         -DE/DX =    0.0                 !
 ! R12   R(11,12)                1.0886         -DE/DX =    0.0                 !
 ! R13   R(11,13)                1.0854         -DE/DX =    0.0                 !
 ! R14   R(11,14)                1.0889         -DE/DX =    0.0                 !
 ! R15   R(15,16)                1.4978         -DE/DX =    0.0                 !
 ! R16   R(15,20)                1.1982         -DE/DX =    0.0                 !
 ! R17   R(16,17)                1.0906         -DE/DX =    0.0                 !
 ! R18   R(16,18)                1.0884         -DE/DX =    0.0                 !
 ! R19   R(16,19)                1.0852         -DE/DX =    0.0                 !
 ! A1    A(2,1,3)              124.5581         -DE/DX =    0.0                 !
 ! A2    A(2,1,4)              124.9533         -DE/DX =    0.0                 !
 ! A3    A(3,1,4)              110.4416         -DE/DX =    0.0                 !
 ! A4    A(1,3,11)             115.1918         -DE/DX =    0.0                 !
 ! A5    A(1,4,5)              108.0391         -DE/DX =    0.0                 !
 ! A6    A(1,4,6)              110.4771         -DE/DX =    0.0                 !
 ! A7    A(1,4,10)             109.2086         -DE/DX =    0.0                 !
 ! A8    A(5,4,6)              111.4705         -DE/DX =    0.0                 !
 ! A9    A(5,4,10)             110.0446         -DE/DX =    0.0                 !
 ! A10   A(6,4,10)             107.5869         -DE/DX =    0.0                 !
 ! A11   A(4,6,7)              109.7027         -DE/DX =    0.0                 !
 ! A12   A(4,6,8)              109.9912         -DE/DX =    0.0                 !
 ! A13   A(4,6,9)              109.9059         -DE/DX =    0.0                 !
 ! A14   A(7,6,8)              108.8525         -DE/DX =    0.0                 !
 ! A15   A(7,6,9)              109.0679         -DE/DX =    0.0                 !
 ! A16   A(8,6,9)              109.2974         -DE/DX =    0.0                 !
 ! A17   A(4,10,15)            115.3518         -DE/DX =    0.0                 !
 ! A18   A(3,11,12)            109.9919         -DE/DX =    0.0                 !
 ! A19   A(3,11,13)            105.9183         -DE/DX =    0.0                 !
 ! A20   A(3,11,14)            110.2643         -DE/DX =    0.0                 !
 ! A21   A(12,11,13)           110.7539         -DE/DX =    0.0                 !
 ! A22   A(12,11,14)           109.1201         -DE/DX =    0.0                 !
 ! A23   A(13,11,14)           110.7619         -DE/DX =    0.0                 !
 ! A24   A(10,15,16)           111.1829         -DE/DX =    0.0                 !
 ! A25   A(10,15,20)           122.782          -DE/DX =    0.0                 !
 ! A26   A(16,15,20)           126.033          -DE/DX =    0.0                 !
 ! A27   A(15,16,17)           108.146          -DE/DX =    0.0                 !
 ! A28   A(15,16,18)           110.4046         -DE/DX =    0.0                 !
 ! A29   A(15,16,19)           109.4949         -DE/DX =    0.0                 !
 ! A30   A(17,16,18)           107.9267         -DE/DX =    0.0                 !
 ! A31   A(17,16,19)           109.8381         -DE/DX =    0.0                 !
 ! A32   A(18,16,19)           110.9728         -DE/DX =    0.0                 !
 ! D1    D(2,1,3,11)             1.0287         -DE/DX =    0.0                 !
 ! D2    D(4,1,3,11)           178.6396         -DE/DX =    0.0                 !
 ! D3    D(2,1,4,5)           -137.9944         -DE/DX =    0.0                 !
 ! D4    D(2,1,4,6)             99.8293         -DE/DX =    0.0                 !
 ! D5    D(2,1,4,10)           -18.3122         -DE/DX =    0.0                 !
 ! D6    D(3,1,4,5)             44.4062         -DE/DX =    0.0                 !
 ! D7    D(3,1,4,6)            -77.77           -DE/DX =    0.0                 !
 ! D8    D(3,1,4,10)           164.0884         -DE/DX =    0.0                 !
 ! D9    D(1,3,11,12)           60.0313         -DE/DX =    0.0                 !
 ! D10   D(1,3,11,13)          179.7586         -DE/DX =    0.0                 !
 ! D11   D(1,3,11,14)          -60.3577         -DE/DX =    0.0                 !
 ! D12   D(1,4,6,7)           -179.2459         -DE/DX =    0.0                 !
 ! D13   D(1,4,6,8)            -59.5424         -DE/DX =    0.0                 !
 ! D14   D(1,4,6,9)             60.8382         -DE/DX =    0.0                 !
 ! D15   D(5,4,6,7)             60.6165         -DE/DX =    0.0                 !
 ! D16   D(5,4,6,8)           -179.6799         -DE/DX =    0.0                 !
 ! D17   D(5,4,6,9)            -59.2993         -DE/DX =    0.0                 !
 ! D18   D(10,4,6,7)           -60.1164         -DE/DX =    0.0                 !
 ! D19   D(10,4,6,8)            59.5871         -DE/DX =    0.0                 !
 ! D20   D(10,4,6,9)           179.9677         -DE/DX =    0.0                 !
 ! D21   D(1,4,10,15)          -66.014          -DE/DX =    0.0                 !
 ! D22   D(5,4,10,15)           52.4225         -DE/DX =    0.0                 !
 ! D23   D(6,4,10,15)          174.0486         -DE/DX =    0.0                 !
 ! D24   D(4,10,15,16)         173.7468         -DE/DX =    0.0                 !
 ! D25   D(4,10,15,20)          -5.7583         -DE/DX =    0.0                 !
 ! D26   D(10,15,16,17)        -71.095          -DE/DX =    0.0                 !
 ! D27   D(10,15,16,18)         46.7777         -DE/DX =    0.0                 !
 ! D28   D(10,15,16,19)        169.2439         -DE/DX =    0.0                 !
 ! D29   D(20,15,16,17)        108.3905         -DE/DX =    0.0                 !
 ! D30   D(20,15,16,18)       -133.7368         -DE/DX =    0.0                 !
 ! D31   D(20,15,16,19)        -11.2706         -DE/DX =    0.0                 !
 --------------------------------------------------------------------------------
 GradGradGradGradGradGradGradGradGradGradGradGradGradGradGradGradGradGrad

                          Input orientation:                          
 ---------------------------------------------------------------------
 Center     Atomic      Atomic             Coordinates (Angstroms)
 Number     Number       Type             X           Y           Z
 ---------------------------------------------------------------------
      1          6           0       -0.386165    0.919577    0.200972
      2          8           0        0.473587    1.147259    1.001414
      3          8           0       -1.033496    1.852008   -0.500367
      4          6           0       -0.936347   -0.463244   -0.118306
      5          1           0       -1.058477   -0.536737   -1.199463
      6          6           0       -2.249725   -0.692033    0.605692
      7          1           0       -2.624883   -1.688626    0.379281
      8          1           0       -2.101422   -0.607702    1.682093
      9          1           0       -2.983381    0.045631    0.284677
     10          8           0       -0.020571   -1.445630    0.335077
     11          6           0       -0.616926    3.195582   -0.254906
     12          1           0        0.437817    3.308811   -0.499518
     13          1           0       -1.229935    3.819442   -0.897639
     14          1           0       -0.769818    3.452526    0.792190
     15          6           0        1.169026   -1.465374   -0.303144
     16          6           0        2.114750   -2.429496    0.344508
     17          1           0        2.420683   -2.012166    1.304526
     18          1           0        1.617524   -3.378770    0.535038
     19          1           0        2.983618   -2.566802   -0.291071
     20          8           0        1.405367   -0.778825   -1.256290
 ---------------------------------------------------------------------
                    Distance matrix (angstroms):
                    1          2          3          4          5
     1  C    0.000000
     2  O    1.196546   0.000000
     3  O    1.334295   2.241276   0.000000
     4  C    1.522114   2.415659   2.348575   0.000000
     5  H    2.129335   3.166531   2.489068   1.090512   0.000000
     6  C    2.496785   3.309988   3.028981   1.517062   2.168357
     7  H    3.441856   4.246152   3.980250   2.144833   2.504578
     8  H    2.732838   3.189653   3.457423   2.149349   3.065311
     9  H    2.741590   3.698368   2.771524   2.147486   2.499415
    10  O    2.397049   2.722364   3.549423   1.417492   2.063528
    11  C    2.332654   2.638785   1.427925   3.675282   3.875223
    12  H    2.622608   2.631802   2.070516   4.032623   4.185338
    13  H    3.213738   3.694449   2.016732   4.362907   4.369988
    14  H    2.629174   2.627563   2.074099   4.023678   4.468134
    15  C    2.891495   3.001892   3.986857   2.339022   2.574398
    16  C    4.182280   3.989751   5.381129   3.659172   4.004467
    17  H    4.206108   3.723576   5.488245   3.961472   4.533366
    18  H    4.754173   4.691592   5.954915   3.930574   4.271608
    19  H    4.873642   4.665299   5.975525   4.452070   4.613553
    20  O    2.866665   3.110505   3.666164   2.622637   2.476361
                    6          7          8          9         10
     6  C    0.000000
     7  H    1.088670   0.000000
     8  H    1.089837   1.771927   0.000000
     9  H    1.088783   1.773448   1.776926   0.000000
    10  O    2.368601   2.615998   2.616585   3.317324   0.000000
    11  C    4.303511   5.318794   4.518922   3.976613   4.716414
    12  H    4.944807   5.926786   5.152303   4.792484   4.848853
    13  H    4.863474   5.823678   5.197510   4.325979   5.541041
    14  H    4.404801   5.481168   4.364693   4.094431   4.976168
    15  C    3.621035   3.861255   3.920791   4.457707   1.350132
    16  C    4.704853   4.797314   4.783741   5.667519   2.351101
    17  H    4.903451   5.139892   4.750212   5.871842   2.687101
    18  H    4.709476   4.569340   4.777564   5.740865   2.541726
    19  H    5.630881   5.716279   5.795609   6.539217   3.267145
    20  O    4.102951   4.443619   4.578313   4.723920   2.238387
                   11         12         13         14         15
    11  C    0.000000
    12  H    1.088641   0.000000
    13  H    1.085397   1.789034   0.000000
    14  H    1.088948   1.774132   1.789373   0.000000
    15  C    4.991639   4.833846   5.834186   5.398575   0.000000
    16  C    6.281946   6.037602   7.195768   6.566531   1.497791
    17  H    6.227321   5.958114   7.223863   6.348593   2.109557
    18  H    6.988482   6.869189   7.872411   7.241004   2.136536
    19  H    6.794872   6.406823   7.675029   7.175935   2.122742
    20  O    4.570377   4.268211   5.312016   5.179964   1.198205
                   16         17         18         19         20
    16  C    0.000000
    17  H    1.090593   0.000000
    18  H    1.088420   1.762040   0.000000
    19  H    1.085239   1.780575   1.791078   0.000000
    20  O    2.406345   3.018241   3.164425   2.572817   0.000000
 Symmetry turned off by external request.
 Stoichiometry    C6H10O4
 Framework group  C1[X(C6H10O4)]
 Deg. of freedom    54
 Full point group                 C1      NOp   1
 Rotational constants (GHZ):           2.2389990           0.9076186           0.7567702

 **********************************************************************

            Population analysis using the SCF Density.

 **********************************************************************

 Alpha  occ. eigenvalues --  -19.67931 -19.67405 -19.62110 -19.61711 -10.67377
 Alpha  occ. eigenvalues --  -10.67376 -10.61590 -10.59411 -10.54501 -10.54497
 Alpha  occ. eigenvalues --   -1.25365  -1.23777  -1.15371  -1.14623  -0.91289
 Alpha  occ. eigenvalues --   -0.84887  -0.82698  -0.74681  -0.69262  -0.64439
 Alpha  occ. eigenvalues --   -0.62077  -0.58599  -0.57879  -0.56846  -0.55586
 Alpha  occ. eigenvalues --   -0.54034  -0.51490  -0.49246  -0.48724  -0.47301
 Alpha  occ. eigenvalues --   -0.46358  -0.45589  -0.45304  -0.43425  -0.42454
 Alpha  occ. eigenvalues --   -0.39558  -0.38314  -0.36001  -0.35476
 Alpha virt. eigenvalues --    0.04365   0.05259   0.07017   0.08653   0.09653
 Alpha virt. eigenvalues --    0.11346   0.12069   0.13306   0.14173   0.14867
 Alpha virt. eigenvalues --    0.15315   0.15438   0.16064   0.16796   0.17798
 Alpha virt. eigenvalues --    0.18954   0.21666   0.21918   0.22538   0.23512
 Alpha virt. eigenvalues --    0.24980   0.26065   0.26655   0.27396   0.29228
 Alpha virt. eigenvalues --    0.30779   0.33241   0.34011   0.34462   0.36119
 Alpha virt. eigenvalues --    0.36669   0.37450   0.39255   0.39796   0.41215
 Alpha virt. eigenvalues --    0.42276   0.42842   0.43715   0.44409   0.45202
 Alpha virt. eigenvalues --    0.45379   0.46261   0.47456   0.48051   0.48815
 Alpha virt. eigenvalues --    0.49577   0.50135   0.50576   0.51388   0.52403
 Alpha virt. eigenvalues --    0.53284   0.54964   0.56783   0.57154   0.59918
 Alpha virt. eigenvalues --    0.60464   0.61915   0.63239   0.64196   0.65781
 Alpha virt. eigenvalues --    0.67669   0.68074   0.70703   0.71183   0.72695
 Alpha virt. eigenvalues --    0.76383   0.78925   0.80782   0.82081   0.83736
 Alpha virt. eigenvalues --    0.85856   0.86687   0.88176   0.89266   0.90440
 Alpha virt. eigenvalues --    0.91161   0.92477   0.94068   0.94969   0.97168
 Alpha virt. eigenvalues --    0.99528   1.00480   1.03154   1.05204   1.05781
 Alpha virt. eigenvalues --    1.07027   1.09472   1.10070   1.11113   1.13646
 Alpha virt. eigenvalues --    1.13782   1.17808   1.19204   1.21838   1.22359
 Alpha virt. eigenvalues --    1.25148   1.28858   1.35368   1.37866   1.40777
 Alpha virt. eigenvalues --    1.43915   1.47618   1.48961   1.50182   1.51561
 Alpha virt. eigenvalues --    1.52608   1.54559   1.55269   1.56202   1.56935
 Alpha virt. eigenvalues --    1.57400   1.58590   1.58843   1.59869   1.61198
 Alpha virt. eigenvalues --    1.62237   1.63141   1.63446   1.64672   1.65602
 Alpha virt. eigenvalues --    1.67669   1.70178   1.72805   1.75879   1.77075
 Alpha virt. eigenvalues --    1.78304   1.79242   1.82797   1.85802   1.86369
 Alpha virt. eigenvalues --    1.88893   1.90526   1.94426   1.95119   1.96077
 Alpha virt. eigenvalues --    1.98453   2.01643   2.04150   2.04998   2.06341
 Alpha virt. eigenvalues --    2.09036   2.10277   2.11855   2.12151   2.13932
 Alpha virt. eigenvalues --    2.14512   2.15467   2.18239   2.20209   2.22508
 Alpha virt. eigenvalues --    2.22980   2.26517   2.28115   2.29510   2.31089
 Alpha virt. eigenvalues --    2.32023   2.34068   2.35687   2.36324   2.37209
 Alpha virt. eigenvalues --    2.37300   2.39670   2.41436   2.43017   2.44860
 Alpha virt. eigenvalues --    2.45790   2.48091   2.48856   2.53044   2.54846
 Alpha virt. eigenvalues --    2.55777   2.56699   2.58342   2.59627   2.60526
 Alpha virt. eigenvalues --    2.60855   2.64711   2.66889   2.68280   2.71158
 Alpha virt. eigenvalues --    2.73203   2.74295   2.77132   2.78447   2.80547
 Alpha virt. eigenvalues --    2.83350   2.83932   2.86923   2.90137   2.93070
 Alpha virt. eigenvalues --    2.96261   2.96792   2.99334   3.01031   3.02088
 Alpha virt. eigenvalues --    3.03920   3.05448   3.05796   3.07482   3.08913
 Alpha virt. eigenvalues --    3.10211   3.11196   3.13792   3.14389   3.15626
 Alpha virt. eigenvalues --    3.19048   3.20333   3.21499   3.22246   3.23421
 Alpha virt. eigenvalues --    3.24808   3.26247   3.27130   3.28262   3.31061
 Alpha virt. eigenvalues --    3.31688   3.32722   3.34833   3.35260   3.36715
 Alpha virt. eigenvalues --    3.38541   3.39920   3.41259   3.42424   3.43811
 Alpha virt. eigenvalues --    3.45125   3.47147   3.47881   3.50390   3.50908
 Alpha virt. eigenvalues --    3.52981   3.54811   3.58029   3.58586   3.60877
 Alpha virt. eigenvalues --    3.62147   3.64839   3.66288   3.71877   3.75533
 Alpha virt. eigenvalues --    3.76476   3.80914   3.83212   3.84386   3.89280
 Alpha virt. eigenvalues --    3.90726   3.91353   3.97057   3.99973   4.00722
 Alpha virt. eigenvalues --    4.06524   4.10654   4.15869   4.17853   4.19656
 Alpha virt. eigenvalues --    4.29975   4.32372   4.37229   4.37656   4.39757
 Alpha virt. eigenvalues --    4.41670   4.44072   4.47694   4.51262   4.54512
 Alpha virt. eigenvalues --    4.55662   4.57041   4.63953   4.70005   4.74936
 Alpha virt. eigenvalues --    4.77841   4.85265   4.90549   5.18850   5.19494
 Alpha virt. eigenvalues --    5.22686   5.25205   5.30215   5.35523   5.42454
 Alpha virt. eigenvalues --    5.47759   5.51605   5.53178   5.64583   5.65361
 Alpha virt. eigenvalues --    5.67678   5.72734   5.81129   5.86940   5.96586
 Alpha virt. eigenvalues --    6.00162   6.02684   6.09335   6.11745   6.19004
 Alpha virt. eigenvalues --    6.20852   6.23974   6.37594   6.39849   6.41141
 Alpha virt. eigenvalues --    6.43021   6.51167   6.54719   6.63831   6.65159
 Alpha virt. eigenvalues --    6.68077   6.69394   6.76376   6.77898   6.82975
 Alpha virt. eigenvalues --    6.83695   6.89584   6.92538   7.00898   7.04202
 Alpha virt. eigenvalues --    7.10828   7.14547   7.25819   7.31029   7.36135
 Alpha virt. eigenvalues --    7.40915  22.43910  22.44388  22.45625  22.72786
 Alpha virt. eigenvalues --   23.40241  23.48082  44.03771  44.07913  44.26235
 Alpha virt. eigenvalues --   44.48492
          Condensed to atoms (all electrons):
               1          2          3          4          5          6
     1  C    4.664379   0.620493   0.342008   0.224148  -0.093512  -0.016007
     2  O    0.620493   7.818371  -0.082884  -0.056929   0.003689  -0.008519
     3  O    0.342008  -0.082884   7.974153  -0.074091   0.008946  -0.008350
     4  C    0.224148  -0.056929  -0.074091   5.144481   0.481393   0.228294
     5  H   -0.093512   0.003689   0.008946   0.481393   0.513263  -0.038138
     6  C   -0.016007  -0.008519  -0.008350   0.228294  -0.038138   5.064986
     7  H    0.012582  -0.000442   0.000015  -0.057976  -0.007533   0.425861
     8  H   -0.013772   0.003750   0.000540  -0.022518   0.007288   0.401610
     9  H   -0.009922   0.000363   0.005873  -0.035065  -0.001764   0.411639
    10  O   -0.049824   0.001502   0.003132   0.214350  -0.035962  -0.037993
    11  C   -0.052567   0.006149   0.206326   0.006412  -0.001037  -0.000910
    12  H   -0.009624   0.003443  -0.033381  -0.001188  -0.000093  -0.000087
    13  H    0.005000   0.001904  -0.030507   0.000751  -0.000274   0.000364
    14  H   -0.006812   0.003734  -0.036795  -0.000248   0.000100  -0.000428
    15  C    0.013496   0.017399   0.000956  -0.075556  -0.012293   0.005133
    16  C    0.001379  -0.002804  -0.000102   0.004874   0.000964   0.000979
    17  H    0.000260   0.001610   0.000018  -0.001082   0.000010  -0.000065
    18  H    0.000203   0.000022  -0.000000  -0.000220  -0.000244  -0.000237
    19  H   -0.000209   0.000056   0.000001  -0.000238   0.000070  -0.000030
    20  O    0.011316  -0.007070  -0.001107   0.003586   0.007579   0.004722
               7          8          9         10         11         12
     1  C    0.012582  -0.013772  -0.009922  -0.049824  -0.052567  -0.009624
     2  O   -0.000442   0.003750   0.000363   0.001502   0.006149   0.003443
     3  O    0.000015   0.000540   0.005873   0.003132   0.206326  -0.033381
     4  C   -0.057976  -0.022518  -0.035065   0.214350   0.006412  -0.001188
     5  H   -0.007533   0.007288  -0.001764  -0.035962  -0.001037  -0.000093
     6  C    0.425861   0.401610   0.411639  -0.037993  -0.000910  -0.000087
     7  H    0.514435  -0.023864  -0.019520   0.003023   0.000086   0.000006
     8  H   -0.023864   0.508685  -0.022367   0.000092  -0.000110  -0.000018
     9  H   -0.019520  -0.022367   0.510246   0.004120  -0.000324   0.000074
    10  O    0.003023   0.000092   0.004120   7.998698  -0.000190  -0.000008
    11  C    0.000086  -0.000110  -0.000324  -0.000190   4.854308   0.424181
    12  H    0.000006  -0.000018   0.000074  -0.000008   0.424181   0.520648
    13  H    0.000003  -0.000034  -0.000146   0.000003   0.395371  -0.024260
    14  H   -0.000011   0.000093   0.000011  -0.000036   0.419179  -0.040428
    15  C   -0.000502  -0.000902   0.000067   0.322779  -0.000107   0.000203
    16  C   -0.000162  -0.000122   0.000042  -0.080564   0.000004   0.000016
    17  H   -0.000008   0.000015  -0.000001   0.001065   0.000001  -0.000001
    18  H    0.000039   0.000004   0.000001   0.005051   0.000001   0.000000
    19  H    0.000001   0.000008  -0.000001   0.005121   0.000000  -0.000000
    20  O   -0.000068  -0.000101   0.000099  -0.090009  -0.000329   0.000181
              13         14         15         16         17         18
     1  C    0.005000  -0.006812   0.013496   0.001379   0.000260   0.000203
     2  O    0.001904   0.003734   0.017399  -0.002804   0.001610   0.000022
     3  O   -0.030507  -0.036795   0.000956  -0.000102   0.000018  -0.000000
     4  C    0.000751  -0.000248  -0.075556   0.004874  -0.001082  -0.000220
     5  H   -0.000274   0.000100  -0.012293   0.000964   0.000010  -0.000244
     6  C    0.000364  -0.000428   0.005133   0.000979  -0.000065  -0.000237
     7  H    0.000003  -0.000011  -0.000502  -0.000162  -0.000008   0.000039
     8  H   -0.000034   0.000093  -0.000902  -0.000122   0.000015   0.000004
     9  H   -0.000146   0.000011   0.000067   0.000042  -0.000001   0.000001
    10  O    0.000003  -0.000036   0.322779  -0.080564   0.001065   0.005051
    11  C    0.395371   0.419179  -0.000107   0.000004   0.000001   0.000001
    12  H   -0.024260  -0.040428   0.000203   0.000016  -0.000001   0.000000
    13  H    0.532143  -0.026068  -0.000028  -0.000000  -0.000000   0.000000
    14  H   -0.026068   0.537058  -0.000037   0.000000  -0.000001  -0.000000
    15  C   -0.000028  -0.000037   4.503728   0.316273  -0.020051  -0.032346
    16  C   -0.000000   0.000000   0.316273   5.090057   0.385955   0.391142
    17  H   -0.000000  -0.000001  -0.020051   0.385955   0.501875  -0.022910
    18  H    0.000000  -0.000000  -0.032346   0.391142  -0.022910   0.522873
    19  H   -0.000000  -0.000000  -0.052628   0.418795  -0.017067  -0.021258
    20  O   -0.000001   0.000035   0.628737  -0.074564   0.000269   0.002447
              19         20
     1  C   -0.000209   0.011316
     2  O    0.000056  -0.007070
     3  O    0.000001  -0.001107
     4  C   -0.000238   0.003586
     5  H    0.000070   0.007579
     6  C   -0.000030   0.004722
     7  H    0.000001  -0.000068
     8  H    0.000008  -0.000101
     9  H   -0.000001   0.000099
    10  O    0.005121  -0.090009
    11  C    0.000000  -0.000329
    12  H   -0.000000   0.000181
    13  H   -0.000000  -0.000001
    14  H   -0.000000   0.000035
    15  C   -0.052628   0.628737
    16  C    0.418795  -0.074564
    17  H   -0.017067   0.000269
    18  H   -0.021258   0.002447
    19  H    0.504920   0.005687
    20  O    0.005687   7.842657
 Mulliken charges:
               1
     1  C    0.356984
     2  O   -0.323838
     3  O   -0.274750
     4  C    0.016819
     5  H    0.167548
     6  C   -0.432826
     7  H    0.154034
     8  H    0.161722
     9  H    0.156575
    10  O   -0.264349
    11  C   -0.256445
    12  H    0.160335
    13  H    0.145779
    14  H    0.150651
    15  C    0.385678
    16  C   -0.452163
    17  H    0.170109
    18  H    0.155431
    19  H    0.156773
    20  O   -0.334069
 Sum of Mulliken charges =  -0.00000
 Mulliken charges with hydrogens summed into heavy atoms:
               1
     1  C    0.356984
     2  O   -0.323838
     3  O   -0.274750
     4  C    0.184367
     6  C    0.039505
    10  O   -0.264349
    11  C    0.200321
    15  C    0.385678
    16  C    0.030150
    20  O   -0.334069
 Electronic spatial extent (au):  <R**2>=           1618.5753
 Charge=              0.0000 electrons
 Dipole moment (field-independent basis, Debye):
    X=             -1.9288    Y=             -0.2624    Z=              0.4148  Tot=              1.9902
 Quadrupole moment (field-independent basis, Debye-Ang):
   XX=            -56.2347   YY=            -47.8691   ZZ=            -63.6183
   XY=             -4.2387   XZ=              1.5767   YZ=             -2.2102
 Traceless Quadrupole moment (field-independent basis, Debye-Ang):
   XX=             -0.3273   YY=              8.0382   ZZ=             -7.7109
   XY=             -4.2387   XZ=              1.5767   YZ=             -2.2102
 Octapole moment (field-independent basis, Debye-Ang**2):
  XXX=              8.3299  YYY=             23.1866  ZZZ=             -1.7495  XYY=              5.6115
  XXY=             -9.1974  XXZ=              4.6891  XZZ=             -3.7130  YZZ=              0.9578
  YYZ=             -6.6408  XYZ=             -5.2920
 Hexadecapole moment (field-independent basis, Debye-Ang**3):
 XXXX=           -698.3167 YYYY=          -1019.5541 ZZZZ=           -216.1739 XXXY=            172.5265
 XXXZ=             34.4109 YYYX=            143.5313 YYYZ=             10.8993 ZZZX=             33.7661
 ZZZY=             19.7251 XXYY=           -289.3737 XXZZ=           -159.2573 YYZZ=           -230.2574
 XXYZ=              3.2080 YYXZ=             10.4173 ZZXY=             61.2975
 N-N= 5.732323265755D+02 E-N=-2.401086020928D+03  KE= 5.332231108792D+02
 1\1\GINC-COMET-12-46\FOpt\RM062X\def2TZVP\C6H10O4\MAYES\02-Oct-2019\0\
 \# m062x/Def2TZVP nosymm scf=xqc opt freq=NoRaman CPHF=Grid=Fine guess
 =read geom=allcheck\\based on lme2acetoxprpnt_scan3.log\\0,1\C,-0.3861
 654994,0.9195766102,0.2009722545\O,0.4735874198,1.1472586863,1.0014142
 143\O,-1.0334959222,1.8520083434,-0.5003672153\C,-0.9363473412,-0.4632
 440833,-0.1183057518\H,-1.0584771454,-0.5367366708,-1.199462766\C,-2.2
 497250183,-0.6920328104,0.6056922324\H,-2.6248831075,-1.6886259922,0.3
 792814944\H,-2.1014221949,-0.6077017189,1.6820928979\H,-2.9833809485,0
 .0456306889,0.2846769771\O,-0.0205708849,-1.4456297544,0.3350769831\C,
 -0.6169260898,3.195581597,-0.2549062113\H,0.4378170061,3.3088106707,-0
 .4995175036\H,-1.2299350849,3.8194424336,-0.8976385782\H,-0.7698182072
 ,3.4525255898,0.7921899982\C,1.1690256576,-1.4653742578,-0.3031443407\
 C,2.1147503763,-2.42949551,0.3445080737\H,2.4206829375,-2.0121658582,1
 .3045256667\H,1.6175241071,-3.3787704793,0.5350378152\H,2.9836177689,-
 2.5668022018,-0.2910710748\O,1.4053669978,-0.7788247304,-1.2562904985\
 \Version=ES64L-G16RevB.01\HF=-535.578434\RMSD=3.513e-09\RMSF=9.348e-06
 \Dipole=-0.7588341,-0.1032447,0.1631979\Quadrupole=-0.2433531,5.976236
 5,-5.7328834,-3.1513884,1.1722671,-1.6432476\PG=C01 [X(C6H10O4)]\\@


 There ain't no surer way to find out whether you
 like people or hate them than to travel with them.
                                     -- Mark Twain
 Job cpu time:       0 days  3 hours 53 minutes 50.3 seconds.
 Elapsed time:       0 days  0 hours  9 minutes 51.3 seconds.
 File lengths (MBytes):  RWF=     89 Int=      0 D2E=      0 Chk=     19 Scr=      1
 Normal termination of Gaussian 16 at Wed Oct  2 16:20:52 2019.
