 Entering Gaussian System, Link 0=g16
 Initial command:
 /opt/gaussian/16.B.01/g16/l1.exe "/oasis/scratch/comet/mayes/temp_project/Gau-2263.inp" -scrdir="/oasis/scratch/comet/mayes/temp_project/"
 Entering Link 1 = /opt/gaussian/16.B.01/g16/l1.exe PID=      2264.
  
 Copyright (c) 1988-2017, Gaussian, Inc.  All Rights Reserved.
  
 This is part of the Gaussian(R) 16 program.  It is based on
 the Gaussian(R) 09 system (copyright 2009, Gaussian, Inc.),
 the Gaussian(R) 03 system (copyright 2003, Gaussian, Inc.),
 the Gaussian(R) 98 system (copyright 1998, Gaussian, Inc.),
 the Gaussian(R) 94 system (copyright 1995, Gaussian, Inc.),
 the Gaussian 92(TM) system (copyright 1992, Gaussian, Inc.),
 the Gaussian 90(TM) system (copyright 1990, Gaussian, Inc.),
 the Gaussian 88(TM) system (copyright 1988, Gaussian, Inc.),
 the Gaussian 86(TM) system (copyright 1986, Carnegie Mellon
 University), and the Gaussian 82(TM) system (copyright 1983,
 Carnegie Mellon University). Gaussian is a federally registered
 trademark of Gaussian, Inc.
  
 This software contains proprietary and confidential information,
 including trade secrets, belonging to Gaussian, Inc.
  
 This software is provided under written license and may be
 used, copied, transmitted, or stored only in accord with that
 written license.
  
 The following legend is applicable only to US Government
 contracts under FAR:
  
                    RESTRICTED RIGHTS LEGEND
  
 Use, reproduction and disclosure by the US Government is
 subject to restrictions as set forth in subparagraphs (a)
 and (c) of the Commercial Computer Software - Restricted
 Rights clause in FAR 52.227-19.
  
 Gaussian, Inc.
 340 Quinnipiac St., Bldg. 40, Wallingford CT 06492
  
  
 ---------------------------------------------------------------
 Warning -- This program may not be used in any manner that
 competes with the business of Gaussian, Inc. or will provide
 assistance to any competitor of Gaussian, Inc.  The licensee
 of this program is prohibited from giving any competitor of
 Gaussian, Inc. access to this program.  By using this program,
 the user acknowledges that Gaussian, Inc. is engaged in the
 business of creating and licensing software in the field of
 computational chemistry and represents and warrants to the
 licensee that it is not a competitor of Gaussian, Inc. and that
 it will not use this program in any manner prohibited above.
 ---------------------------------------------------------------
  

 Cite this work as:
 Gaussian 16, Revision B.01,
 M. J. Frisch, G. W. Trucks, H. B. Schlegel, G. E. Scuseria, 
 M. A. Robb, J. R. Cheeseman, G. Scalmani, V. Barone, 
 G. A. Petersson, H. Nakatsuji, X. Li, M. Caricato, A. V. Marenich, 
 J. Bloino, B. G. Janesko, R. Gomperts, B. Mennucci, H. P. Hratchian, 
 J. V. Ortiz, A. F. Izmaylov, J. L. Sonnenberg, D. Williams-Young, 
 F. Ding, F. Lipparini, F. Egidi, J. Goings, B. Peng, A. Petrone, 
 T. Henderson, D. Ranasinghe, V. G. Zakrzewski, J. Gao, N. Rega, 
 G. Zheng, W. Liang, M. Hada, M. Ehara, K. Toyota, R. Fukuda, 
 J. Hasegawa, M. Ishida, T. Nakajima, Y. Honda, O. Kitao, H. Nakai, 
 T. Vreven, K. Throssell, J. A. Montgomery, Jr., J. E. Peralta, 
 F. Ogliaro, M. J. Bearpark, J. J. Heyd, E. N. Brothers, K. N. Kudin, 
 V. N. Staroverov, T. A. Keith, R. Kobayashi, J. Normand, 
 K. Raghavachari, A. P. Rendell, J. C. Burant, S. S. Iyengar, 
 J. Tomasi, M. Cossi, J. M. Millam, M. Klene, C. Adamo, R. Cammi, 
 J. W. Ochterski, R. L. Martin, K. Morokuma, O. Farkas, 
 J. B. Foresman, and D. J. Fox, Gaussian, Inc., Wallingford CT, 2016.
 
 ******************************************
 Gaussian 16:  ES64L-G16RevB.01 20-Dec-2017
                 3-Oct-2019 
 ******************************************
 %RWF=/oasis/scratch/comet/mayes/temp_project/lme2acetoxypropionate_25_t.rwf
 %NoSave
 %OldChk=/oasis/scratch/comet/mayes/temp_project/lme2acetoxypropionate_25_w.chk
 %Chk=/oasis/scratch/comet/mayes/temp_project/lme2acetoxypropionate_25_t.chk
 %cpu=0-23
 SetSPE:  set environment variable "MP_BIND" = "yes"
 SetSPE:  set environment variable "MP_BLIST" = "0,1,2,3,4,5,6,7,8,9,10,11,12,13,14,15,16,17,18,19,20,21,22,23"
 Will use up to   24 processors via shared memory.
 %mem=112GB
 Copying data from "/oasis/scratch/comet/mayes/temp_project/lme2acetoxypropionate_25_w.chk" to current chk file "/oasis/scratch/comet/mayes/temp_project/lme2acetoxypropionate_25_t.chk"
 IOpt=  2 FromEx=T IUOpen= 4 IOptOp= 5 NList=   0 IFRang= 0 IUIn= 4 IUOut= 2.
 ----------------------------------------------------------------------
 # m062x/Def2TZVP nosymm scf=xqc opt=ReadFC freq=NoRaman CPHF=Grid=Fine
  guess=read geom=allcheck
 ----------------------------------------------------------------------
 1/10=3,18=20,19=15,26=3,29=7,38=1/1,3;
 2/9=110,12=2,15=1,40=1/2;
 3/5=44,7=101,11=2,14=-4,25=1,30=1,71=1,74=-55,116=-2/1,2,3;
 4/5=1/1;
 5/5=2,8=3,13=1,38=6/2,8;
 6/7=2,8=2,9=2,10=2,28=1/1;
 7/30=1/1,2,3,16;
 1/18=20,19=15,26=3/3(2);
 2/9=110,15=1/2;
 99//99;
 2/9=110,15=1/2;
 3/5=44,7=101,11=2,14=-2,25=1,30=1,71=1,74=-55/1,2,3;
 4/5=5,16=3,69=1/1;
 5/5=2,8=3,13=1,38=5/2,8;
 7/30=1/1,2,3,16;
 1/18=20,19=15,26=3/3(-5);
 2/9=110,15=1/2;
 6/7=2,8=2,9=2,10=2,19=2,28=1/1;
 99/9=1/99;
 Structure from the checkpoint file:  "/oasis/scratch/comet/mayes/temp_project/lme2acetoxypropionate_25_t.chk"
 ----------------------------------------------------------------------
 obabel lme2acetoxypropionate_0.pdb -O lme2acetoxypropionate.pdb --conf
 ab --conf10000 --original
 ----------------------------------------------------------------------
 Charge =  0 Multiplicity = 1
 Redundant internal coordinates found in file.  (old form).
 C,0,-1.0453400511,0.2179992811,0.2892498038
 O,0,0.0480765227,-0.1223046681,0.6538486649
 O,0,-1.4636724292,1.4755724836,0.233791904
 C,0,-2.1596689676,-0.7360828236,-0.1118499241
 H,0,-2.6907537682,-0.307060148,-0.9612957154
 C,0,-3.0946399486,-0.9745755452,1.0586286639
 H,0,-3.5471912788,-0.033960128,1.3676107804
 H,0,-3.8821155783,-1.6643317437,0.7609996326
 H,0,-2.5454066073,-1.4006240536,1.8979446918
 O,0,-1.6017264629,-1.9913213692,-0.4781808525
 C,0,-0.5259082819,2.4692648508,0.6654232986
 H,0,0.3626491354,2.4386252702,0.0380743105
 H,0,-1.0347624604,3.4213690637,0.5611588052
 H,0,-0.2482451484,2.2940571951,1.7028973697
 C,0,-0.8426755665,-1.9979471849,-1.5874551175
 C,0,-0.2824385187,-3.3573818988,-1.862395913
 H,0,0.3823069259,-3.6382963571,-1.0454785611
 H,0,-1.0897837196,-4.0872070777,-1.9009390394
 H,0,0.2640146279,-3.3456972978,-2.7996286395
 O,0,-0.6587184241,-1.0100978487,-2.250404163
 Recover connectivity data from disk.

 GradGradGradGradGradGradGradGradGradGradGradGradGradGradGradGradGradGrad
 Berny optimization.
 Initialization pass.
 Force constant matrix read from checkpoint file:
 "/oasis/scratch/comet/mayes/temp_project/lme2acetoxypropionate_25_t.chk"
                           ----------------------------
                           !    Initial Parameters    !
                           ! (Angstroms and Degrees)  !
 --------------------------                            --------------------------
 ! Name  Definition              Value          Derivative Info.                !
 --------------------------------------------------------------------------------
 ! R1    R(1,2)                  1.2018         D2E/DX2 =    0.8678             !
 ! R2    R(1,3)                  1.3265         D2E/DX2 =    0.4521             !
 ! R3    R(1,4)                  1.5208         D2E/DX2 =    0.285              !
 ! R4    R(3,11)                 1.4329         D2E/DX2 =    0.3365             !
 ! R5    R(4,5)                  1.0898         D2E/DX2 =    0.3451             !
 ! R6    R(4,6)                  1.5169         D2E/DX2 =    0.3011             !
 ! R7    R(4,10)                 1.4217         D2E/DX2 =    0.3475             !
 ! R8    R(6,7)                  1.0886         D2E/DX2 =    0.3509             !
 ! R9    R(6,8)                  1.0883         D2E/DX2 =    0.3501             !
 ! R10   R(6,9)                  1.0898         D2E/DX2 =    0.3468             !
 ! R11   R(10,15)                1.3441         D2E/DX2 =    0.414              !
 ! R12   R(11,12)                1.0881         D2E/DX2 =    0.3497             !
 ! R13   R(11,13)                1.0846         D2E/DX2 =    0.3586             !
 ! R14   R(11,14)                1.0882         D2E/DX2 =    0.3496             !
 ! R15   R(15,16)                1.4958         D2E/DX2 =    0.309              !
 ! R16   R(15,20)                1.2038         D2E/DX2 =    0.8592             !
 ! R17   R(16,17)                1.09           D2E/DX2 =    0.3479             !
 ! R18   R(16,18)                1.089          D2E/DX2 =    0.3501             !
 ! R19   R(16,19)                1.085          D2E/DX2 =    0.359              !
 ! A1    A(2,1,3)              124.6155         D2E/DX2 =    0.208              !
 ! A2    A(2,1,4)              124.6815         D2E/DX2 =    0.1578             !
 ! A3    A(3,1,4)              110.6497         D2E/DX2 =    0.1684             !
 ! A4    A(1,3,11)             116.0067         D2E/DX2 =    0.2973             !
 ! A5    A(1,4,5)              108.4014         D2E/DX2 =    0.0331             !
 ! A6    A(1,4,6)              110.2883         D2E/DX2 =    0.0886             !
 ! A7    A(1,4,10)             109.5305         D2E/DX2 =    0.0741             !
 ! A8    A(5,4,6)              111.2821         D2E/DX2 =    0.0368             !
 ! A9    A(5,4,10)             109.7546         D2E/DX2 =    0.0298             !
 ! A10   A(6,4,10)             107.5721         D2E/DX2 =    0.0833             !
 ! A11   A(4,6,7)              109.8401         D2E/DX2 =    0.104              !
 ! A12   A(4,6,8)              109.5483         D2E/DX2 =    0.1046             !
 ! A13   A(4,6,9)              110.188          D2E/DX2 =    0.1071             !
 ! A14   A(7,6,8)              108.9319         D2E/DX2 =    0.0485             !
 ! A15   A(7,6,9)              109.1912         D2E/DX2 =    0.0494             !
 ! A16   A(8,6,9)              109.1178         D2E/DX2 =    0.05               !
 ! A17   A(4,10,15)            116.0167         D2E/DX2 =    0.3398             !
 ! A18   A(3,11,12)            109.9516         D2E/DX2 =    0.1441             !
 ! A19   A(3,11,13)            105.8295         D2E/DX2 =    0.1445             !
 ! A20   A(3,11,14)            110.0312         D2E/DX2 =    0.1438             !
 ! A21   A(12,11,13)           110.6351         D2E/DX2 =    0.0685             !
 ! A22   A(12,11,14)           109.6804         D2E/DX2 =    0.0698             !
 ! A23   A(13,11,14)           110.6533         D2E/DX2 =    0.0685             !
 ! A24   A(10,15,16)           111.5721         D2E/DX2 =    0.1731             !
 ! A25   A(10,15,20)           122.4613         D2E/DX2 =    0.2224             !
 ! A26   A(16,15,20)           125.9666         D2E/DX2 =    0.1604             !
 ! A27   A(15,16,17)           108.9576         D2E/DX2 =    0.0991             !
 ! A28   A(15,16,18)           109.7494         D2E/DX2 =    0.1009             !
 ! A29   A(15,16,19)           109.7323         D2E/DX2 =    0.1052             !
 ! A30   A(17,16,18)           107.8139         D2E/DX2 =    0.0511             !
 ! A31   A(17,16,19)           110.0611         D2E/DX2 =    0.0523             !
 ! A32   A(18,16,19)           110.4895         D2E/DX2 =    0.0532             !
 ! D1    D(2,1,3,11)            -0.9661         D2E/DX2 =    0.0174             !
 ! D2    D(4,1,3,11)           176.4819         D2E/DX2 =    0.0174             !
 ! D3    D(2,1,4,5)           -141.6232         D2E/DX2 =    0.0163             !
 ! D4    D(2,1,4,6)             96.3168         D2E/DX2 =    0.0191             !
 ! D5    D(2,1,4,10)           -21.8901         D2E/DX2 =    0.0233             !
 ! D6    D(3,1,4,5)             40.9308         D2E/DX2 =    0.0174             !
 ! D7    D(3,1,4,6)            -81.1291         D2E/DX2 =    0.0196             !
 ! D8    D(3,1,4,10)           160.664          D2E/DX2 =    0.0231             !
 ! D9    D(1,3,11,12)           60.9869         D2E/DX2 =    0.0241             !
 ! D10   D(1,3,11,13)         -179.5002         D2E/DX2 =    0.0239             !
 ! D11   D(1,3,11,14)          -59.9233         D2E/DX2 =    0.0239             !
 ! D12   D(1,4,6,7)             60.8316         D2E/DX2 =    0.0166             !
 ! D13   D(1,4,6,8)           -179.5562         D2E/DX2 =    0.017              !
 ! D14   D(1,4,6,9)            -59.5001         D2E/DX2 =    0.0171             !
 ! D15   D(5,4,6,7)            -59.5119         D2E/DX2 =    0.014              !
 ! D16   D(5,4,6,8)             60.1003         D2E/DX2 =    0.0141             !
 ! D17   D(5,4,6,9)           -179.8436         D2E/DX2 =    0.0137             !
 ! D18   D(10,4,6,7)          -179.7662         D2E/DX2 =    0.0185             !
 ! D19   D(10,4,6,8)           -60.154          D2E/DX2 =    0.0184             !
 ! D20   D(10,4,6,9)            59.9021         D2E/DX2 =    0.0192             !
 ! D21   D(1,4,10,15)          -66.3567         D2E/DX2 =    0.0304             !
 ! D22   D(5,4,10,15)           52.543          D2E/DX2 =    0.0167             !
 ! D23   D(6,4,10,15)          173.7587         D2E/DX2 =    0.0215             !
 ! D24   D(4,10,15,16)         178.6948         D2E/DX2 =    0.0184             !
 ! D25   D(4,10,15,20)          -1.2088         D2E/DX2 =    0.0207             !
 ! D26   D(10,15,16,17)        -63.5111         D2E/DX2 =    0.0172             !
 ! D27   D(10,15,16,18)         54.3294         D2E/DX2 =    0.0176             !
 ! D28   D(10,15,16,19)        175.923          D2E/DX2 =    0.0172             !
 ! D29   D(20,15,16,17)        116.3885         D2E/DX2 =    0.0154             !
 ! D30   D(20,15,16,18)       -125.771          D2E/DX2 =    0.0154             !
 ! D31   D(20,15,16,19)         -4.1775         D2E/DX2 =    0.0184             !
 --------------------------------------------------------------------------------
 Trust Radius=3.00D-01 FncErr=1.00D-07 GrdErr=1.00D-06 EigMax=2.50D+02 EigMin=1.00D-04
 Number of steps in this run=     92 maximum allowed number of steps=    120.
 GradGradGradGradGradGradGradGradGradGradGradGradGradGradGradGradGradGrad

                          Input orientation:                          
 ---------------------------------------------------------------------
 Center     Atomic      Atomic             Coordinates (Angstroms)
 Number     Number       Type             X           Y           Z
 ---------------------------------------------------------------------
      1          6           0       -1.045340    0.217999    0.289250
      2          8           0        0.048077   -0.122305    0.653849
      3          8           0       -1.463672    1.475572    0.233792
      4          6           0       -2.159669   -0.736083   -0.111850
      5          1           0       -2.690754   -0.307060   -0.961296
      6          6           0       -3.094640   -0.974576    1.058629
      7          1           0       -3.547191   -0.033960    1.367611
      8          1           0       -3.882116   -1.664332    0.761000
      9          1           0       -2.545407   -1.400624    1.897945
     10          8           0       -1.601726   -1.991321   -0.478181
     11          6           0       -0.525908    2.469265    0.665423
     12          1           0        0.362649    2.438625    0.038074
     13          1           0       -1.034762    3.421369    0.561159
     14          1           0       -0.248245    2.294057    1.702897
     15          6           0       -0.842676   -1.997947   -1.587455
     16          6           0       -0.282439   -3.357382   -1.862396
     17          1           0        0.382307   -3.638296   -1.045479
     18          1           0       -1.089784   -4.087207   -1.900939
     19          1           0        0.264015   -3.345697   -2.799629
     20          8           0       -0.658718   -1.010098   -2.250404
 ---------------------------------------------------------------------
                    Distance matrix (angstroms):
                    1          2          3          4          5
     1  C    0.000000
     2  O    1.201790   0.000000
     3  O    1.326487   2.239429   0.000000
     4  C    1.520816   2.416021   2.344205   0.000000
     5  H    2.132355   3.184967   2.472194   1.089803   0.000000
     6  C    2.492751   3.281292   3.056736   1.516928   2.165363
     7  H    2.735983   3.666499   2.811634   2.146392   2.496372
     8  H    3.437006   4.223238   3.998226   2.142507   2.495562
     9  H    2.730941   3.147702   3.494576   2.151670   3.064680
    10  O    2.404083   2.737985   3.541937   1.421662   2.063036
    11  C    2.340836   2.654397   1.432875   3.680704   3.878241
    12  H    2.641345   2.652639   2.073940   4.057504   4.226204
    13  H    3.214907   3.706583   2.019222   4.359216   4.354464
    14  H    2.635105   2.650870   2.074958   4.016042   4.453042
    15  C    2.910930   3.055310   3.970884   2.346100   2.581970
    16  C    4.242045   4.111746   5.398774   3.668735   3.989540
    17  H    4.323273   3.919390   5.585322   3.969401   4.532982
    18  H    4.830497   4.852022   5.970041   3.946584   4.211359
    19  H    4.894437   4.728995   5.952410   4.461892   4.619896
    20  O    2.847374   3.118080   3.605238   2.627042   2.507036
                    6          7          8          9         10
     6  C    0.000000
     7  H    1.088591   0.000000
     8  H    1.088331   1.771514   0.000000
     9  H    1.089783   1.775555   1.774536   0.000000
    10  O    2.371570   3.320097   2.615849   2.624010   0.000000
    11  C    4.314282   3.985894   5.325400   4.535805   4.728852
    12  H    4.964304   4.813335   5.947681   5.162920   4.873368
    13  H    4.880051   4.347639   5.831956   5.226917   5.540658
    14  H    4.381895   4.051559   5.455367   4.354959   4.995346
    15  C    3.622208   4.461397   3.855481   3.924806   1.344132
    16  C    4.703045   5.668923   4.765113   4.805215   2.350041
    17  H    4.859201   5.852794   5.034402   4.716187   2.640216
    18  H    4.739933   5.757698   4.555586   4.875252   2.584388
    19  H    5.638167   6.546662   5.717994   5.808903   3.271765
    20  O    4.109096   4.731401   4.459469   4.573937   2.234466
                   11         12         13         14         15
    11  C    0.000000
    12  H    1.088136   0.000000
    13  H    1.084576   1.786662   0.000000
    14  H    1.088185   1.779249   1.786899   0.000000
    15  C    5.013161   4.876303   5.832875   5.440686   0.000000
    16  C    6.356018   6.133647   7.238168   6.682159   1.495834
    17  H    6.407366   6.172799   7.377550   6.568408   2.117797
    18  H    7.063391   6.961022   7.902131   7.376744   2.127050
    19  H    6.815009   6.443654   7.666479   7.234776   2.123807
    20  O    4.541547   4.263099   5.261577   5.168609   1.203822
                   16         17         18         19         20
    16  C    0.000000
    17  H    1.090024   0.000000
    18  H    1.089007   1.760791   0.000000
    19  H    1.084967   1.782316   1.786127   0.000000
    20  O    2.408709   3.072948   3.126747   2.570624   0.000000
 Symmetry turned off by external request.
 Stoichiometry    C6H10O4
 Framework group  C1[X(C6H10O4)]
 Deg. of freedom    54
 Full point group                 C1      NOp   1
 Rotational constants (GHZ):           2.2588054           0.8990198           0.7503731
 Standard basis: def2TZVP (5D, 7F)
   370 basis functions,   590 primitive gaussians,   420 cartesian basis functions
    39 alpha electrons       39 beta electrons
       nuclear repulsion energy       572.3787177422 Hartrees.
 NAtoms=   20 NActive=   20 NUniq=   20 SFac= 1.00D+00 NAtFMM=   60 NAOKFM=F Big=F
 Integral buffers will be    131072 words long.
 Raffenetti 2 integral format.
 Two-electron integral symmetry is turned off.
 One-electron integrals computed using PRISM.
   1 Symmetry operations used in ECPInt.
 ECPInt:  NShTT=   11325 NPrTT=   34180 LenC2=   10820 LenP2D=   25056.
 LDataN:  DoStor=T MaxTD1= 6 Len=  172
 NBasis=   370 RedAO= T EigKep=  1.47D-04  NBF=   370
 NBsUse=   370 1.00D-06 EigRej= -1.00D+00 NBFU=   370
 Initial guess from the checkpoint file:  "/oasis/scratch/comet/mayes/temp_project/lme2acetoxypropionate_25_t.chk"
 B after Tr=     0.000000    0.000000    0.000000
         Rot=    1.000000    0.000000    0.000000    0.000000 Ang=   0.00 deg.
 Requested convergence on RMS density matrix=1.00D-08 within  32 cycles.
 Requested convergence on MAX density matrix=1.00D-06.
 Requested convergence on             energy=1.00D-06.
 No special actions if energy rises.
 SCF Done:  E(RM062X) =  -535.578075252     A.U. after   11 cycles
            NFock= 11  Conv=0.60D-08     -V/T= 2.0045
 QCSCF skips out because SCF is already converged.

 **********************************************************************

            Population analysis using the SCF Density.

 **********************************************************************

 Alpha  occ. eigenvalues --  -19.67958 -19.67475 -19.61806 -19.61585 -10.67389
 Alpha  occ. eigenvalues --  -10.67299 -10.61656 -10.59504 -10.54570 -10.54531
 Alpha  occ. eigenvalues --   -1.25299  -1.23770  -1.14985  -1.14276  -0.91388
 Alpha  occ. eigenvalues --   -0.84987  -0.82887  -0.74734  -0.69321  -0.64366
 Alpha  occ. eigenvalues --   -0.62053  -0.58618  -0.57768  -0.56786  -0.55470
 Alpha  occ. eigenvalues --   -0.54045  -0.51487  -0.49177  -0.48795  -0.47278
 Alpha  occ. eigenvalues --   -0.46413  -0.45567  -0.45240  -0.43261  -0.42426
 Alpha  occ. eigenvalues --   -0.39423  -0.38252  -0.35850  -0.35387
 Alpha virt. eigenvalues --    0.04448   0.05218   0.06938   0.08538   0.09643
 Alpha virt. eigenvalues --    0.11284   0.11903   0.13335   0.14088   0.14841
 Alpha virt. eigenvalues --    0.15233   0.15453   0.16088   0.16838   0.17779
 Alpha virt. eigenvalues --    0.18815   0.21545   0.22281   0.22612   0.23133
 Alpha virt. eigenvalues --    0.24887   0.26052   0.26726   0.27300   0.29139
 Alpha virt. eigenvalues --    0.31006   0.32985   0.33950   0.34593   0.36114
 Alpha virt. eigenvalues --    0.36506   0.37540   0.39255   0.39738   0.41433
 Alpha virt. eigenvalues --    0.42582   0.42924   0.43880   0.44687   0.45393
 Alpha virt. eigenvalues --    0.45462   0.46239   0.47346   0.47798   0.48812
 Alpha virt. eigenvalues --    0.49594   0.50218   0.50607   0.51301   0.52366
 Alpha virt. eigenvalues --    0.53449   0.54999   0.56561   0.56883   0.59963
 Alpha virt. eigenvalues --    0.60597   0.62041   0.63416   0.64172   0.65893
 Alpha virt. eigenvalues --    0.67271   0.68329   0.70374   0.71417   0.72692
 Alpha virt. eigenvalues --    0.76081   0.78934   0.81021   0.82301   0.83933
 Alpha virt. eigenvalues --    0.85930   0.86347   0.88010   0.89516   0.90037
 Alpha virt. eigenvalues --    0.91048   0.92759   0.94011   0.94636   0.97181
 Alpha virt. eigenvalues --    0.99325   1.00406   1.02881   1.05306   1.06261
 Alpha virt. eigenvalues --    1.07373   1.09691   1.09952   1.11051   1.13095
 Alpha virt. eigenvalues --    1.14239   1.17256   1.19344   1.21970   1.23106
 Alpha virt. eigenvalues --    1.25848   1.29233   1.35228   1.37759   1.41061
 Alpha virt. eigenvalues --    1.43905   1.47992   1.49177   1.50020   1.51292
 Alpha virt. eigenvalues --    1.52841   1.54512   1.55329   1.56208   1.56787
 Alpha virt. eigenvalues --    1.57171   1.58287   1.58708   1.59742   1.61365
 Alpha virt. eigenvalues --    1.62010   1.63164   1.63365   1.64801   1.65696
 Alpha virt. eigenvalues --    1.67965   1.69932   1.72502   1.75905   1.76918
 Alpha virt. eigenvalues --    1.78169   1.79601   1.82504   1.85767   1.86602
 Alpha virt. eigenvalues --    1.88701   1.90229   1.94449   1.95913   1.96656
 Alpha virt. eigenvalues --    1.98258   2.01169   2.03906   2.05795   2.06749
 Alpha virt. eigenvalues --    2.09034   2.10283   2.11754   2.11997   2.13690
 Alpha virt. eigenvalues --    2.14296   2.15592   2.17123   2.20296   2.22805
 Alpha virt. eigenvalues --    2.23020   2.26833   2.28191   2.29747   2.31139
 Alpha virt. eigenvalues --    2.31777   2.33674   2.35175   2.36437   2.36869
 Alpha virt. eigenvalues --    2.37166   2.39651   2.40774   2.42456   2.44388
 Alpha virt. eigenvalues --    2.45971   2.47968   2.48678   2.53535   2.54952
 Alpha virt. eigenvalues --    2.55763   2.56706   2.58360   2.59631   2.60971
 Alpha virt. eigenvalues --    2.61254   2.63868   2.67272   2.68255   2.70843
 Alpha virt. eigenvalues --    2.72790   2.74737   2.76631   2.78087   2.80071
 Alpha virt. eigenvalues --    2.82842   2.84311   2.87247   2.90338   2.92926
 Alpha virt. eigenvalues --    2.96241   2.96336   2.99418   3.00553   3.01843
 Alpha virt. eigenvalues --    3.04290   3.05278   3.05866   3.07396   3.09415
 Alpha virt. eigenvalues --    3.09678   3.10891   3.13606   3.14689   3.14946
 Alpha virt. eigenvalues --    3.18986   3.20473   3.21076   3.22285   3.23671
 Alpha virt. eigenvalues --    3.24928   3.26413   3.27345   3.29093   3.31606
 Alpha virt. eigenvalues --    3.32250   3.32440   3.34542   3.35420   3.37381
 Alpha virt. eigenvalues --    3.38007   3.39398   3.41132   3.42251   3.43824
 Alpha virt. eigenvalues --    3.45573   3.46976   3.47857   3.49356   3.50142
 Alpha virt. eigenvalues --    3.52986   3.55343   3.58014   3.58855   3.61260
 Alpha virt. eigenvalues --    3.62264   3.65360   3.66532   3.71641   3.74687
 Alpha virt. eigenvalues --    3.77122   3.80553   3.83132   3.83700   3.89729
 Alpha virt. eigenvalues --    3.90423   3.90795   3.95955   4.00203   4.01061
 Alpha virt. eigenvalues --    4.06668   4.10842   4.16413   4.17515   4.19607
 Alpha virt. eigenvalues --    4.29768   4.33420   4.36394   4.37541   4.39649
 Alpha virt. eigenvalues --    4.41301   4.44151   4.48096   4.51330   4.54247
 Alpha virt. eigenvalues --    4.56334   4.57631   4.62879   4.70016   4.75205
 Alpha virt. eigenvalues --    4.77216   4.85741   4.89616   5.19041   5.19722
 Alpha virt. eigenvalues --    5.22706   5.24977   5.29768   5.34971   5.42165
 Alpha virt. eigenvalues --    5.47368   5.51834   5.53149   5.64488   5.65467
 Alpha virt. eigenvalues --    5.66716   5.72439   5.81068   5.85024   5.97477
 Alpha virt. eigenvalues --    6.01160   6.02766   6.09126   6.11946   6.18495
 Alpha virt. eigenvalues --    6.20100   6.23028   6.37485   6.38881   6.40577
 Alpha virt. eigenvalues --    6.42966   6.51118   6.54776   6.63729   6.64826
 Alpha virt. eigenvalues --    6.68051   6.68923   6.76684   6.77865   6.83041
 Alpha virt. eigenvalues --    6.84095   6.90018   6.92739   7.00539   7.04213
 Alpha virt. eigenvalues --    7.10771   7.14183   7.25477   7.30813   7.36412
 Alpha virt. eigenvalues --    7.40836  22.43523  22.44596  22.45520  22.72359
 Alpha virt. eigenvalues --   23.41561  23.49931  44.03334  44.08027  44.27251
 Alpha virt. eigenvalues --   44.47648
          Condensed to atoms (all electrons):
               1          2          3          4          5          6
     1  C    4.660739   0.621955   0.345274   0.219714  -0.096060  -0.016612
     2  O    0.621955   7.825327  -0.084313  -0.056034   0.003970  -0.008915
     3  O    0.345274  -0.084313   7.966214  -0.071086   0.009425  -0.010085
     4  C    0.219714  -0.056034  -0.071086   5.138826   0.482010   0.229980
     5  H   -0.096060   0.003970   0.009425   0.482010   0.516701  -0.037602
     6  C   -0.016612  -0.008915  -0.010085   0.229980  -0.037602   5.066789
     7  H   -0.008805   0.000307   0.005564  -0.033694  -0.001982   0.408853
     8  H    0.012574  -0.000439  -0.000017  -0.057958  -0.007647   0.425785
     9  H   -0.014121   0.004150   0.000710  -0.023179   0.007285   0.403644
    10  O   -0.047639   0.001095   0.002964   0.216238  -0.037229  -0.038607
    11  C   -0.051603   0.007243   0.206073   0.006506  -0.001088  -0.000882
    12  H   -0.009045   0.003365  -0.032510  -0.001233  -0.000074  -0.000147
    13  H    0.004699   0.001894  -0.030375   0.000822  -0.000307   0.000356
    14  H   -0.006074   0.003644  -0.036662  -0.000417   0.000110  -0.000230
    15  C    0.010168   0.016284   0.000700  -0.071550  -0.010705   0.004585
    16  C    0.001247  -0.001840  -0.000114   0.003905   0.000939   0.001048
    17  H   -0.000082   0.001063   0.000013  -0.000546   0.000047  -0.000120
    18  H    0.000183   0.000018   0.000000  -0.000242  -0.000224  -0.000216
    19  H   -0.000070   0.000021  -0.000000  -0.000355   0.000030  -0.000031
    20  O    0.012848  -0.006922  -0.001353   0.004270   0.007104   0.004774
               7          8          9         10         11         12
     1  C   -0.008805   0.012574  -0.014121  -0.047639  -0.051603  -0.009045
     2  O    0.000307  -0.000439   0.004150   0.001095   0.007243   0.003365
     3  O    0.005564  -0.000017   0.000710   0.002964   0.206073  -0.032510
     4  C   -0.033694  -0.057958  -0.023179   0.216238   0.006506  -0.001233
     5  H   -0.001982  -0.007647   0.007285  -0.037229  -0.001088  -0.000074
     6  C    0.408853   0.425785   0.403644  -0.038607  -0.000882  -0.000147
     7  H    0.512451  -0.019785  -0.022436   0.004164  -0.000429   0.000079
     8  H   -0.019785   0.514717  -0.023346   0.003171   0.000086   0.000005
     9  H   -0.022436  -0.023346   0.504759  -0.000111  -0.000110  -0.000015
    10  O    0.004164   0.003171  -0.000111   7.990148  -0.000212   0.000002
    11  C   -0.000429   0.000086  -0.000110  -0.000212   4.852600   0.422996
    12  H    0.000079   0.000005  -0.000015   0.000002   0.422996   0.518251
    13  H   -0.000127   0.000003  -0.000034   0.000002   0.395515  -0.024635
    14  H   -0.000029  -0.000011   0.000088  -0.000031   0.418619  -0.039023
    15  C    0.000144  -0.000626  -0.000803   0.327625  -0.000081   0.000227
    16  C    0.000045  -0.000139  -0.000173  -0.080372   0.000003   0.000017
    17  H   -0.000001  -0.000012   0.000029   0.002223  -0.000000  -0.000001
    18  H    0.000000   0.000033   0.000005   0.003846   0.000000  -0.000000
    19  H   -0.000001   0.000004   0.000006   0.005096   0.000001  -0.000000
    20  O    0.000096  -0.000068  -0.000098  -0.091642  -0.000341   0.000175
              13         14         15         16         17         18
     1  C    0.004699  -0.006074   0.010168   0.001247  -0.000082   0.000183
     2  O    0.001894   0.003644   0.016284  -0.001840   0.001063   0.000018
     3  O   -0.030375  -0.036662   0.000700  -0.000114   0.000013   0.000000
     4  C    0.000822  -0.000417  -0.071550   0.003905  -0.000546  -0.000242
     5  H   -0.000307   0.000110  -0.010705   0.000939   0.000047  -0.000224
     6  C    0.000356  -0.000230   0.004585   0.001048  -0.000120  -0.000216
     7  H   -0.000127  -0.000029   0.000144   0.000045  -0.000001   0.000000
     8  H    0.000003  -0.000011  -0.000626  -0.000139  -0.000012   0.000033
     9  H   -0.000034   0.000088  -0.000803  -0.000173   0.000029   0.000005
    10  O    0.000002  -0.000031   0.327625  -0.080372   0.002223   0.003846
    11  C    0.395515   0.418619  -0.000081   0.000003  -0.000000   0.000000
    12  H   -0.024635  -0.039023   0.000227   0.000017  -0.000001  -0.000000
    13  H    0.532477  -0.026416  -0.000030  -0.000000  -0.000000   0.000000
    14  H   -0.026416   0.535560  -0.000053  -0.000001  -0.000001   0.000000
    15  C   -0.000030  -0.000053   4.496070   0.314256  -0.025929  -0.025848
    16  C   -0.000000  -0.000001   0.314256   5.095382   0.390264   0.385103
    17  H   -0.000000  -0.000001  -0.025929   0.390264   0.504454  -0.023700
    18  H    0.000000   0.000000  -0.025848   0.385103  -0.023700   0.523466
    19  H   -0.000000  -0.000000  -0.054131   0.421272  -0.017348  -0.020427
    20  O   -0.000000   0.000036   0.624787  -0.074717   0.000807   0.001911
              19         20
     1  C   -0.000070   0.012848
     2  O    0.000021  -0.006922
     3  O   -0.000000  -0.001353
     4  C   -0.000355   0.004270
     5  H    0.000030   0.007104
     6  C   -0.000031   0.004774
     7  H   -0.000001   0.000096
     8  H    0.000004  -0.000068
     9  H    0.000006  -0.000098
    10  O    0.005096  -0.091642
    11  C    0.000001  -0.000341
    12  H   -0.000000   0.000175
    13  H   -0.000000  -0.000000
    14  H   -0.000000   0.000036
    15  C   -0.054131   0.624787
    16  C    0.421272  -0.074717
    17  H   -0.017348   0.000807
    18  H   -0.020427   0.001911
    19  H    0.501746   0.005857
    20  O    0.005857   7.855894
 Mulliken charges:
               1
     1  C    0.360710
     2  O   -0.331871
     3  O   -0.270421
     4  C    0.014023
     5  H    0.165297
     6  C   -0.432368
     7  H    0.155586
     8  H    0.153671
     9  H    0.163753
    10  O   -0.260731
    11  C   -0.254895
    12  H    0.161567
    13  H    0.146158
    14  H    0.150893
    15  C    0.394909
    16  C   -0.456125
    17  H    0.168840
    18  H    0.156091
    19  H    0.158332
    20  O   -0.343418
 Sum of Mulliken charges =  -0.00000
 Mulliken charges with hydrogens summed into heavy atoms:
               1
     1  C    0.360710
     2  O   -0.331871
     3  O   -0.270421
     4  C    0.179320
     6  C    0.040642
    10  O   -0.260731
    11  C    0.203722
    15  C    0.394909
    16  C    0.027139
    20  O   -0.343418
 Electronic spatial extent (au):  <R**2>=           2128.9865
 Charge=             -0.0000 electrons
 Dipole moment (field-independent basis, Debye):
    X=             -1.8265    Y=             -0.0027    Z=              1.0739  Tot=              2.1188
 Quadrupole moment (field-independent basis, Debye-Ang):
   XX=            -54.3621   YY=            -47.0031   ZZ=            -62.1985
   XY=              1.4226   XZ=             -2.2377   YZ=              5.4079
 Traceless Quadrupole moment (field-independent basis, Debye-Ang):
   XX=              0.1591   YY=              7.5182   ZZ=             -7.6773
   XY=              1.4226   XZ=             -2.2377   YZ=              5.4079
 Octapole moment (field-independent basis, Debye-Ang**2):
  XXX=            194.0107  YYY=             99.9834  ZZZ=             68.3426  XYY=             69.7229
  XXY=             28.8854  XXZ=             18.9543  XZZ=             70.1130  YZZ=             30.7661
  YYZ=              5.0511  XYZ=             -1.8890
 Hexadecapole moment (field-independent basis, Debye-Ang**3):
 XXXX=           -860.2452 YYYY=          -1144.3876 ZZZZ=           -608.6765 XXXY=           -113.5555
 XXXZ=             18.6653 YYYX=           -143.0228 YYYZ=           -192.6152 ZZZX=              8.4210
 ZZZY=           -250.5807 XXYY=           -363.0918 XXZZ=           -243.1345 YYZZ=           -272.3044
 XXYZ=            -84.8273 YYXZ=             12.1940 ZZXY=            -42.6171
 N-N= 5.723787177422D+02 E-N=-2.399382712514D+03  KE= 5.331956380503D+02
   1 Symmetry operations used in ECPInt.
 ECPInt:  NShTT=   11325 NPrTT=   34180 LenC2=   10820 LenP2D=   25056.
 LDataN:  DoStor=T MaxTD1= 7 Len=  274
 Calling FoFJK, ICntrl=      2127 FMM=F ISym2X=0 I1Cent= 0 IOpClX= 0 NMat=1 NMatS=1 NMatT=0.
 -------------------------------------------------------------------
 Center     Atomic                   Forces (Hartrees/Bohr)
 Number     Number              X              Y              Z
 -------------------------------------------------------------------
      1        6           0.010425700   -0.005668652    0.001697261
      2        8          -0.006919307    0.002093736   -0.001495201
      3        8          -0.002035228    0.006758560    0.000874257
      4        6           0.001548534   -0.001528785   -0.000830043
      5        1           0.000327365    0.000444973   -0.000507041
      6        6           0.000120180   -0.000210630   -0.000238612
      7        1          -0.000060232    0.000351624   -0.000025024
      8        1          -0.000133761   -0.000365208    0.000340549
      9        1           0.000090425   -0.000216748   -0.000297249
     10        8          -0.003471876   -0.000984189    0.003162323
     11        6          -0.001541755   -0.002854707   -0.001365054
     12        1           0.000333676   -0.000486285    0.000343805
     13        1          -0.000537615    0.000289883   -0.000197744
     14        1           0.000721479   -0.000326335    0.000095828
     15        6           0.002483575    0.010243016   -0.005128182
     16        6           0.000336313   -0.001403146    0.000361947
     17        1          -0.000148414    0.000136116    0.000108710
     18        1          -0.000012085   -0.000300104    0.000131586
     19        1          -0.000105479    0.000575547   -0.000075517
     20        8          -0.001421497   -0.006548665    0.003043400
 -------------------------------------------------------------------
 Cartesian Forces:  Max     0.010425700 RMS     0.002847902

 GradGradGradGradGradGradGradGradGradGradGradGradGradGradGradGradGradGrad
 Berny optimization.
 FormGI is forming the generalized inverse of G from B-inverse, IUseBI=4.
 Internal  Forces:  Max     0.007341598 RMS     0.001540797
 Search for a local minimum.
 Step number   1 out of a maximum of   92
 All quantities printed in internal units (Hartrees-Bohrs-Radians)
 Mixed Optimization -- RFO/linear search
 Second derivative matrix not updated -- first step.
 ITU=  0
     Eigenvalues ---    0.00022   0.00156   0.00268   0.00324   0.01101
     Eigenvalues ---    0.02147   0.03251   0.04288   0.04428   0.04623
     Eigenvalues ---    0.04885   0.05235   0.05435   0.05558   0.06037
     Eigenvalues ---    0.06863   0.08248   0.08398   0.12386   0.12396
     Eigenvalues ---    0.13071   0.13148   0.13225   0.13821   0.14391
     Eigenvalues ---    0.18013   0.18516   0.18807   0.18904   0.20763
     Eigenvalues ---    0.21215   0.24580   0.25376   0.25441   0.27545
     Eigenvalues ---    0.31259   0.32973   0.34441   0.34694   0.34782
     Eigenvalues ---    0.34785   0.34963   0.35008   0.35252   0.35470
     Eigenvalues ---    0.35768   0.35951   0.36699   0.38243   0.38573
     Eigenvalues ---    0.49133   0.49615   0.89427   0.90137
 RFO step:  Lambda=-7.10091530D-04 EMin= 2.17006042D-04
 Linear search not attempted -- first point.
 Iteration  1 RMS(Cart)=  0.06100613 RMS(Int)=  0.00184527
 Iteration  2 RMS(Cart)=  0.00231543 RMS(Int)=  0.00000950
 Iteration  3 RMS(Cart)=  0.00000255 RMS(Int)=  0.00000928
 Iteration  4 RMS(Cart)=  0.00000000 RMS(Int)=  0.00000928
 Variable       Old X    -DE/DX   Delta X   Delta X   Delta X     New X
                                 (Linear)    (Quad)   (Total)
    R1        2.27105  -0.00734   0.00000  -0.01074  -0.01074   2.26031
    R2        2.50670   0.00418   0.00000   0.01518   0.01518   2.52188
    R3        2.87393   0.00020   0.00000   0.00252   0.00252   2.87644
    R4        2.70774  -0.00335   0.00000  -0.00999  -0.00999   2.69775
    R5        2.05943   0.00041   0.00000   0.00127   0.00127   2.06070
    R6        2.86658  -0.00011   0.00000   0.00013   0.00013   2.86671
    R7        2.68655  -0.00285   0.00000  -0.00759  -0.00759   2.67896
    R8        2.05714   0.00032   0.00000   0.00053   0.00053   2.05767
    R9        2.05665   0.00023   0.00000   0.00068   0.00068   2.05733
   R10        2.05939  -0.00010   0.00000   0.00002   0.00002   2.05942
   R11        2.54004   0.00191   0.00000   0.01078   0.01078   2.55083
   R12        2.05628   0.00009   0.00000   0.00098   0.00098   2.05726
   R13        2.04955   0.00053   0.00000   0.00161   0.00161   2.05116
   R14        2.05637   0.00033   0.00000   0.00145   0.00145   2.05782
   R15        2.82672   0.00083   0.00000   0.00438   0.00438   2.83109
   R16        2.27489  -0.00727   0.00000  -0.01097  -0.01097   2.26392
   R17        2.05985  -0.00004   0.00000   0.00046   0.00046   2.06030
   R18        2.05793   0.00021   0.00000  -0.00038  -0.00038   2.05755
   R19        2.05029   0.00002   0.00000   0.00030   0.00030   2.05059
    A1        2.17495   0.00006   0.00000  -0.00080  -0.00080   2.17415
    A2        2.17610   0.00018   0.00000   0.00448   0.00448   2.18059
    A3        1.93120  -0.00025   0.00000  -0.00371  -0.00371   1.92749
    A4        2.02470  -0.00407   0.00000  -0.01541  -0.01541   2.00929
    A5        1.89196  -0.00030   0.00000  -0.00574  -0.00574   1.88622
    A6        1.92489   0.00033   0.00000   0.00174   0.00174   1.92663
    A7        1.91167  -0.00027   0.00000  -0.00448  -0.00448   1.90719
    A8        1.94224   0.00035   0.00000   0.00416   0.00416   1.94640
    A9        1.91558   0.00015   0.00000   0.00496   0.00495   1.92053
   A10        1.87749  -0.00026   0.00000  -0.00065  -0.00066   1.87683
   A11        1.91707  -0.00018   0.00000   0.00136   0.00136   1.91843
   A12        1.91198   0.00058   0.00000   0.00322   0.00322   1.91520
   A13        1.92314  -0.00044   0.00000  -0.00416  -0.00416   1.91898
   A14        1.90122  -0.00002   0.00000   0.00191   0.00190   1.90312
   A15        1.90575   0.00029   0.00000   0.00189   0.00189   1.90763
   A16        1.90446  -0.00023   0.00000  -0.00419  -0.00419   1.90027
   A17        2.02487  -0.00401   0.00000  -0.01191  -0.01191   2.01296
   A18        1.91902  -0.00022   0.00000   0.00058   0.00058   1.91960
   A19        1.84707  -0.00029   0.00000   0.00170   0.00169   1.84877
   A20        1.92041   0.00023   0.00000   0.00446   0.00445   1.92486
   A21        1.93095   0.00049   0.00000   0.00214   0.00214   1.93308
   A22        1.91428  -0.00066   0.00000  -0.01036  -0.01036   1.90392
   A23        1.93126   0.00047   0.00000   0.00205   0.00204   1.93331
   A24        1.94730  -0.00124   0.00000  -0.00730  -0.00730   1.94000
   A25        2.13735   0.00145   0.00000   0.00565   0.00565   2.14300
   A26        2.19853  -0.00021   0.00000   0.00165   0.00165   2.20018
   A27        1.90167  -0.00023   0.00000  -0.00829  -0.00830   1.89337
   A28        1.91549   0.00049   0.00000   0.00779   0.00780   1.92329
   A29        1.91519  -0.00086   0.00000  -0.00532  -0.00535   1.90984
   A30        1.88171  -0.00007   0.00000   0.00073   0.00074   1.88245
   A31        1.92093   0.00041   0.00000  -0.00014  -0.00019   1.92074
   A32        1.92841   0.00027   0.00000   0.00520   0.00520   1.93361
    D1       -0.01686   0.00087   0.00000   0.03595   0.03595   0.01908
    D2        3.08019   0.00057   0.00000   0.03556   0.03556   3.11575
    D3       -2.47179   0.00001   0.00000   0.03509   0.03508  -2.43671
    D4        1.68105  -0.00043   0.00000   0.03256   0.03257   1.71361
    D5       -0.38205  -0.00015   0.00000   0.03505   0.03506  -0.34700
    D6        0.71438   0.00031   0.00000   0.03564   0.03563   0.75001
    D7       -1.41597  -0.00013   0.00000   0.03311   0.03311  -1.38286
    D8        2.80412   0.00016   0.00000   0.03560   0.03560   2.83972
    D9        1.06442  -0.00037   0.00000  -0.01454  -0.01455   1.04987
   D10       -3.13287  -0.00007   0.00000  -0.01071  -0.01071   3.13960
   D11       -1.04586   0.00045   0.00000  -0.00490  -0.00489  -1.05075
   D12        1.06171   0.00004   0.00000   0.00102   0.00101   1.06273
   D13       -3.13385   0.00026   0.00000   0.00618   0.00618  -3.12766
   D14       -1.03847   0.00008   0.00000   0.00044   0.00044  -1.03803
   D15       -1.03868  -0.00003   0.00000   0.00434   0.00434  -1.03434
   D16        1.04895   0.00019   0.00000   0.00951   0.00951   1.05846
   D17       -3.13886   0.00001   0.00000   0.00377   0.00377  -3.13509
   D18       -3.13751  -0.00025   0.00000  -0.00380  -0.00381  -3.14132
   D19       -1.04988  -0.00003   0.00000   0.00136   0.00136  -1.04852
   D20        1.04549  -0.00022   0.00000  -0.00437  -0.00438   1.04111
   D21       -1.15814  -0.00001   0.00000   0.01015   0.01016  -1.14798
   D22        0.91705  -0.00044   0.00000   0.00342   0.00341   0.92046
   D23        3.03266  -0.00009   0.00000   0.01100   0.01100   3.04366
   D24        3.11881  -0.00124   0.00000  -0.07026  -0.07026   3.04855
   D25       -0.02110  -0.00145   0.00000  -0.06854  -0.06854  -0.08963
   D26       -1.10848  -0.00020   0.00000  -0.06251  -0.06249  -1.17096
   D27        0.94823  -0.00014   0.00000  -0.06200  -0.06200   0.88622
   D28        3.07044  -0.00004   0.00000  -0.05396  -0.05398   3.01646
   D29        2.03136   0.00002   0.00000  -0.06430  -0.06427   1.96709
   D30       -2.19512   0.00008   0.00000  -0.06379  -0.06379  -2.25891
   D31       -0.07291   0.00018   0.00000  -0.05574  -0.05576  -0.12868
         Item               Value     Threshold  Converged?
 Maximum Force            0.007342     0.000450     NO 
 RMS     Force            0.001541     0.000300     NO 
 Maximum Displacement     0.233857     0.001800     NO 
 RMS     Displacement     0.061182     0.001200     NO 
 Predicted change in Energy=-3.706204D-04
 GradGradGradGradGradGradGradGradGradGradGradGradGradGradGradGradGradGrad

                          Input orientation:                          
 ---------------------------------------------------------------------
 Center     Atomic      Atomic             Coordinates (Angstroms)
 Number     Number       Type             X           Y           Z
 ---------------------------------------------------------------------
      1          6           0       -1.057123    0.201880    0.280182
      2          8           0        0.038845   -0.147852    0.607606
      3          8           0       -1.476486    1.468764    0.270907
      4          6           0       -2.187175   -0.735021   -0.122475
      5          1           0       -2.709933   -0.289979   -0.969703
      6          6           0       -3.122860   -0.968325    1.048566
      7          1           0       -3.563575   -0.024263    1.365046
      8          1           0       -3.918391   -1.650343    0.753213
      9          1           0       -2.573785   -1.406703    1.881631
     10          8           0       -1.644200   -1.991284   -0.492195
     11          6           0       -0.501053    2.433024    0.666811
     12          1           0        0.355677    2.392498   -0.003663
     13          1           0       -0.993629    3.398184    0.603686
     14          1           0       -0.166628    2.235956    1.684232
     15          6           0       -0.875108   -1.984198   -1.601480
     16          6           0       -0.248014   -3.324922   -1.833145
     17          1           0        0.467867   -3.514545   -1.032997
     18          1           0       -1.005724   -4.105909   -1.795229
     19          1           0        0.258078   -3.325624   -2.793024
     20          8           0       -0.732783   -1.011339   -2.285970
 ---------------------------------------------------------------------
                    Distance matrix (angstroms):
                    1          2          3          4          5
     1  C    0.000000
     2  O    1.196104   0.000000
     3  O    1.334521   2.241215   0.000000
     4  C    1.522148   2.415150   2.348722   0.000000
     5  H    2.129770   3.172363   2.480661   1.090474   0.000000
     6  C    2.495409   3.296059   3.042154   1.516996   2.168887
     7  H    2.740506   3.683262   2.789661   2.147644   2.500072
     8  H    3.441126   4.235375   3.990532   2.145170   2.505873
     9  H    2.729916   3.167599   3.473731   2.148735   3.065242
    10  O    2.398165   2.727718   3.547165   1.417643   2.063550
    11  C    2.331673   2.637408   1.427588   3.674573   3.869377
    12  H    2.622094   2.631998   2.070144   4.032565   4.186512
    13  H    3.213261   3.693291   2.016571   4.362940   4.361629
    14  H    2.627128   2.623716   2.074078   4.021629   4.460058
    15  C    2.890107   3.014554   3.973717   2.338679   2.576063
    16  C    4.190363   4.016631   5.377322   3.659825   4.002181
    17  H    4.226328   3.769649   5.505818   3.950196   4.527719
    18  H    4.781947   4.746678   5.963850   3.944213   4.259946
    19  H    4.859798   4.659461   5.948322   4.452226   4.620468
    20  O    2.856963   3.116698   3.638904   2.621511   2.482346
                    6          7          8          9         10
     6  C    0.000000
     7  H    1.088872   0.000000
     8  H    1.088692   1.773237   0.000000
     9  H    1.089796   1.776987   1.772189   0.000000
    10  O    2.367874   3.317004   2.615192   2.615514   0.000000
    11  C    4.311471   3.988086   5.325369   4.529405   4.714295
    12  H    4.950004   4.803606   5.931701   5.154610   4.843110
    13  H    4.878314   4.347118   5.836456   5.216989   5.538101
    14  H    4.405769   4.092642   5.481409   4.370622   4.978916
    15  C    3.620377   4.457519   3.862333   3.918043   1.349839
    16  C    4.703461   5.667073   4.792195   4.784175   2.350760
    17  H    4.869236   5.846811   5.089701   4.710594   2.659627
    18  H    4.734328   5.761056   4.583447   4.823259   2.564603
    19  H    5.634307   6.541679   5.729333   5.792590   3.270006
    20  O    4.102859   4.724153   4.448940   4.573238   2.237991
                   11         12         13         14         15
    11  C    0.000000
    12  H    1.088653   0.000000
    13  H    1.085426   1.789107   0.000000
    14  H    1.088954   1.773780   1.789493   0.000000
    15  C    4.979649   4.819057   5.817804   5.395140   0.000000
    16  C    6.282336   6.033269   7.189871   6.580420   1.498151
    17  H    6.261128   5.997105   7.252622   6.391727   2.113933
    18  H    7.005282   6.876948   7.878220   7.282168   2.134539
    19  H    6.760826   6.362937   7.636361   7.152437   2.122101
    20  O    4.542714   4.240256   5.278451   5.160228   1.198015
                   16         17         18         19         20
    16  C    0.000000
    17  H    1.090266   0.000000
    18  H    1.088808   1.761301   0.000000
    19  H    1.085125   1.782526   1.789312   0.000000
    20  O    2.406806   3.045906   3.145105   2.568039   0.000000
 Symmetry turned off by external request.
 Stoichiometry    C6H10O4
 Framework group  C1[X(C6H10O4)]
 Deg. of freedom    54
 Full point group                 C1      NOp   1
 Rotational constants (GHZ):           2.2342293           0.9090921           0.7574834
 Standard basis: def2TZVP (5D, 7F)
   370 basis functions,   590 primitive gaussians,   420 cartesian basis functions
    39 alpha electrons       39 beta electrons
       nuclear repulsion energy       573.2839495052 Hartrees.
 NAtoms=   20 NActive=   20 NUniq=   20 SFac= 1.00D+00 NAtFMM=   60 NAOKFM=F Big=F
 Integral buffers will be    131072 words long.
 Raffenetti 2 integral format.
 Two-electron integral symmetry is turned off.
 One-electron integrals computed using PRISM.
   1 Symmetry operations used in ECPInt.
 ECPInt:  NShTT=   11325 NPrTT=   34180 LenC2=   10827 LenP2D=   25083.
 LDataN:  DoStor=T MaxTD1= 6 Len=  172
 NBasis=   370 RedAO= T EigKep=  1.44D-04  NBF=   370
 NBsUse=   370 1.00D-06 EigRej= -1.00D+00 NBFU=   370
 Initial guess from the checkpoint file:  "/oasis/scratch/comet/mayes/temp_project/lme2acetoxypropionate_25_t.chk"
 B after Tr=    -0.023936   -0.010575   -0.018987
         Rot=    0.999995   -0.001622   -0.002495    0.000705 Ang=  -0.35 deg.
 ExpMin= 9.52D-02 ExpMax= 2.70D+04 ExpMxC= 9.22D+02 IAcc=3 IRadAn=         5 AccDes= 0.00D+00
 Harris functional with IExCor= 1009 and IRadAn=       5 diagonalized for initial guess.
 HarFok:  IExCor= 1009 AccDes= 0.00D+00 IRadAn=         5 IDoV= 1 UseB2=F ITyADJ=14
 ICtDFT=  3500011 ScaDFX=  1.000000  1.000000  1.000000  1.000000
 FoFCou: FMM=F IPFlag=           0 FMFlag=      100000 FMFlg1=           0
         NFxFlg=           0 DoJE=T BraDBF=F KetDBF=T FulRan=T
         wScrn=  0.000000 ICntrl=       500 IOpCl=  0 I1Cent=   200000004 NGrid=           0
         NMat0=    1 NMatS0=      1 NMatT0=    0 NMatD0=    1 NMtDS0=    0 NMtDT0=    0
 Symmetry not used in FoFCou.
 Requested convergence on RMS density matrix=1.00D-08 within  32 cycles.
 Requested convergence on MAX density matrix=1.00D-06.
 Requested convergence on             energy=1.00D-06.
 No special actions if energy rises.
 Integral accuracy reduced to 1.0D-05 until final iterations.
 Initial convergence to 1.0D-05 achieved.  Increase integral accuracy.
 SCF Done:  E(RM062X) =  -535.578430293     A.U. after   12 cycles
            NFock= 12  Conv=0.96D-08     -V/T= 2.0044
 QCSCF skips out because SCF is already converged.
   1 Symmetry operations used in ECPInt.
 ECPInt:  NShTT=   11325 NPrTT=   34180 LenC2=   10827 LenP2D=   25083.
 LDataN:  DoStor=T MaxTD1= 7 Len=  274
 Calling FoFJK, ICntrl=      2127 FMM=F ISym2X=0 I1Cent= 0 IOpClX= 0 NMat=1 NMatS=1 NMatT=0.
 -------------------------------------------------------------------
 Center     Atomic                   Forces (Hartrees/Bohr)
 Number     Number              X              Y              Z
 -------------------------------------------------------------------
      1        6          -0.000852056    0.000251177   -0.000096435
      2        8           0.000671772   -0.000216010    0.000046573
      3        8           0.000070994   -0.000295902    0.000010112
      4        6          -0.000036127    0.000047647    0.000025551
      5        1           0.000011866   -0.000023128   -0.000006012
      6        6          -0.000034111    0.000088735    0.000003706
      7        1           0.000022669    0.000003182    0.000002190
      8        1           0.000032572   -0.000005541   -0.000021260
      9        1          -0.000018290   -0.000013641    0.000017150
     10        8          -0.000013503   -0.000005832   -0.000035663
     11        6           0.000083063    0.000216139    0.000048682
     12        1          -0.000004070    0.000031798   -0.000020401
     13        1           0.000025296   -0.000013414    0.000002750
     14        1          -0.000038121    0.000009025    0.000019684
     15        6          -0.000033353   -0.000625806    0.000210351
     16        6           0.000049231    0.000070941   -0.000036716
     17        1           0.000002288    0.000075587   -0.000018573
     18        1          -0.000041650    0.000039007    0.000049129
     19        1           0.000014356   -0.000037727   -0.000026097
     20        8           0.000087173    0.000403766   -0.000174722
 -------------------------------------------------------------------
 Cartesian Forces:  Max     0.000852056 RMS     0.000188447

 GradGradGradGradGradGradGradGradGradGradGradGradGradGradGradGradGradGrad
 Berny optimization.
 Using GEDIIS/GDIIS optimizer.
 FormGI is forming the generalized inverse of G from B-inverse, IUseBI=4.
 Internal  Forces:  Max     0.000691603 RMS     0.000109213
 Search for a local minimum.
 Step number   2 out of a maximum of   92
 ... (edited for test) ...
 Step number   6 out of a maximum of   92
 All quantities printed in internal units (Hartrees-Bohrs-Radians)
 Mixed Optimization -- En-DIIS/RFO-DIIS
 Swapping is turned off.
 Update second derivatives using D2CorX and points    1    2    3    4    5
                                                      6
 DE= -7.93D-09 DEPred=-7.74D-09 R= 1.02D+00
 Trust test= 1.02D+00 RLast= 4.19D-03 DXMaxT set to 5.69D-01
 ITU=  0  0  1  0  1  0
     Eigenvalues ---    0.00050   0.00168   0.00268   0.00324   0.01091
     Eigenvalues ---    0.02163   0.03172   0.04288   0.04429   0.04607
     Eigenvalues ---    0.04893   0.05248   0.05444   0.05567   0.06056
     Eigenvalues ---    0.06864   0.08258   0.08399   0.12336   0.12401
     Eigenvalues ---    0.13089   0.13126   0.13236   0.13831   0.14388
     Eigenvalues ---    0.18017   0.18628   0.18807   0.18904   0.21134
     Eigenvalues ---    0.21239   0.24597   0.25422   0.25696   0.27447
     Eigenvalues ---    0.31270   0.33315   0.34441   0.34695   0.34775
     Eigenvalues ---    0.34783   0.34997   0.35009   0.35303   0.35472
     Eigenvalues ---    0.35797   0.35966   0.36753   0.38282   0.38859
     Eigenvalues ---    0.49265   0.49681   0.89593   0.91074
 En-DIIS/RFO-DIIS/Sim-DIIS IScMMF=       -3 using points:     6    5    4    3    2
 RFO step:  Lambda=-1.36692886D-11.
 DIIS inversion failure, remove point   5.
 DIIS inversion failure, remove point   4.
 RFO-DIIS uses    3 points instead of    5
 DidBck=F Rises=F RFO-DIIS coefs:    1.02126   -0.00463   -0.01663    0.00000    0.00000
 Iteration  1 RMS(Cart)=  0.00005010 RMS(Int)=  0.00000000
 Iteration  2 RMS(Cart)=  0.00000000 RMS(Int)=  0.00000000
 Variable       Old X    -DE/DX   Delta X   Delta X   Delta X     New X
                                 (Linear)    (Quad)   (Total)
    R1        2.26110   0.00000   0.00000  -0.00000   0.00000   2.26110
    R2        2.52147   0.00000  -0.00000   0.00000  -0.00000   2.52147
    R3        2.87645   0.00000  -0.00000   0.00000   0.00000   2.87645
    R4        2.69839   0.00000   0.00000  -0.00000   0.00000   2.69839
    R5        2.06081   0.00000  -0.00000   0.00000   0.00000   2.06081
    R6        2.86675  -0.00000  -0.00000   0.00000  -0.00000   2.86675
    R7        2.67860  -0.00000   0.00000  -0.00000   0.00000   2.67860
    R8        2.05746   0.00000  -0.00000   0.00000   0.00000   2.05746
    R9        2.05728   0.00000  -0.00000   0.00000   0.00000   2.05728
   R10        2.05949  -0.00000   0.00000  -0.00000  -0.00000   2.05949
   R11        2.55130   0.00000   0.00000   0.00000   0.00000   2.55130
   R12        2.05725  -0.00000  -0.00000  -0.00000  -0.00000   2.05725
   R13        2.05107   0.00000  -0.00000   0.00000   0.00000   2.05107
   R14        2.05781   0.00000  -0.00000   0.00000   0.00000   2.05781
   R15        2.83045  -0.00000  -0.00000   0.00000  -0.00000   2.83045
   R16        2.26431  -0.00000   0.00000  -0.00000  -0.00000   2.26430
   R17        2.06090   0.00000   0.00000  -0.00000   0.00000   2.06090
   R18        2.05688  -0.00000  -0.00000  -0.00000  -0.00000   2.05688
   R19        2.05080   0.00000  -0.00000   0.00000   0.00000   2.05080
    A1        2.17394   0.00000  -0.00000   0.00000   0.00000   2.17394
    A2        2.18095  -0.00000  -0.00000   0.00000  -0.00000   2.18094
    A3        1.92749   0.00000   0.00000  -0.00000   0.00000   1.92750
    A4        2.01049   0.00000   0.00000   0.00000   0.00000   2.01049
    A5        1.88538   0.00000   0.00000  -0.00000  -0.00000   1.88538
    A6        1.92855   0.00000   0.00000   0.00000   0.00000   1.92855
    A7        1.90582  -0.00000  -0.00000   0.00000  -0.00000   1.90582
    A8        1.94555  -0.00000  -0.00000   0.00000   0.00000   1.94555
    A9        1.92064  -0.00000  -0.00000   0.00000  -0.00000   1.92064
   A10        1.87785   0.00000   0.00000  -0.00000   0.00000   1.87785
   A11        1.91824   0.00000  -0.00000   0.00000   0.00000   1.91824
   A12        1.91455  -0.00000  -0.00000   0.00000  -0.00000   1.91455
   A13        1.91987  -0.00000   0.00000  -0.00000  -0.00000   1.91987
   A14        1.90364   0.00000  -0.00000   0.00000   0.00000   1.90364
   A15        1.90757   0.00000  -0.00000   0.00000  -0.00000   1.90757
   A16        1.89975   0.00000   0.00000   0.00000   0.00000   1.89975
   A17        2.01334  -0.00000   0.00000  -0.00000  -0.00000   2.01334
   A18        1.91982   0.00000   0.00000   0.00000   0.00000   1.91982
   A19        1.84864  -0.00000   0.00000  -0.00000  -0.00000   1.84864
   A20        1.92444   0.00000  -0.00000   0.00000  -0.00000   1.92444
   A21        1.93302  -0.00000  -0.00000  -0.00000  -0.00000   1.93302
   A22        1.90443  -0.00000   0.00000  -0.00000   0.00000   1.90443
   A23        1.93315   0.00000  -0.00000   0.00000   0.00000   1.93315
   A24        1.94056   0.00000  -0.00000   0.00000   0.00000   1.94056
   A25        2.14298   0.00000  -0.00000   0.00000   0.00000   2.14298
   A26        2.19962  -0.00000   0.00000  -0.00001  -0.00000   2.19961
   A27        1.88784  -0.00000  -0.00001   0.00000  -0.00001   1.88783
   A28        1.92672  -0.00000   0.00001  -0.00000   0.00001   1.92673
   A29        1.91081   0.00000   0.00000   0.00000   0.00000   1.91082
   A30        1.88363   0.00000  -0.00000   0.00000   0.00000   1.88364
   A31        1.91722   0.00000  -0.00001   0.00000  -0.00001   1.91722
   A32        1.93681  -0.00000   0.00001  -0.00001   0.00000   1.93681
    D1        0.01754   0.00000  -0.00001   0.00001   0.00000   0.01754
    D2        3.11790  -0.00000  -0.00001   0.00001  -0.00000   3.11790
    D3       -2.40361  -0.00000  -0.00002  -0.00000  -0.00002  -2.40363
    D4        1.74711  -0.00000  -0.00002  -0.00001  -0.00002   1.74709
    D5       -0.31505  -0.00000  -0.00002  -0.00000  -0.00002  -0.31507
    D6        0.77942  -0.00000  -0.00002  -0.00000  -0.00002   0.77940
    D7       -1.35304  -0.00000  -0.00002  -0.00000  -0.00002  -1.35306
    D8        2.86798  -0.00000  -0.00002  -0.00000  -0.00002   2.86796
    D9        1.04754   0.00000   0.00000  -0.00002  -0.00001   1.04753
   D10        3.13724  -0.00000   0.00000  -0.00002  -0.00001   3.13723
   D11       -1.05360  -0.00000   0.00000  -0.00002  -0.00001  -1.05361
   D12        1.06175   0.00000  -0.00001   0.00001   0.00000   1.06175
   D13       -3.12852   0.00000  -0.00001   0.00001   0.00000  -3.12852
   D14       -1.03937   0.00000  -0.00001   0.00001   0.00000  -1.03937
   D15       -1.03498  -0.00000  -0.00001   0.00001  -0.00000  -1.03498
   D16        1.05794  -0.00000  -0.00001   0.00001   0.00000   1.05794
   D17       -3.13610  -0.00000  -0.00001   0.00001   0.00000  -3.13610
   D18        3.14094   0.00000  -0.00001   0.00001  -0.00000   3.14094
   D19       -1.04933   0.00000  -0.00001   0.00001   0.00000  -1.04933
   D20        1.03982   0.00000  -0.00001   0.00001   0.00000   1.03982
   D21       -1.15402  -0.00000   0.00000  -0.00001  -0.00001  -1.15402
   D22        0.91264  -0.00000   0.00000  -0.00001  -0.00001   0.91263
   D23        3.03550  -0.00000   0.00000  -0.00001  -0.00001   3.03550
   D24        3.03278  -0.00000  -0.00002   0.00001  -0.00002   3.03277
   D25       -0.10068  -0.00000  -0.00001   0.00000  -0.00000  -0.10069
   D26       -1.23758  -0.00000  -0.00012  -0.00000  -0.00012  -1.23770
   D27        0.81972  -0.00000  -0.00012   0.00000  -0.00012   0.81960
   D28        2.95683  -0.00000  -0.00010  -0.00001  -0.00011   2.95672
   D29        1.89556  -0.00000  -0.00013  -0.00000  -0.00013   1.89543
   D30       -2.33032  -0.00000  -0.00014   0.00001  -0.00013  -2.33045
   D31       -0.19321  -0.00000  -0.00012  -0.00000  -0.00012  -0.19333
         Item               Value     Threshold  Converged?
 Maximum Force            0.000000     0.000450     YES
 RMS     Force            0.000000     0.000300     YES
 Maximum Displacement     0.000223     0.001800     YES
 RMS     Displacement     0.000050     0.001200     YES
 Predicted change in Energy=-4.111483D-11
 Optimization completed.
    -- Stationary point found.
                           ----------------------------
                           !   Optimized Parameters   !
                           ! (Angstroms and Degrees)  !
 --------------------------                            --------------------------
 ! Name  Definition              Value          Derivative Info.                !
 --------------------------------------------------------------------------------
 ! R1    R(1,2)                  1.1965         -DE/DX =    0.0                 !
 ! R2    R(1,3)                  1.3343         -DE/DX =    0.0                 !
 ! R3    R(1,4)                  1.5222         -DE/DX =    0.0                 !
 ! R4    R(3,11)                 1.4279         -DE/DX =    0.0                 !
 ! R5    R(4,5)                  1.0905         -DE/DX =    0.0                 !
 ! R6    R(4,6)                  1.517          -DE/DX =    0.0                 !
 ! R7    R(4,10)                 1.4175         -DE/DX =    0.0                 !
 ! R8    R(6,7)                  1.0888         -DE/DX =    0.0                 !
 ! R9    R(6,8)                  1.0887         -DE/DX =    0.0                 !
 ! R10   R(6,9)                  1.0898         -DE/DX =    0.0                 !
 ! R11   R(10,15)                1.3501         -DE/DX =    0.0                 !
 ! R12   R(11,12)                1.0886         -DE/DX =    0.0                 !
 ! R13   R(11,13)                1.0854         -DE/DX =    0.0                 !
 ! R14   R(11,14)                1.0889         -DE/DX =    0.0                 !
 ! R15   R(15,16)                1.4978         -DE/DX =    0.0                 !
 ! R16   R(15,20)                1.1982         -DE/DX =    0.0                 !
 ! R17   R(16,17)                1.0906         -DE/DX =    0.0                 !
 ! R18   R(16,18)                1.0885         -DE/DX =    0.0                 !
 ! R19   R(16,19)                1.0852         -DE/DX =    0.0                 !
 ! A1    A(2,1,3)              124.5578         -DE/DX =    0.0                 !
 ! A2    A(2,1,4)              124.9591         -DE/DX =    0.0                 !
 ! A3    A(3,1,4)              110.4373         -DE/DX =    0.0                 !
 ! A4    A(1,3,11)             115.1924         -DE/DX =    0.0                 !
 ! A5    A(1,4,5)              108.0244         -DE/DX =    0.0                 !
 ! A6    A(1,4,6)              110.4976         -DE/DX =    0.0                 !
 ! A7    A(1,4,10)             109.1955         -DE/DX =    0.0                 !
 ! A8    A(5,4,6)              111.4717         -DE/DX =    0.0                 !
 ! A9    A(5,4,10)             110.0445         -DE/DX =    0.0                 !
 ! A10   A(6,4,10)             107.593          -DE/DX =    0.0                 !
 ! A11   A(4,6,7)              109.9073         -DE/DX =    0.0                 !
 ! A12   A(4,6,8)              109.6958         -DE/DX =    0.0                 !
 ! A13   A(4,6,9)              110.0003         -DE/DX =    0.0                 !
 ! A14   A(7,6,8)              109.0704         -DE/DX =    0.0                 !
 ! A15   A(7,6,9)              109.2959         -DE/DX =    0.0                 !
 ! A16   A(8,6,9)              108.8479         -DE/DX =    0.0                 !
 ! A17   A(4,10,15)            115.3559         -DE/DX =    0.0                 !
 ! A18   A(3,11,12)            109.9977         -DE/DX =    0.0                 !
 ! A19   A(3,11,13)            105.9193         -DE/DX =    0.0                 !
 ! A20   A(3,11,14)            110.2621         -DE/DX =    0.0                 !
 ! A21   A(12,11,13)           110.754          -DE/DX =    0.0                 !
 ! A22   A(12,11,14)           109.1159         -DE/DX =    0.0                 !
 ! A23   A(13,11,14)           110.7615         -DE/DX =    0.0                 !
 ! A24   A(10,15,16)           111.1857         -DE/DX =    0.0                 !
 ! A25   A(10,15,20)           122.7837         -DE/DX =    0.0                 !
 ! A26   A(16,15,20)           126.0288         -DE/DX =    0.0                 !
 ! A27   A(15,16,17)           108.1654         -DE/DX =    0.0                 !
 ! A28   A(15,16,18)           110.393          -DE/DX =    0.0                 !
 ! A29   A(15,16,19)           109.4816         -DE/DX =    0.0                 !
 ! A30   A(17,16,18)           107.9242         -DE/DX =    0.0                 !
 ! A31   A(17,16,19)           109.8488         -DE/DX =    0.0                 !
 ! A32   A(18,16,19)           110.971          -DE/DX =    0.0                 !
 ! D1    D(2,1,3,11)             1.005          -DE/DX =    0.0                 !
 ! D2    D(4,1,3,11)           178.6423         -DE/DX =    0.0                 !
 ! D3    D(2,1,4,5)           -137.7168         -DE/DX =    0.0                 !
 ! D4    D(2,1,4,6)            100.1023         -DE/DX =    0.0                 !
 ! D5    D(2,1,4,10)           -18.0509         -DE/DX =    0.0                 !
 ! D6    D(3,1,4,5)             44.6575         -DE/DX =    0.0                 !
 ! D7    D(3,1,4,6)            -77.5234         -DE/DX =    0.0                 !
 ! D8    D(3,1,4,10)           164.3234         -DE/DX =    0.0                 !
 ! D9    D(1,3,11,12)           60.0196         -DE/DX =    0.0                 !
 ! D10   D(1,3,11,13)          179.7507         -DE/DX =    0.0                 !
 ! D11   D(1,3,11,14)          -60.3667         -DE/DX =    0.0                 !
 ! D12   D(1,4,6,7)             60.8336         -DE/DX =    0.0                 !
 ! D13   D(1,4,6,8)           -179.2509         -DE/DX =    0.0                 !
 ! D14   D(1,4,6,9)            -59.5518         -DE/DX =    0.0                 !
 ! D15   D(5,4,6,7)            -59.3            -DE/DX =    0.0                 !
 ! D16   D(5,4,6,8)             60.6155         -DE/DX =    0.0                 !
 ! D17   D(5,4,6,9)           -179.6853         -DE/DX =    0.0                 !
 ! D18   D(10,4,6,7)           179.9626         -DE/DX =    0.0                 !
 ! D19   D(10,4,6,8)           -60.122          -DE/DX =    0.0                 !
 ! D20   D(10,4,6,9)            59.5772         -DE/DX =    0.0                 !
 ! D21   D(1,4,10,15)          -66.1202         -DE/DX =    0.0                 !
 ! D22   D(5,4,10,15)           52.2903         -DE/DX =    0.0                 !
 ! D23   D(6,4,10,15)          173.9216         -DE/DX =    0.0                 !
 ! D24   D(4,10,15,16)         173.7656         -DE/DX =    0.0                 !
 ! D25   D(4,10,15,20)          -5.7688         -DE/DX =    0.0                 !
 ! D26   D(10,15,16,17)        -70.9083         -DE/DX =    0.0                 !
 ! D27   D(10,15,16,18)         46.9663         -DE/DX =    0.0                 !
 ! D28   D(10,15,16,19)        169.4138         -DE/DX =    0.0                 !
 ! D29   D(20,15,16,17)        108.6076         -DE/DX =    0.0                 !
 ! D30   D(20,15,16,18)       -133.5178         -DE/DX =    0.0                 !
 ! D31   D(20,15,16,19)        -11.0703         -DE/DX =    0.0                 !
 --------------------------------------------------------------------------------
 GradGradGradGradGradGradGradGradGradGradGradGradGradGradGradGradGradGrad

                          Input orientation:                          
 ---------------------------------------------------------------------
 Center     Atomic      Atomic             Coordinates (Angstroms)
 Number     Number       Type             X           Y           Z
 ---------------------------------------------------------------------
      1          6           0       -1.055103    0.200794    0.270203
      2          8           0        0.048575   -0.150743    0.570182
      3          8           0       -1.478272    1.466049    0.290926
      4          6           0       -2.188714   -0.732284   -0.131337
      5          1           0       -2.707216   -0.287095   -0.981175
      6          6           0       -3.129697   -0.958382    1.036897
      7          1           0       -3.566693   -0.011460    1.349574
      8          1           0       -3.927182   -1.637229    0.739612
      9          1           0       -2.586623   -1.398012    1.873282
     10          8           0       -1.649023   -1.991052   -0.496591
     11          6           0       -0.499603    2.427879    0.685964
     12          1           0        0.346197    2.401276    0.001079
     13          1           0       -0.996623    3.391950    0.646073
     14          1           0       -0.148414    2.216092    1.694735
     15          6           0       -0.883809   -1.991267   -1.608880
     16          6           0       -0.242174   -3.327442   -1.824220
     17          1           0        0.525562   -3.462811   -1.061576
     18          1           0       -0.975120   -4.123504   -1.706707
     19          1           0        0.209072   -3.357476   -2.810739
     20          8           0       -0.751138   -1.025283   -2.305300
 ---------------------------------------------------------------------
                    Distance matrix (angstroms):
                    1          2          3          4          5
     1  C    0.000000
     2  O    1.196524   0.000000
     3  O    1.334306   2.241263   0.000000
     4  C    1.522151   2.415736   2.348553   0.000000
     5  H    2.129193   3.165388   2.490393   1.090533   0.000000
     6  C    2.497088   3.312327   3.026804   1.517017   2.168348
     7  H    2.741930   3.700948   2.768622   2.147444   2.499414
     8  H    3.442022   4.247939   3.978544   2.144703   2.504454
     9  H    2.733422   3.193433   3.454727   2.149424   3.065388
    10  O    2.396853   2.721503   3.549773   1.417453   2.063508
    11  C    2.332669   2.638787   1.427924   3.675284   3.876080
    12  H    2.622630   2.631589   2.070592   4.032680   4.185152
    13  H    3.213747   3.694438   2.016732   4.362884   4.371434
    14  H    2.629221   2.627800   2.074071   4.023716   4.469218
    15  C    2.892305   3.000863   3.989446   2.339005   2.573524
    16  C    4.182811   3.988623   5.383246   3.659195   4.003856
    17  H    4.206440   3.722895   5.489834   3.960860   4.532382
    18  H    4.755431   4.692015   5.957080   3.931281   4.271368
    19  H    4.873564   4.662566   5.977779   4.451988   4.612947
    20  O    2.868602   3.110106   3.670947   2.622706   2.474766
                    6          7          8          9         10
     6  C    0.000000
     7  H    1.088759   0.000000
     8  H    1.088666   1.773452   0.000000
     9  H    1.089836   1.776889   1.771872   0.000000
    10  O    2.368626   3.317314   2.615989   2.616694   0.000000
    11  C    4.302013   3.974644   5.317544   4.516948   4.716626
    12  H    4.943891   4.790662   5.925936   5.151812   4.849859
    13  H    4.860878   4.322427   5.821474   5.194023   5.541482
    14  H    4.404326   4.094601   5.480824   4.363312   4.975320
    15  C    3.620911   4.457573   3.860424   3.921349   1.350088
    16  C    4.704914   5.667551   4.796805   4.784419   2.351119
    17  H    4.902720   5.871288   5.138478   4.749998   2.685908
    18  H    4.710367   5.741604   4.569541   4.779285   2.542808
    19  H    5.630926   6.539146   5.716016   5.796159   3.267248
    20  O    4.102718   4.723695   4.442209   4.579135   2.238378
                   11         12         13         14         15
    11  C    0.000000
    12  H    1.088648   0.000000
    13  H    1.085381   1.789027   0.000000
    14  H    1.088947   1.774092   1.789355   0.000000
    15  C    4.994275   4.837284   5.837513   5.399681   0.000000
    16  C    6.284188   6.041201   7.198733   6.566780   1.497808
    17  H    6.229373   5.962292   7.226400   6.348341   2.109813
    18  H    6.990823   6.872784   7.875156   7.241804   2.136432
    19  H    6.797021   6.410019   7.678411   7.175775   2.122588
    20  O    4.575507   4.273738   5.318159   5.183635   1.198219
                   16         17         18         19         20
    16  C    0.000000
    17  H    1.090582   0.000000
    18  H    1.088455   1.762031   0.000000
    19  H    1.085239   1.780683   1.791088   0.000000
    20  O    2.406328   3.019662   3.163456   2.572274   0.000000
 Symmetry turned off by external request.
 Stoichiometry    C6H10O4
 Framework group  C1[X(C6H10O4)]
 Deg. of freedom    54
 Full point group                 C1      NOp   1
 Rotational constants (GHZ):           2.2410069           0.9069593           0.7564128

 **********************************************************************

            Population analysis using the SCF Density.

 **********************************************************************

 Alpha  occ. eigenvalues --  -19.67934 -19.67402 -19.62114 -19.61706 -10.67378
 Alpha  occ. eigenvalues --  -10.67373 -10.61590 -10.59414 -10.54498 -10.54497
...
 Alpha virt. eigenvalues --   23.40254  23.48079  44.03775  44.07879  44.26180
 Alpha virt. eigenvalues --   44.48546
          Condensed to atoms (all electrons):
               1          2          3          4          5          6
     1  C    4.663777   0.620634   0.342010   0.224627  -0.093320  -0.016187
     2  O    0.620634   7.818294  -0.082857  -0.057161   0.003671  -0.008485
...
    19  H    0.504899   0.005708
    20  O    0.005708   7.842653
 Mulliken charges:
               1
     1  C    0.357155
     2  O   -0.323724
     3  O   -0.274923
     4  C    0.016647
     5  H    0.167655
     6  C   -0.432726
     7  H    0.156641
     8  H    0.154007
     9  H    0.161622
    10  O   -0.264321
    11  C   -0.256440
    12  H    0.160332
    13  H    0.145790
    14  H    0.150647
    15  C    0.385560
    16  C   -0.452101
    17  H    0.170074
    18  H    0.155432
    19  H    0.156757
    20  O   -0.334085
 Sum of Mulliken charges =  -0.00000
 Mulliken charges with hydrogens summed into heavy atoms:
               1
     1  C    0.357155
     2  O   -0.323724
     3  O   -0.274923
     4  C    0.184303
     6  C    0.039544
    10  O   -0.264321
    11  C    0.200330
    15  C    0.385560
    16  C    0.030162
    20  O   -0.334085
 Electronic spatial extent (au):  <R**2>=           2134.6952
 Charge=             -0.0000 electrons
 Dipole moment (field-independent basis, Debye):
    X=             -1.5833    Y=              0.0214    Z=              1.2153  Tot=              1.9960
 Quadrupole moment (field-independent basis, Debye-Ang):
   XX=            -54.6840   YY=            -47.7698   ZZ=            -62.4492
   XY=              1.2818   XZ=             -2.3935   YZ=              4.9645
 Traceless Quadrupole moment (field-independent basis, Debye-Ang):
   XX=              0.2837   YY=              7.1979   ZZ=             -7.4816
   XY=              1.2818   XZ=             -2.3935   YZ=              4.9645
 Octapole moment (field-independent basis, Debye-Ang**2):
  XXX=            197.0678  YYY=            100.7612  ZZZ=             71.4325  XYY=             71.5242
  XXY=             29.4312  XXZ=             19.9040  XZZ=             72.4918  YZZ=             31.8588
  YYZ=              6.4416  XYZ=             -0.8897
 Hexadecapole moment (field-independent basis, Debye-Ang**3):
 XXXX=           -883.8192 YYYY=          -1130.8182 ZZZZ=           -612.9154 XXXY=           -117.1126
 XXXZ=             13.9324 YYYX=           -144.8774 YYYZ=           -196.4242 ZZZX=              1.7065
 ZZZY=           -253.6213 XXYY=           -365.9706 XXZZ=           -249.6833 YYZZ=           -271.7958
 XXYZ=            -87.0229 YYXZ=              8.8251 ZZXY=            -44.9583
 N-N= 5.732059980051D+02 E-N=-2.401033535977D+03  KE= 5.332232928659D+02
 1\1\GINC-COMET-23-70\FOpt\RM062X\def2TZVP\C6H10O4\MAYES\03-Oct-2019\0\
 \# m062x/Def2TZVP nosymm scf=xqc opt=ReadFC freq=NoRaman CPHF=Grid=Fin
 e guess=read geom=allcheck\\obabel lme2acetoxypropionate_0.pdb -O lme2
 acetoxypropionate.pdb --confab --conf10000 --original\\0,1\C,-1.055102
 6844,0.2007941782,0.2702032886\O,0.0485745242,-0.1507430204,0.57018201
 5\O,-1.4782723937,1.4660488941,0.2909257785\C,-2.1887136897,-0.7322843
 206,-0.1313374888\H,-2.7072159679,-0.2870947279,-0.9811754725\C,-3.129
 6967205,-0.9583822269,1.0368967614\H,-3.5666933395,-0.0114598139,1.349
 5742076\H,-3.9271819635,-1.6372288133,0.7396119847\H,-2.5866233663,-1.
 3980119466,1.8732815129\O,-1.6490229743,-1.9910523487,-0.4965913852\C,
 -0.499603149,2.4278792724,0.6859642313\H,0.3461972313,2.4012761197,0.0
 010788063\H,-0.9966229509,3.391949679,0.6460727297\H,-0.1484137976,2.2
 160923647,1.6947347766\C,-0.8838094378,-1.9912672564,-1.6088798661\C,-
 0.2421741557,-3.327441614,-1.8242203579\H,0.5255617002,-3.4628111933,-
 1.0615758647\H,-0.9751201656,-4.1235037792,-1.7067068997\H,0.209071761
 9,-3.3574761779,-2.8107385547\O,-0.7511384614,-1.025283269,-2.30530020
 29\\Version=ES64L-G16RevB.01\HF=-535.5784425\RMSD=8.565e-09\RMSF=4.555
 e-07\Dipole=-0.62292,0.0084195,0.4781212\Quadrupole=0.2109173,5.351438
[...]
 7,0.00107556,0.00055500,-0.00008202,-0.19375630,-0.12504606,-0.0579994
 9,0.01168758,0.00860927,0.00384056,0.20872245,0.00100551,0.00007817,0.
 00108793,-0.00058120,0.00015961,-0.00028473,-0.00062312,-0.00012406,0.
 00013644,-0.00288759,-0.00451447,-0.00199912,-0.00000039,-0.00010921,0
 .00005049,-0.12642313,-0.15404684,-0.04764948,-0.02078759,-0.01531977,
 -0.00670691,0.13874470,0.16330712,0.00083783,-0.00256359,-0.00604669,0
 .00198035,0.00042298,0.00189499,-0.00009057,0.00125088,0.00074933,0.02
 378633,0.01940536,0.00569827,-0.00099640,0.00001414,0.00141018,-0.0597
 3042,-0.05006633,-0.06917585,-0.00694784,-0.00436588,-0.00354498,0.059
 97131,0.05180124,0.07380102,0.00271030,-0.00060822,0.00080230,-0.00003
 212,0.00064471,-0.00052511,-0.00018014,0.00019339,-0.00019944,0.010849
 63,-0.01010858,0.01892625,-0.00256947,-0.00018554,0.00346725,-0.119103
 81,0.05630349,-0.10795550,-0.00671431,0.00313203,-0.00923334,-0.011062
 36,0.01083195,-0.01666192,0.12519583,0.00136480,-0.00025212,0.00137907
 ,-0.00046823,0.00006542,-0.00053398,-0.00037552,-0.00028225,-0.0002986
 0,0.00270293,-0.00411624,0.00402594,-0.00083460,0.00086589,0.00043963,
 0.05470012,-0.09238810,0.08385082,0.01272632,-0.00944707,0.02211891,-0
 .00980135,0.00927367,-0.01660835,-0.05922551,0.09549225,-0.00272049,-0
 .00051574,-0.00038581,0.00120801,-0.00030646,0.00060347,0.00035161,0.0
 0018986,0.00012488,-0.01234962,0.01214539,-0.02255165,0.00399268,0.000
 32073,-0.00212378,-0.10505981,0.08243761,-0.20529704,0.00575370,-0.003
 80984,0.00931554,-0.00334175,0.00328620,-0.00621921,0.11264539,-0.0937
 4163,0.22462777,-0.00096028,-0.01554887,-0.00371773,0.00746372,-0.0046
 9971,-0.00016714,0.00048752,-0.00162172,-0.00054908,-0.08820595,0.0521
 8752,0.00838576,-0.00900716,0.02502654,0.00879902,-0.01481460,0.032986
 22,0.01278457,-0.00324761,-0.00133523,0.00561357,0.00213986,0.00046446
 ,-0.00228556,0.00154363,-0.00076149,-0.00128002,0.23772687,0.01665347,
 -0.04018287,-0.01084323,-0.00062940,0.00274861,0.00250773,-0.00862758,
 -0.00903112,-0.00411931,0.03525356,-0.20093327,-0.00219311,0.01148367,
 -0.02827323,-0.00520653,0.00549642,-0.00436992,-0.00499998,0.00002277,
 0.00111766,0.00003592,0.00001594,0.00101512,0.00057820,-0.00093636,0.0
 0084008,0.00031543,-0.08780586,0.40356002,0.01203285,-0.01219924,-0.00
 646709,-0.00275032,-0.00272255,0.00124292,-0.00461079,-0.00785311,-0.0
 0103780,0.00980088,-0.01623810,-0.08742836,-0.00362783,0.01605648,0.01
 110137,0.01956421,-0.03902896,-0.01280906,0.00553662,0.00116553,-0.006
 02645,-0.00158239,0.00029691,0.00182738,-0.00195715,-0.00061073,0.0026
 5905,-0.18518029,0.01853011,0.36419544,0.02069037,-0.01488814,0.003463
 04,-0.00921195,0.00943446,0.00009732,-0.16151634,-0.07312864,-0.036302
 46,0.00015718,0.00236792,-0.00151022,-0.00026482,0.00028860,-0.0001207
 3,0.00025160,0.00021536,0.00044649,-0.00020068,-0.00008251,0.00008991,
 0.00014511,0.00019181,-0.00016656,-0.00003049,0.00000589,-0.00004692,-
 0.00045371,0.00253191,0.00210843,0.54493076,-0.02153954,-0.06567740,-0
 .01393629,-0.01195699,0.00689636,-0.00222619,-0.04576783,-0.13242996,-
 0.02091344,0.00454885,-0.00215070,0.00006036,-0.00041298,0.00045357,-0
 .00044370,0.00014433,0.00028040,0.00030000,-0.00053178,-0.00001078,0.0
 0037599,0.00004889,0.00031109,-0.00007570,-0.00005667,0.00003737,-0.00
 004289,-0.00109553,0.00057767,0.00053577,-0.08059356,0.57004774,0.0031
 7518,-0.01166512,0.00167853,-0.00231659,0.00420018,-0.00659854,-0.0322
 8616,-0.02820505,-0.08000521,-0.00178184,-0.00055606,0.00477761,0.0006
 9357,-0.00003565,0.00015445,-0.00061292,-0.00048975,-0.00025520,-0.000
 15344,0.00009628,0.00023622,-0.00017679,0.00011528,0.00006270,0.000036
 55,0.00018605,-0.00011843,0.00019347,0.00078534,0.00081205,-0.02449085
 ,-0.02602967,0.58653833,-0.00253541,0.00546592,-0.00007291,0.00206345,
 -0.00075391,0.00046347,-0.02566041,-0.01340118,0.00867761,0.00005671,0
 .00016518,0.00000510,0.00000124,0.00003053,0.00006448,-0.00002736,0.00
 001465,-0.00003077,0.00010496,-0.00001477,-0.00009104,0.00000621,-0.00
 006472,0.00002336,0.00000061,-0.00003419,0.00001381,0.00020507,-0.0003
 1859,-0.00044373,-0.20557489,0.00944384,0.13271344,0.23028323,-0.00624
 332,0.00492972,0.00045453,0.00282687,-0.00064880,0.00086480,-0.0270252
 2,-0.01012008,0.01413694,0.00027422,0.00021325,-0.00076655,-0.00006169
 ,0.00001399,0.00003890,0.00011308,0.00002491,0.00001145,0.00009007,-0.
 00002734,-0.00007747,0.00002018,-0.00003942,-0.00001233,-0.00001321,-0
 .00003052,0.00003952,0.00016093,-0.00028927,-0.00032900,0.01642656,-0.
 05091603,-0.01219246,-0.00220564,0.05374564,0.00070270,-0.00019222,0.0
 0112791,-0.00084268,-0.00103811,-0.00022731,-0.01294311,-0.00107687,0.
 01112161,0.00007063,0.00021766,-0.00050483,-0.00011986,-0.00002714,-0.
 00001936,0.00003466,0.,-0.00003703,0.00000697,-0.00000454,-0.00004079,
 -0.00000601,-0.00001192,0.00001944,0.00001825,-0.00002723,0.00001158,0
 .00004063,-0.00005379,-0.00015833,0.13808332,-0.00652855,-0.16804192,-
 0.14451053,0.01070864,0.17182718,-0.00698482,-0.00102105,-0.00219113,0
 .00266576,0.00140672,0.00076897,0.00906777,-0.03486891,-0.00123647,0.0
 0078891,-0.00064596,0.00010963,0.00001902,0.00001105,-0.00001316,0.000
 02686,-0.00001470,-0.00004918,-0.00001875,-0.00001122,0.00002080,-0.00
 002273,-0.00000244,0.00002533,-0.00001694,-0.00000287,0.00001815,-0.00
 004793,-0.00052058,-0.00034161,-0.11629395,0.12986236,-0.00402328,-0.0
 0845569,0.02053565,-0.00353205,0.12265498,-0.00494664,0.00098459,-0.00
 128747,0.00058406,0.00039877,0.00014837,0.00499272,-0.03033200,-0.0018
 8634,0.00079270,-0.00035592,0.00020845,-0.00001385,-0.00004171,-0.0000
 1977,-0.00000580,-0.00009497,-0.00011683,0.00000160,-0.00000872,0.0000
 0202,-0.00005758,-0.00002302,0.00005001,0.00000003,0.00000872,0.000011
 07,-0.00006519,-0.00060823,-0.00049038,0.11631797,-0.26256728,0.011084
 14,0.00079524,0.00198489,0.00017725,-0.12143991,0.29352070,-0.00265558
 ,-0.00016783,-0.00063932,0.00069690,0.00038073,0.00089553,0.00314399,-
 0.01368039,-0.00039707,0.00023862,-0.00027650,0.00027084,0.00001142,0.
 00000302,-0.00000431,-0.00004717,-0.00000157,-0.00004718,0.00000759,0.
 00001060,0.00001251,-0.00001351,-0.00001640,0.00001787,-0.00000346,-0.
 00000714,0.00000298,0.00000335,-0.00018087,-0.00013949,-0.00553427,0.0
 1512111,-0.05334363,0.00912380,-0.01897615,0.00239411,0.00868338,-0.00
 854223,0.04889911,-0.00123807,0.00453504,-0.00024863,0.00116906,-0.001
 14584,0.00030097,-0.01525071,-0.00674024,-0.02664715,-0.00028928,0.000
 00793,0.00022406,0.00011848,-0.00004486,0.00010938,0.00003025,-0.00007
 616,-0.00012056,-0.00003244,0.00003110,-0.00006521,-0.00004695,-0.0000
 0481,0.00007652,0.00001539,-0.00006198,0.00002254,0.00011461,-0.000291
 59,-0.00013127,-0.07334392,0.01761463,-0.07112175,0.00968384,-0.004834
 12,0.02303368,-0.00328624,0.00322835,-0.01359733,0.08243625,-0.0047176
 5,0.00511100,-0.00274377,0.00248022,-0.00091932,0.00054345,-0.01388504
 ,-0.00406859,-0.02928886,-0.00046578,-0.00018767,0.00108540,0.00023605
 ,0.00002263,0.00011817,-0.00011507,-0.00015451,-0.00017277,0.00001088,
 0.00002478,-0.00002974,-0.00006026,-0.00003250,0.00008714,-0.00000366,
 -0.00004042,0.00002190,0.00015115,-0.00023415,-0.00006408,0.02123687,-
 0.06460392,0.06267079,0.00078219,0.00111967,-0.00225951,0.00670765,-0.
 00294557,0.02631487,-0.01230436,0.06690638,-0.00352834,0.00420155,-0.0
 0025330,0.00244434,0.00023055,0.00092821,-0.00765831,-0.00824654,-0.00
 481065,0.00007593,-0.00003465,-0.00020064,0.00007889,-0.00000472,0.000
 06770,0.00001264,0.00001554,-0.00000660,0.00002758,-0.00000923,-0.0000
 4388,0.00000884,-0.00001865,-0.00000001,-0.00000403,-0.00002423,0.0000
 2186,0.00004416,-0.00022035,0.00001862,-0.07481771,0.05421881,-0.28579
 739,-0.00622224,0.00587391,-0.01760745,0.00157509,0.00039510,0.0020261
 2,0.08798229,-0.05636082,0.30566224,0.01143781,0.00063066,-0.00208344,
 -0.00631106,-0.00179220,0.00106321,-0.00378779,-0.00423803,-0.00135423
 ,-0.02547364,0.02613431,0.02527189,0.00196293,-0.00338327,0.00027421,0
 .00021059,-0.00001870,-0.00005169,0.00069791,-0.00047130,-0.00014772,-
 0.00045090,0.00014143,0.00027856,-0.00017854,0.00019388,0.00051194,-0.
 12635917,0.02087999,0.08333041,0.00132982,0.00059516,0.00014623,-0.000
 27286,-0.00023341,-0.00008072,-0.00019395,-0.00027690,-0.00006855,-0.0
 0016326,-0.00014465,-0.00004504,0.36718558,0.00780617,-0.00556384,-0.0
 0765124,-0.00273955,0.00037847,0.00342100,-0.00120308,0.00043279,0.000
 17714,0.02120077,0.00454110,-0.03523412,0.00347564,-0.00194759,-0.0012
 0808,0.00281381,-0.00847703,-0.00072633,0.00147846,0.00058781,-0.00183
 872,-0.00043876,0.00015900,0.00049989,-0.00055945,0.00006964,0.0006570
 2,0.02079404,-0.12642308,-0.00489797,-0.00007783,-0.00082442,-0.000520
 74,-0.00014937,-0.00015200,-0.00006804,-0.00011697,0.00003499,-0.00001
 023,0.00004637,-0.00001923,0.00012238,-0.06704940,0.90851643,-0.010055
 38,-0.00833701,0.00261757,0.00596942,0.00441702,-0.00169689,0.00398143
 ,0.01048652,0.00116485,0.02879522,-0.03786080,-0.02038735,-0.00499861,
 0.00673736,0.00176867,-0.00224789,0.00457571,0.00042735,-0.00112211,0.
 00057391,0.00183352,0.00096182,-0.00025623,-0.00054153,0.00055986,-0.0
 0033266,-0.00095230,0.07916371,-0.00668920,-0.18717366,-0.00235249,-0.
 00114413,-0.00029899,0.00058178,0.00038205,0.00028216,0.00028285,0.000
 50755,0.00012410,0.00034494,0.00014961,-0.00003448,-0.15652770,-0.2443
 6219,0.59969658,-0.00137484,-0.00015094,0.00000916,0.00041641,-0.00001
 612,0.00008148,0.00036745,0.00066853,0.00018209,0.00299134,-0.00236139
 ,0.00307697,0.00002786,0.00002023,-0.00057839,-0.00018812,0.00079643,0
 .00017223,-0.00021471,-0.00007125,0.00016905,-0.00002783,-0.00004614,-
 0.00001280,0.00002671,0.00001110,-0.00004136,-0.00987517,0.02687196,0.
 01708939,-0.00014847,-0.00011315,-0.00011289,0.00002438,0.00002010,0.0
 0000345,0.00001893,0.00004079,0.00000877,0.00001534,0.00000789,0.00001
 078,-0.11440172,0.04799233,0.00807308,0.54833808,0.00025888,0.00009228
 ,0.00048312,-0.00023345,0.00020253,-0.00008505,-0.00012993,-0.00022186
 ,-0.00013066,-0.00110438,0.00261120,0.00216019,-0.00008824,-0.00010792
 ,-0.00020444,-0.00001339,0.00018724,0.00000928,-0.00007975,-0.00000800
 ,0.00005634,-0.00002731,0.00000311,0.00000692,0.00001623,0.00002031,-0
 .00002331,0.01022069,-0.00351078,-0.00622473,0.00009982,0.00013035,0.0
 0008006,0.00000344,0.00000227,0.00000730,-0.00000130,-0.00001750,-0.00
 000324,-0.00001446,-0.00000768,-0.00002129,0.05036479,-0.18447425,-0.0
 2749909,0.03375069,0.51442104,0.00104286,0.00057326,-0.00002590,-0.000
 81897,-0.00007418,0.00023073,-0.00031419,-0.00023325,-0.00002609,0.004
 35987,0.00273211,-0.00090344,0.00050979,-0.00058700,-0.00043482,0.0006
 1263,-0.00179005,-0.00025977,0.00031344,0.00013095,-0.00048965,-0.0000
 7743,0.00001670,0.00006551,-0.00006467,0.00007118,0.00004417,0.0257740
 4,-0.03284986,-0.01058508,0.00006300,-0.00001167,-0.00006870,-0.000035
 81,-0.00002970,-0.00001668,-0.00001492,-0.00000855,-0.00000527,-0.0000
 1001,-0.00001457,0.00000587,0.00771687,-0.02627435,-0.08710997,-0.0320
 4482,-0.01267727,0.60316234,-0.00028339,0.00023605,-0.00001895,0.00003
 981,-0.00009830,0.00009796,0.00006531,-0.00011300,0.00002031,0.0004542
 1,0.00023512,0.00050514,0.00007530,-0.00013325,-0.00004526,0.00000731,
 -0.00000492,-0.00003175,-0.00000099,-0.00000713,0.00000809,-0.00000407
 ,0.00000043,-0.00000482,-0.00000736,0.00002097,0.00004021,0.00065684,0
 .00048254,0.00136639,0.00002439,0.00003069,-0.00000828,-0.00000448,-0.
 00000144,-0.00000154,0.00000208,-0.00000104,0.00000080,-0.00000329,0.0
 0000085,0.00000147,-0.01166637,0.00056435,-0.01172020,-0.18117510,0.02
 583921,-0.13542255,0.19439634,0.00108742,-0.00035375,0.00038384,-0.000
 71127,0.00043789,-0.00006567,-0.00027459,0.00028539,-0.00010996,-0.000
 78991,-0.00018089,-0.00052979,-0.00014685,0.00008010,0.00012795,-0.000
 06970,0.00002420,-0.00003250,0.00001801,-0.00000756,0.00001398,-0.0000
 0789,0.00000586,-0.00000219,0.00002561,0.00000775,-0.00001626,-0.00139
 884,-0.00005119,-0.00144621,-0.00002171,-0.00004824,0.00000691,0.00001
 181,-0.00000913,0.00001428,-0.00001079,0.00000302,-0.00000070,0.000011
 17,-0.00000737,-0.00000694,0.02405618,-0.00233603,0.02619033,0.0279959
 2,-0.04612567,0.02348364,-0.02891055,0.05108197,0.00044110,-0.00005864
 ,0.00008728,-0.00024954,0.00026981,-0.00009624,-0.00011496,-0.00000857
 ,-0.00001992,-0.00041705,0.00024529,0.00003596,0.00002154,-0.00004142,
 -0.00003196,-0.00002157,-0.00001740,0.00003622,0.00000546,0.00000130,-
 0.00000910,-0.00000370,0.00000575,0.00000585,0.00000244,-0.00000374,-0
 .00001707,0.00071369,-0.00092609,-0.00124796,-0.00000248,-0.00001182,0
 .00002200,-0.00000019,-0.00000107,0.00000011,-0.00000387,-0.00000382,-
 0.00000362,0.00000010,-0.00000270,-0.00000452,0.00464149,0.00325157,0.
 00317046,-0.13512176,0.02166854,-0.17953846,0.14865526,-0.02595486,0.1
 9117037,-0.00011124,0.00006507,-0.00005412,0.00011103,-0.00002687,-0.0
 0001152,0.00004551,-0.00003257,0.00002548,0.00023840,-0.00017272,-0.00
 025184,0.00002044,0.00000493,0.00001255,0.00002719,-0.00002392,-0.0000
 0794,0.00000275,0.00000260,-0.00000768,-0.00001122,0.00000537,0.000009
 35,-0.00000168,-0.00001042,-0.00000425,-0.00105724,0.00013456,-0.00005
 481,-0.00000879,0.00000629,0.00000649,-0.00000215,0.00000232,-0.000002
 66,0.00000342,-0.00000016,0.00000008,-0.00000071,0.00000194,0.00000070
 ,0.01336402,0.01052148,-0.00087235,-0.17180905,-0.13865873,0.02374006,
 -0.01484687,-0.01722262,0.00356741,0.18468979,-0.00038431,0.00013927,0
 .00016783,0.00014415,-0.00000993,-0.00009630,0.00010886,0.00009227,0.0
 0001001,0.00078966,-0.00006967,0.00022360,-0.00009525,0.00003937,-0.00
 008223,-0.00004713,0.00002887,0.00000830,-0.00000973,0.00000449,0.0000
 0371,0.00004444,-0.00001296,-0.00002055,0.00001291,-0.00000395,-0.0000
 2922,0.00139764,0.00227142,0.00028764,-0.00001309,0.00001988,0.0000080
 3,0.00000873,0.00000858,0.00000392,0.00000680,0.00000457,0.00000189,0.
 00000049,0.00000199,-0.00000241,-0.02596684,-0.02034252,0.00528088,-0.
 13731328,-0.19447215,0.01789266,0.00374905,0.00409934,-0.00092423,0.14
 912097,0.21070869,-0.00005669,0.00003127,-0.00004426,0.00008354,-0.000
 00281,-0.00005083,0.00001657,-0.00008423,0.00000261,-0.00031516,0.0000
 9017,-0.00004012,-0.00001431,0.00006991,0.00002388,0.00000108,0.000012
 77,0.00005686,-0.00000310,0.00001485,-0.00000990,0.00003347,-0.0000126
 3,0.00000805,-0.00001247,-0.00002334,-0.00003051,0.00149503,-0.0005347
 0,-0.00076498,0.00001583,0.00001291,0.00001922,-0.00000011,0.00000135,
 -0.00000214,-0.00000059,-0.00000304,-0.00000010,-0.00000328,0.00000120
 ,-0.00000161,-0.00599058,-0.00025407,-0.00194451,0.02458592,0.01954636
 ,-0.04916928,-0.01463152,-0.01793193,0.00246332,-0.02339661,-0.0231194
 2,0.04776270,-0.00041161,0.00000444,0.00000381,0.00017760,-0.00001258,
 0.00002075,0.00012439,0.00012189,0.00003310,0.00029003,-0.00037651,0.0
 0049132,-0.00004905,0.00004526,0.00003309,-0.00007543,0.00026723,0.000
 02440,-0.00005581,-0.00001744,0.00007351,0.00001927,-0.00001888,-0.000
 00688,0.00000300,-0.00001144,-0.00000455,-0.00098455,0.00430163,0.0013
 7979,-0.00002055,-0.00000327,-0.00000897,0.00000896,0.00000498,0.00000
 353,0.00000507,0.00000817,0.00000397,0.00000326,0.00000431,0.00000121,
 -0.00830336,-0.00196567,0.01392566,-0.09551649,0.00301897,0.10658984,0
 .01183917,-0.00135787,-0.02116265,-0.00776864,0.00294274,0.01803522,0.
 10014553,0.00040740,0.00030204,0.00002053,-0.00026483,-0.00008679,-0.0
 0001540,-0.00012447,-0.00020884,-0.00003495,0.00081151,0.00087219,-0.0
 0056828,0.00010193,-0.00013412,-0.00004818,0.00013920,-0.00053597,-0.0
 0004289,0.00010907,0.00004269,-0.00015593,0.00000023,0.00000519,0.0000
 2248,-0.00002266,0.00000887,-0.00000400,0.00409144,-0.00646270,-0.0019
 5898,0.00006131,0.00003758,0.00000903,-0.00001417,-0.00001074,-0.00000
 564,-0.00000690,-0.00001126,-0.00000328,-0.00000874,-0.00000639,-0.000
 00046,0.01084761,0.00201777,-0.02987270,-0.00001622,-0.04955311,-0.002
 23646,-0.00253617,-0.00110638,0.00341695,-0.00726822,0.00236669,0.0220
 9793,-0.00516886,0.05041935,0.00005365,0.00019006,-0.00002027,-0.00006
 539,-0.00012917,0.00001989,-0.00003229,-0.00017491,-0.00002564,-0.0000
 1475,0.00064810,0.00043878,0.00008186,-0.00015194,-0.00006947,0.000026
 19,-0.00010126,-0.00000756,0.00001840,0.00000501,-0.00002436,-0.000010
 09,0.00000541,0.00000553,-0.00000879,0.00001558,0.00001894,0.00052306,
 -0.00128175,0.00047027,0.00005027,0.00004509,0.00000845,-0.00000789,-0
 .00000579,-0.00000194,-0.00000255,-0.00000780,-0.00000028,-0.00000649,
 -0.00000206,-0.00000094,0.00031460,0.00279962,-0.00517422,0.10907177,-
 0.00914828,-0.28439445,0.00990350,-0.00097653,-0.01695731,-0.00087535,
 0.00019949,0.00029401,-0.11789083,0.00771092,0.30386983,-0.00500784,-0
 .00072368,-0.00104840,0.00337332,0.00033585,-0.00152537,0.00129992,0.0
 0041650,0.00053394,-0.00271030,-0.00769890,-0.00348828,-0.00026667,-0.
 00000898,0.00217040,0.00108726,-0.00044851,0.00099732,-0.00018554,0.00
 010546,-0.00001816,0.00012660,0.00005437,-0.00008516,-0.00044786,-0.00
 013842,0.00029073,0.00467525,-0.02499846,0.04847121,-0.00046067,-0.000
 22373,0.00012883,0.00009458,0.00014308,0.00004135,0.00006819,0.0000454
 3,-0.00000282,0.00006838,0.00007647,0.00001175,-0.09862603,-0.04239335
 ,0.04725696,0.02250501,0.01677823,-0.00191902,0.00043115,-0.00228351,-
 0.00095071,-0.00288496,0.00550321,0.00015778,0.00056923,-0.00113845,-0
 .00112887,0.07629100,-0.00567202,-0.00052572,0.00371053,0.00282912,0.0
 0057023,-0.00343011,0.00139661,0.00227854,-0.00010814,0.00766591,-0.01
 200495,-0.00494053,-0.00267053,0.00248484,-0.00050304,-0.00160287,0.00
 373903,-0.00023028,-0.00069308,0.00006616,0.00079485,0.00063733,-0.000
 09569,-0.00042434,0.00055950,-0.00012931,-0.00093538,-0.03314819,0.008
 23923,0.05719161,-0.00037301,0.00043673,0.00045240,0.00023502,0.000200
 41,0.00016449,0.00013336,0.00006592,0.00003431,0.00005210,0.00004088,-
 0.00010756,-0.03026931,-0.56617802,0.29705307,0.00191254,-0.03917140,0
 .03188642,0.00064653,-0.00579932,-0.00090484,0.00355071,-0.00487424,0.
 00008745,-0.00178710,0.00204395,0.00036020,0.05659738,0.60861270,0.002
 59119,0.00405355,-0.00016292,-0.00109550,-0.00208820,-0.00200769,-0.00
 123321,-0.00420460,-0.00023293,-0.00815686,0.01442932,0.00180387,0.001
 47065,-0.00180639,-0.00200742,-0.00004828,-0.00067896,-0.00009604,0.00
 032894,-0.00030385,-0.00041188,-0.00032965,0.00015370,-0.00003782,0.00
 016758,0.00012446,0.00026557,0.04964577,0.04734602,-0.06848882,0.00092
 708,0.00069402,0.00021846,-0.00025163,-0.00012158,-0.00012634,-0.00007
 539,-0.00021775,-0.00006290,-0.00014280,-0.00005365,0.00003086,0.04280
 026,0.31211745,-0.30577134,0.00537788,0.01199926,0.00951894,0.00128575
 ,-0.00314740,0.00093458,-0.00182297,0.00018640,0.00142759,-0.00154534,
 0.00166930,0.00155074,-0.08989347,-0.38015110,0.36365548\\0.00000047,-
 0.00000037,0.00000024,-0.00000014,0.00000003,-0.00000035,0.00000042,0.
 00000024,-0.00000035,0.00000004,0.00000009,-0.00000043,0.00000002,0.00
 000027,0.00000003,-0.00000003,0.00000072,0.00000012,0.00000013,0.00000
 076,-0.00000015,-0.00000025,0.00000085,0.00000010,-0.00000027,0.000000
 57,0.00000011,-0.00000014,0.00000012,-0.00000031,0.00000080,0.,-0.0000
 0029,0.00000077,-0.00000048,-0.00000040,0.00000099,-0.00000002,-0.0000
 0042,0.00000068,-0.00000009,-0.00000039,-0.00000040,-0.00000071,0.0000
 0097,-0.00000062,-0.00000033,0.00000052,-0.00000078,-0.00000072,0.0000
 0026,-0.00000118,-0.00000064,0.00000058,-0.00000051,-0.00000055,0.0000
 0041,-0.00000002,0.00000027,-0.00000025\\\@


 "WHERE SHALL I START, PLEASE YOUR MAJESTY?" HE ASKED.
 "BEGIN AT THE BEGINNING," THE KING SAID GRAVELY,
 "AND GO ON TILL YOU COME TO THE END: THEN STOP." 

                                      -- LEWIS CARROLL
 Job cpu time:       0 days  3 hours 25 minutes 41.0 seconds.
 Elapsed time:       0 days  0 hours  8 minutes 34.6 seconds.
 File lengths (MBytes):  RWF=    239 Int=      0 D2E=      0 Chk=     23 Scr=      1
 Normal termination of Gaussian 16 at Thu Oct  3 09:41:14 2019.
