 Entering Gaussian System, Link 0=g16
 Initial command:
 /nopt/nrel/apps/gaussian/g16B/g16/l1.exe "/dev/shm/Gau-167529.inp" -scrdir="/dev/shm/"
 Default is to use a total of  36 processors:
                               36 via shared-memory
                                1 via Linda
 Entering Link 1 = /nopt/nrel/apps/gaussian/g16B/g16/l1.exe PID=    167531.
  
 Copyright (c) 1988-2017, Gaussian, Inc.  All Rights Reserved.
  
 This is part of the Gaussian(R) 16 program.  It is based on
 the Gaussian(R) 09 system (copyright 2009, Gaussian, Inc.),
 the Gaussian(R) 03 system (copyright 2003, Gaussian, Inc.),
 the Gaussian(R) 98 system (copyright 1998, Gaussian, Inc.),
 the Gaussian(R) 94 system (copyright 1995, Gaussian, Inc.),
 the Gaussian 92(TM) system (copyright 1992, Gaussian, Inc.),
 the Gaussian 90(TM) system (copyright 1990, Gaussian, Inc.),
 the Gaussian 88(TM) system (copyright 1988, Gaussian, Inc.),
 the Gaussian 86(TM) system (copyright 1986, Carnegie Mellon
 University), and the Gaussian 82(TM) system (copyright 1983,
 Carnegie Mellon University). Gaussian is a federally registered
 trademark of Gaussian, Inc.
  
 This software contains proprietary and confidential information,
 including trade secrets, belonging to Gaussian, Inc.
  
 This software is provided under written license and may be
 used, copied, transmitted, or stored only in accord with that
 written license.
  
 The following legend is applicable only to US Government
 contracts under FAR:
  
                    RESTRICTED RIGHTS LEGEND
  
 Use, reproduction and disclosure by the US Government is
 subject to restrictions as set forth in subparagraphs (a)
 and (c) of the Commercial Computer Software - Restricted
 Rights clause in FAR 52.227-19.
  
 Gaussian, Inc.
 340 Quinnipiac St., Bldg. 40, Wallingford CT 06492
  
  
 ---------------------------------------------------------------
 Warning -- This program may not be used in any manner that
 competes with the business of Gaussian, Inc. or will provide
 assistance to any competitor of Gaussian, Inc.  The licensee
 of this program is prohibited from giving any competitor of
 Gaussian, Inc. access to this program.  By using this program,
 the user acknowledges that Gaussian, Inc. is engaged in the
 business of creating and licensing software in the field of
 computational chemistry and represents and warrants to the
 licensee that it is not a competitor of Gaussian, Inc. and that
 it will not use this program in any manner prohibited above.
 ---------------------------------------------------------------
  

 Cite this work as:
 Gaussian 16, Revision B.01,
 M. J. Frisch, G. W. Trucks, H. B. Schlegel, G. E. Scuseria, 
 M. A. Robb, J. R. Cheeseman, G. Scalmani, V. Barone, 
 G. A. Petersson, H. Nakatsuji, X. Li, M. Caricato, A. V. Marenich, 
 J. Bloino, B. G. Janesko, R. Gomperts, B. Mennucci, H. P. Hratchian, 
 J. V. Ortiz, A. F. Izmaylov, J. L. Sonnenberg, D. Williams-Young, 
 F. Ding, F. Lipparini, F. Egidi, J. Goings, B. Peng, A. Petrone, 
 T. Henderson, D. Ranasinghe, V. G. Zakrzewski, J. Gao, N. Rega, 
 G. Zheng, W. Liang, M. Hada, M. Ehara, K. Toyota, R. Fukuda, 
 J. Hasegawa, M. Ishida, T. Nakajima, Y. Honda, O. Kitao, H. Nakai, 
 T. Vreven, K. Throssell, J. A. Montgomery, Jr., J. E. Peralta, 
 F. Ogliaro, M. J. Bearpark, J. J. Heyd, E. N. Brothers, K. N. Kudin, 
 V. N. Staroverov, T. A. Keith, R. Kobayashi, J. Normand, 
 K. Raghavachari, A. P. Rendell, J. C. Burant, S. S. Iyengar, 
 J. Tomasi, M. Cossi, J. M. Millam, M. Klene, C. Adamo, R. Cammi, 
 J. W. Ochterski, R. L. Martin, K. Morokuma, O. Farkas, 
 J. B. Foresman, and D. J. Fox, Gaussian, Inc., Wallingford CT, 2016.
 
 ******************************************
 Gaussian 16:  ES64L-G16RevB.01 20-Dec-2017
                 8-Oct-2019 
 ******************************************
 %RWF=/dev/shm/,5GB,/tmp/scratch/1504339/,-1
 %NoSave
 %OldChk=me2pheoxprpnt_30.chk
 %Chk=/dev/shm/me2pheoxprpnt_30.chk
 Copying data from "me2pheoxprpnt_30.chk" to current chk file "/dev/shm/me2pheoxprpnt_30.chk"
 IOpt=  2 FromEx=T IUOpen= 4 IOptOp= 5 NList=   0 IFRang= 0 IUIn= 4 IUOut= 2.
 Default route: CacheSize=180224 MaxDisk=256GB
 ----------------------------------------------------------------------
 # m062x/Def2TZVP nosymm scf=xqc opt=ReadFC freq=NoRaman CPHF=Grid=Fine
  guess=read geom=allcheck
 ----------------------------------------------------------------------
 1/4=180224,10=3,18=20,19=15,26=3,29=7,38=1/1,3;
 2/4=180224,9=110,12=2,15=1,40=1/2;
 3/4=180224,5=44,7=101,11=2,14=-4,25=1,30=1,71=1,74=-55,116=-2/1,2,3;
 4/4=180224,5=1/1;
 5/4=180224,5=2,8=3,13=1,38=6/2,8;
 6/4=180224,7=2,8=2,9=2,10=2,28=1/1;
 7/4=180224,30=1/1,2,3,16;
 1/4=180224,18=20,19=15,26=3/3(2);
 2/4=180224,9=110,15=1/2;
 99/4=180224/99;
 2/4=180224,9=110,15=1/2;
 3/4=180224,5=44,7=101,11=2,14=-2,25=1,30=1,71=1,74=-55/1,2,3;
 4/4=180224,5=5,16=3,69=1/1;
 5/4=180224,5=2,8=3,13=1,38=5/2,8;
 7/4=180224,30=1/1,2,3,16;
 1/4=180224,18=20,19=15,26=3/3(-5);
 2/4=180224,9=110,15=1/2;
 6/4=180224,7=2,8=2,9=2,10=2,19=2,28=1/1;
 99/4=180224,9=1/99;
 Structure from the checkpoint file:  "/dev/shm/me2pheoxprpnt_30.chk"
 -------------------------------------------------------------------
 obabel me2pheoxprpnt_0.pdb -O me2pheoxprpnt.pdb --confab -conf10000
 -------------------------------------------------------------------
 Charge =  0 Multiplicity = 1
 Redundant internal coordinates found in file.  (old form).
 C,0,-0.940591666,0.3998982633,0.5576386141
 O,0,-1.2060572728,1.4258996774,-0.0069041456
 O,0,0.0219138855,0.2672255168,1.4641873929
 C,0,-1.7271314917,-0.8896263613,0.346743904
 H,0,-2.0938236178,-0.861673911,-0.683218837
 C,0,-2.8936446342,-0.9240937764,1.3185511846
 H,0,-3.5192481241,-0.0434128329,1.1801604127
 H,0,-3.487645275,-1.8186921831,1.1401155428
 H,0,-2.5201690161,-0.9471206773,2.3420007874
 O,0,-0.9599527278,-2.0454777012,0.5736427396
 C,0,0.7935957541,1.4425759126,1.710951265
 H,0,0.1542364884,2.2431922416,2.0795328077
 H,0,1.5307386545,1.1620572851,2.4563295322
 H,0,1.2795394443,1.7686152435,0.7924623028
 C,0,0.0925500331,-2.3005016561,-0.2540437325
 C,0,0.4463348817,-1.5096216922,-1.3418842955
 C,0,0.8299817777,-3.4436646045,0.0471673838
 C,0,1.5407400907,-1.8755386048,-2.1204121818
 H,0,-0.1085541739,-0.6178582241,-1.5995294386
 C,0,1.912777818,-3.7927579927,-0.7365307314
 H,0,0.5320915215,-4.0378341196,0.9006156451
 C,0,2.2768562451,-3.0098558332,-1.8280456068
 H,0,1.8112300406,-1.2563823296,-2.9660521124
 H,0,2.479007726,-4.6829737578,-0.4945827759
 H,0,3.1252236382,-3.2843778827,-2.4398956573
 Recover connectivity data from disk.

 GradGradGradGradGradGradGradGradGradGradGradGradGradGradGradGradGradGrad
 Berny optimization.
 Initialization pass.
 Force constant matrix read from checkpoint file:
 "/dev/shm/me2pheoxprpnt_30.chk"
                           ----------------------------
                           !    Initial Parameters    !
                           ! (Angstroms and Degrees)  !
 --------------------------                            --------------------------
 ! Name  Definition              Value          Derivative Info.                !
 --------------------------------------------------------------------------------
 ! R1    R(1,2)                  1.2008         D2E/DX2 =    0.8864             !
 ! R2    R(1,3)                  1.3289         D2E/DX2 =    0.4513             !
 ! R3    R(1,4)                  1.5251         D2E/DX2 =    0.2768             !
 ! R4    R(3,11)                 1.4275         D2E/DX2 =    0.3501             !
 ! R5    R(4,5)                  1.0936         D2E/DX2 =    0.3357             !
 ! R6    R(4,6)                  1.5187         D2E/DX2 =    0.2992             !
 ! R7    R(4,10)                 1.4057         D2E/DX2 =    0.3686             !
 ! R8    R(6,7)                  1.0891         D2E/DX2 =    0.3497             !
 ! R9    R(6,8)                  1.0886         D2E/DX2 =    0.3498             !
 ! R10   R(6,9)                  1.0897         D2E/DX2 =    0.3476             !
 ! R11   R(10,15)                1.363          D2E/DX2 =    0.4237             !
 ! R12   R(11,12)                1.0889         D2E/DX2 =    0.348              !
 ! R13   R(11,13)                1.0852         D2E/DX2 =    0.3568             !
 ! R14   R(11,14)                1.0891         D2E/DX2 =    0.3474             !
 ! R15   R(15,16)                1.3907         D2E/DX2 =    0.3982             !
 ! R16   R(15,17)                1.3933         D2E/DX2 =    0.3966             !
 ! R17   R(16,18)                1.392          D2E/DX2 =    0.3987             !
 ! R18   R(16,19)                1.0814         D2E/DX2 =    0.3672             !
 ! R19   R(17,20)                1.3815         D2E/DX2 =    0.42               !
 ! R20   R(17,21)                1.0817         D2E/DX2 =    0.3672             !
 ! R21   R(18,22)                1.3835         D2E/DX2 =    0.4159             !
 ! R22   R(18,23)                1.0824         D2E/DX2 =    0.3642             !
 ! R23   R(20,22)                1.3917         D2E/DX2 =    0.3984             !
 ! R24   R(20,24)                1.0824         D2E/DX2 =    0.3642             !
 ! R25   R(22,25)                1.0814         D2E/DX2 =    0.3666             !
 ! A1    A(2,1,3)              124.484          D2E/DX2 =    0.2129             !
 ! A2    A(2,1,4)              122.9174         D2E/DX2 =    0.1552             !
 ! A3    A(3,1,4)              112.5484         D2E/DX2 =    0.1732             !
 ! A4    A(1,3,11)             115.2943         D2E/DX2 =    0.3088             !
 ! A5    A(1,4,5)              106.3519         D2E/DX2 =    0.0326             !
 ! A6    A(1,4,6)              109.077          D2E/DX2 =    0.0937             !
 ! A7    A(1,4,10)             113.0449         D2E/DX2 =    0.072              !
 ! A8    A(5,4,6)              110.2234         D2E/DX2 =    0.0368             !
 ! A9    A(5,4,10)             110.8557         D2E/DX2 =    0.0297             !
 ! A10   A(6,4,10)             107.2928         D2E/DX2 =    0.0847             !
 ! A11   A(4,6,7)              109.9719         D2E/DX2 =    0.1046             !
 ! A12   A(4,6,8)              109.4448         D2E/DX2 =    0.1047             !
 ! A13   A(4,6,9)              109.7686         D2E/DX2 =    0.1072             !
 ! A14   A(7,6,8)              109.2851         D2E/DX2 =    0.0491             !
 ! A15   A(7,6,9)              109.4694         D2E/DX2 =    0.0496             !
 ! A16   A(8,6,9)              108.8809         D2E/DX2 =    0.0497             !
 ! A17   A(4,10,15)            118.5058         D2E/DX2 =    0.3855             !
 ! A18   A(3,11,12)            110.2727         D2E/DX2 =    0.1451             !
 ! A19   A(3,11,13)            105.8485         D2E/DX2 =    0.144              !
 ! A20   A(3,11,14)            109.9932         D2E/DX2 =    0.1452             !
 ! A21   A(12,11,13)           110.8803         D2E/DX2 =    0.0693             !
 ! A22   A(12,11,14)           109.1087         D2E/DX2 =    0.0706             !
 ! A23   A(13,11,14)           110.706          D2E/DX2 =    0.0693             !
 ! A24   A(10,15,16)           124.4044         D2E/DX2 =    0.1853             !
 ! A25   A(10,15,17)           115.5257         D2E/DX2 =    0.1662             !
 ! A26   A(16,15,17)           120.0694         D2E/DX2 =    0.0914             !
 ! A27   A(15,16,18)           119.2088         D2E/DX2 =    0.0809             !
 ! A28   A(15,16,19)           121.653          D2E/DX2 =    0.0827             !
 ! A29   A(18,16,19)           119.1381         D2E/DX2 =    0.0854             !
 ! A30   A(15,17,20)           119.9681         D2E/DX2 =    0.0832             !
 ! A31   A(15,17,21)           118.3897         D2E/DX2 =    0.079              !
 ! A32   A(20,17,21)           121.6421         D2E/DX2 =    0.0787             !
 ! A33   A(16,18,22)           121.041          D2E/DX2 =    0.0819             !
 ! A34   A(16,18,23)           118.8842         D2E/DX2 =    0.0818             !
 ! A35   A(22,18,23)           120.0748         D2E/DX2 =    0.0816             !
 ! A36   A(17,20,22)           120.518          D2E/DX2 =    0.0814             !
 ! A37   A(17,20,24)           119.4085         D2E/DX2 =    0.0813             !
 ! A38   A(22,20,24)           120.0735         D2E/DX2 =    0.0812             !
 ! A39   A(18,22,20)           119.1946         D2E/DX2 =    0.0825             !
 ! A40   A(18,22,25)           120.3966         D2E/DX2 =    0.0807             !
 ! A41   A(20,22,25)           120.4088         D2E/DX2 =    0.0807             !
 ! D1    D(2,1,3,11)            -2.335          D2E/DX2 =    0.0183             !
 ! D2    D(4,1,3,11)          -179.8147         D2E/DX2 =    0.0163             !
 ! D3    D(2,1,4,5)             30.8225         D2E/DX2 =    0.0177             !
 ! D4    D(2,1,4,6)            -88.0365         D2E/DX2 =    0.0188             !
 ! D5    D(2,1,4,10)           152.6938         D2E/DX2 =    0.0221             !
 ! D6    D(3,1,4,5)           -151.6522         D2E/DX2 =    0.0166             !
 ! D7    D(3,1,4,6)             89.4888         D2E/DX2 =    0.019              !
 ! D8    D(3,1,4,10)           -29.7809         D2E/DX2 =    0.0231             !
 ! D9    D(1,3,11,12)           60.6399         D2E/DX2 =    0.0244             !
 ! D10   D(1,3,11,13)         -179.3716         D2E/DX2 =    0.0247             !
 ! D11   D(1,3,11,14)          -59.7412         D2E/DX2 =    0.0239             !
 ! D12   D(1,4,6,7)             57.1716         D2E/DX2 =    0.0167             !
 ! D13   D(1,4,6,8)            177.2349         D2E/DX2 =    0.0169             !
 ! D14   D(1,4,6,9)            -63.3226         D2E/DX2 =    0.0171             !
 ! D15   D(5,4,6,7)            -59.2433         D2E/DX2 =    0.0142             !
 ! D16   D(5,4,6,8)             60.82           D2E/DX2 =    0.0143             !
 ! D17   D(5,4,6,9)           -179.7375         D2E/DX2 =    0.0138             !
 ! D18   D(10,4,6,7)           179.9558         D2E/DX2 =    0.0184             !
 ! D19   D(10,4,6,8)           -59.981          D2E/DX2 =    0.0183             !
 ! D20   D(10,4,6,9)            59.4615         D2E/DX2 =    0.0191             !
 ! D21   D(1,4,10,15)          -64.9112         D2E/DX2 =    0.0349             !
 ! D22   D(5,4,10,15)           54.3946         D2E/DX2 =    0.0197             !
 ! D23   D(6,4,10,15)          174.7949         D2E/DX2 =    0.0228             !
 ! D24   D(4,10,15,16)          -1.7964         D2E/DX2 =    0.0141             !
 ! D25   D(4,10,15,17)         178.4633         D2E/DX2 =    0.0131             !
 ! D26   D(10,15,16,18)       -179.6959         D2E/DX2 =    0.0098             !
 ! D27   D(10,15,16,19)          0.1997         D2E/DX2 =    0.0096             !
 ! D28   D(17,15,16,18)          0.0333         D2E/DX2 =    0.0081             !
 ! D29   D(17,15,16,19)        179.9289         D2E/DX2 =    0.0084             !
 ! D30   D(10,15,17,20)        179.6761         D2E/DX2 =    0.0084             !
 ! D31   D(10,15,17,21)         -0.3719         D2E/DX2 =    0.0094             !
 ! D32   D(16,15,17,20)         -0.0763         D2E/DX2 =    0.0079             !
 ! D33   D(16,15,17,21)        179.8758         D2E/DX2 =    0.0072             !
 ! D34   D(15,16,18,22)          0.0245         D2E/DX2 =    0.0093             !
 ! D35   D(15,16,18,23)        179.9786         D2E/DX2 =    0.0084             !
 ! D36   D(19,16,18,22)       -179.8738         D2E/DX2 =    0.0085             !
 ! D37   D(19,16,18,23)          0.0803         D2E/DX2 =    0.0089             !
 ! D38   D(15,17,20,22)          0.0619         D2E/DX2 =    0.0091             !
 ! D39   D(15,17,20,24)       -179.9709         D2E/DX2 =    0.0087             !
 ! D40   D(21,17,20,22)       -179.8885         D2E/DX2 =    0.0086             !
 ! D41   D(21,17,20,24)          0.0787         D2E/DX2 =    0.009              !
 ! D42   D(16,18,22,20)         -0.0389         D2E/DX2 =    0.0095             !
 ! D43   D(16,18,22,25)       -179.9984         D2E/DX2 =    0.0087             !
 ! D44   D(23,18,22,20)       -179.9924         D2E/DX2 =    0.0086             !
 ! D45   D(23,18,22,25)          0.048          D2E/DX2 =    0.0089             !
 ! D46   D(17,20,22,18)         -0.0046         D2E/DX2 =    0.0095             !
 ! D47   D(17,20,22,25)        179.9549         D2E/DX2 =    0.0086             !
 ! D48   D(24,20,22,18)       -179.9716         D2E/DX2 =    0.0085             !
 ! D49   D(24,20,22,25)         -0.012          D2E/DX2 =    0.0088             !
 --------------------------------------------------------------------------------
 Trust Radius=3.00D-01 FncErr=1.00D-07 GrdErr=1.00D-06 EigMax=2.50D+02 EigMin=1.00D-04
 Number of steps in this run=    125 maximum allowed number of steps=    150.
 GradGradGradGradGradGradGradGradGradGradGradGradGradGradGradGradGradGrad

                          Input orientation:                          
 ---------------------------------------------------------------------
 Center     Atomic      Atomic             Coordinates (Angstroms)
 Number     Number       Type             X           Y           Z
 ---------------------------------------------------------------------
      1          6           0       -0.940592    0.399898    0.557639
      2          8           0       -1.206057    1.425900   -0.006904
      3          8           0        0.021914    0.267226    1.464187
      4          6           0       -1.727131   -0.889626    0.346744
      5          1           0       -2.093824   -0.861674   -0.683219
      6          6           0       -2.893645   -0.924094    1.318551
      7          1           0       -3.519248   -0.043413    1.180160
      8          1           0       -3.487645   -1.818692    1.140116
      9          1           0       -2.520169   -0.947121    2.342001
     10          8           0       -0.959953   -2.045478    0.573643
     11          6           0        0.793596    1.442576    1.710951
     12          1           0        0.154236    2.243192    2.079533
     13          1           0        1.530739    1.162057    2.456330
     14          1           0        1.279539    1.768615    0.792462
     15          6           0        0.092550   -2.300502   -0.254044
     16          6           0        0.446335   -1.509622   -1.341884
     17          6           0        0.829982   -3.443665    0.047167
     18          6           0        1.540740   -1.875539   -2.120412
     19          1           0       -0.108554   -0.617858   -1.599529
     20          6           0        1.912778   -3.792758   -0.736531
     21          1           0        0.532092   -4.037834    0.900616
     22          6           0        2.276856   -3.009856   -1.828046
     23          1           0        1.811230   -1.256382   -2.966052
     24          1           0        2.479008   -4.682974   -0.494583
     25          1           0        3.125224   -3.284378   -2.439896
 ---------------------------------------------------------------------
                    Distance matrix (angstroms):
                    1          2          3          4          5
     1  C    0.000000
     2  O    1.200775   0.000000
     3  O    1.328853   2.239319   0.000000
     4  C    1.525121   2.399635   2.376162   0.000000
     5  H    2.112164   2.545294   3.219024   1.093649   0.000000
     6  C    2.479185   3.182334   3.152925   1.518667   2.156547
     7  H    2.689522   2.986445   3.566090   2.149963   2.484667
     8  H    3.427668   4.129004   4.095495   2.142898   2.486598
     9  H    2.737421   3.588240   2.950827   2.147851   3.056309
    10  O    2.445505   3.528181   2.665657   1.405716   2.065613
    11  C    2.329101   2.636270   1.427527   3.695172   4.402137
    12  H    2.629172   2.621371   2.073790   4.044336   4.725121
    13  H    3.208331   3.691502   2.015347   4.390157   5.204777
    14  H    2.618685   2.633369   2.070509   4.037943   4.525001
    15  C    3.003060   3.953925   3.090393   2.379655   2.652291
    16  C    3.029525   3.623515   3.348337   2.821314   2.702976
    17  C    4.262451   5.278355   4.053594   3.626525   3.968473
    18  C    4.301927   4.786576   4.443830   4.211635   4.037759
    19  H    2.526161   2.813879   3.191670   2.545905   2.200083
    20  C    5.234019   6.123224   4.990190   4.780230   4.964570
    21  H    4.688272   5.804924   4.371662   3.914342   4.414969
    22  C    5.260217   5.926480   5.163606   5.025634   5.002815
    23  H    4.767828   5.005519   5.014983   4.860980   4.540547
    24  H    6.215820   7.150935   5.863324   5.726161   5.962273
    25  H    6.252196   6.845886   6.122604   6.086505   6.016133
                    6          7          8          9         10
     6  C    0.000000
     7  H    1.089096   0.000000
     8  H    1.088569   1.776012   0.000000
     9  H    1.089708   1.778966   1.772054   0.000000
    10  O    2.356174   3.305468   2.600299   2.601491   0.000000
    11  C    4.398960   4.592442   5.412093   4.133994   4.066315
    12  H    4.460983   4.419493   5.535767   4.171262   4.679937
    13  H    5.022124   5.346413   5.983432   4.568540   4.476196
    14  H    4.994288   5.144134   5.976260   4.920780   4.428376
    15  C    3.644847   4.494049   3.872159   3.923951   1.363035
    16  C    4.310014   4.923040   4.661764   4.763146   2.435987
    17  C    4.672264   5.635706   4.740989   4.766813   2.331516
    18  C    5.691703   6.312998   5.993241   6.104594   3.679711
    19  H    4.045455   4.437285   4.512861   4.632490   2.735992
    20  C    5.962742   6.873005   6.048414   6.101313   3.608618
    21  H    4.648195   5.696218   4.597851   4.576723   2.510496
    22  C    6.401996   7.172441   6.592293   6.682486   4.144281
    23  H    6.372134   6.861222   6.727175   6.857994   4.564161
    24  H    6.803090   7.765910   6.817426   6.855259   4.463624
    25  H    7.478211   8.231504   7.661250   7.758851   5.225414
                   11         12         13         14         15
    11  C    0.000000
    12  H    1.088861   0.000000
    13  H    1.085200   1.790415   0.000000
    14  H    1.089066   1.774283   1.788706   0.000000
    15  C    4.285242   5.108281   4.626427   4.365986   0.000000
    16  C    4.260970   5.086750   4.768672   3.999563   1.390702
    17  C    5.161865   6.076799   5.244788   5.284452   1.393325
    18  C    5.123227   6.043664   5.493055   4.672571   2.400246
    19  H    4.002318   4.667994   4.722856   3.652901   2.163808
    20  C    5.886549   6.888786   5.906819   5.802386   2.402676
    21  H    5.546163   6.401868   5.518733   5.855359   2.131844
    22  C    5.877815   6.882528   6.026394   5.540351   2.784216
    23  H    5.494935   6.360077   5.943883   4.853837   3.376246
    24  H    6.725128   7.746122   6.616002   6.687168   3.380712
    25  H    6.708958   7.733436   6.803395   6.275940   3.865627
                   16         17         18         19         20
    16  C    0.000000
    17  C    2.411881   0.000000
    18  C    1.392021   2.768140   0.000000
    19  H    1.081446   3.402593   2.138516   0.000000
    20  C    2.780219   1.381483   2.393589   3.861417   0.000000
    21  H    3.380535   1.081735   3.849611   4.284552   2.155599
    22  C    2.416167   2.407916   1.383481   3.385861   1.391723
    23  H    2.136584   3.850525   1.082417   2.441448   3.378502
    24  H    3.862621   2.132760   3.377182   4.943839   1.082423
    25  H    3.395855   3.388066   2.144175   4.274794   2.151727
                   21         22         23         24         25
    21  H    0.000000
    22  C    3.398019   0.000000
    23  H    4.931915   2.141620   0.000000
    24  H    2.480578   2.149026   4.277338   0.000000
    25  H    4.295468   1.081411   2.473092   2.481513   0.000000
 Symmetry turned off by external request.
 Stoichiometry    C10H12O3
 Framework group  C1[X(C10H12O3)]
 Deg. of freedom    69
 Full point group                 C1      NOp   1
 Rotational constants (GHZ):           1.3554869           0.5414164           0.4743267
 Standard basis: def2TZVP (5D, 7F)
   475 basis functions,   759 primitive gaussians,   540 cartesian basis functions
    48 alpha electrons       48 beta electrons
       nuclear repulsion energy       803.5314416361 Hartrees.
 NAtoms=   25 NActive=   25 NUniq=   25 SFac= 1.00D+00 NAtFMM=   60 NAOKFM=F Big=F
 Integral buffers will be    131072 words long.
 Raffenetti 2 integral format.
 Two-electron integral symmetry is turned off.
 One-electron integrals computed using PRISM.
   1 Symmetry operations used in ECPInt.
 ECPInt:  NShTT=   18336 NPrTT=   55600 LenC2=   17257 LenP2D=   39289.
 LDataN:  DoStor=T MaxTD1= 6 Len=  172
 NBasis=   475 RedAO= T EigKep=  8.73D-06  NBF=   475
 NBsUse=   475 1.00D-06 EigRej= -1.00D+00 NBFU=   475
 Initial guess from the checkpoint file:  "/dev/shm/me2pheoxprpnt_30.chk"
 B after Tr=     0.000000    0.000000    0.000000
         Rot=    1.000000    0.000000    0.000000    0.000000 Ang=   0.00 deg.
 Requested convergence on RMS density matrix=1.00D-08 within  32 cycles.
 Requested convergence on MAX density matrix=1.00D-06.
 Requested convergence on             energy=1.00D-06.
 No special actions if energy rises.
 SCF Done:  E(RM062X) =  -613.945899531     A.U. after    1 cycles
            NFock=  1  Conv=0.49D-08     -V/T= 2.0046
 QCSCF skips out because SCF is already converged.

 **********************************************************************

            Population analysis using the SCF Density.

 **********************************************************************

 Alpha  occ. eigenvalues --  -19.68081 -19.66279 -19.62314 -10.67542 -10.61580
 Alpha  occ. eigenvalues --  -10.60508 -10.59498 -10.54452 -10.54357 -10.54237
 Alpha  occ. eigenvalues --  -10.54191 -10.53761 -10.53532  -1.25126  -1.20281
 Alpha  occ. eigenvalues --   -1.15293  -0.96416  -0.90357  -0.84894  -0.83823
 Alpha  occ. eigenvalues --   -0.82431  -0.75069  -0.69700  -0.69411  -0.65766
 Alpha  occ. eigenvalues --   -0.63318  -0.60562  -0.58340  -0.57127  -0.55874
 Alpha  occ. eigenvalues --   -0.54806  -0.52093  -0.51479  -0.49780  -0.48871
 Alpha  occ. eigenvalues --   -0.47966  -0.47034  -0.46362  -0.45531  -0.43640
 Alpha  occ. eigenvalues --   -0.43021  -0.42025  -0.41031  -0.39407  -0.38557
 Alpha  occ. eigenvalues --   -0.35715  -0.31262  -0.28279
 Alpha virt. eigenvalues --    0.01622   0.03455   0.04473   0.07057   0.08507
 Alpha virt. eigenvalues --    0.09038   0.10475   0.11700   0.11941   0.12603
 Alpha virt. eigenvalues --    0.13582   0.14032   0.14441   0.15177   0.15283
 Alpha virt. eigenvalues --    0.16093   0.17588   0.18449   0.18663   0.19797
 Alpha virt. eigenvalues --    0.21290   0.22801   0.23103   0.23638   0.24153
 Alpha virt. eigenvalues --    0.25277   0.25287   0.26331   0.26730   0.27693
 Alpha virt. eigenvalues --    0.28295   0.29534   0.29794   0.32243   0.32785
 Alpha virt. eigenvalues --    0.33185   0.34249   0.34945   0.35634   0.36210
 Alpha virt. eigenvalues --    0.36803   0.37940   0.38434   0.38894   0.39471
 Alpha virt. eigenvalues --    0.39867   0.41504   0.42149   0.42595   0.43121
 Alpha virt. eigenvalues --    0.43846   0.44183   0.45281   0.45854   0.46141
 Alpha virt. eigenvalues --    0.47019   0.47694   0.48607   0.48994   0.49299
 Alpha virt. eigenvalues --    0.49743   0.50298   0.50871   0.51713   0.52197
 Alpha virt. eigenvalues --    0.53079   0.53659   0.54319   0.55215   0.55918
 Alpha virt. eigenvalues --    0.56744   0.58254   0.59750   0.60433   0.62577
 Alpha virt. eigenvalues --    0.63537   0.66111   0.66578   0.68193   0.68790
 Alpha virt. eigenvalues --    0.70552   0.71219   0.71733   0.73164   0.74477
 Alpha virt. eigenvalues --    0.75306   0.75790   0.76583   0.78363   0.79501
 Alpha virt. eigenvalues --    0.79767   0.81027   0.84395   0.84913   0.85777
 Alpha virt. eigenvalues --    0.86851   0.88058   0.89331   0.89832   0.91167
 Alpha virt. eigenvalues --    0.91985   0.94010   0.94341   0.94998   0.95507
 Alpha virt. eigenvalues --    0.96906   0.97578   1.00885   1.02033   1.03055
 Alpha virt. eigenvalues --    1.03633   1.05002   1.05673   1.07971   1.09278
 Alpha virt. eigenvalues --    1.09557   1.11223   1.11347   1.14488   1.15784
 Alpha virt. eigenvalues --    1.17146   1.19207   1.20429   1.20956   1.22893
 Alpha virt. eigenvalues --    1.25820   1.26305   1.27105   1.28103   1.28503
 Alpha virt. eigenvalues --    1.29968   1.31282   1.32561   1.35202   1.35657
 Alpha virt. eigenvalues --    1.38645   1.43773   1.45286   1.46513   1.47151
 Alpha virt. eigenvalues --    1.48881   1.49699   1.50292   1.50757   1.50962
 Alpha virt. eigenvalues --    1.52414   1.53953   1.55810   1.56335   1.57308
 Alpha virt. eigenvalues --    1.57897   1.58276   1.59926   1.60340   1.61026
 Alpha virt. eigenvalues --    1.61929   1.63974   1.64914   1.65704   1.65843
 Alpha virt. eigenvalues --    1.68546   1.69713   1.71116   1.72953   1.73301
 Alpha virt. eigenvalues --    1.75057   1.75178   1.76356   1.77363   1.77819
 Alpha virt. eigenvalues --    1.79086   1.81550   1.83522   1.86806   1.87949
 Alpha virt. eigenvalues --    1.89805   1.90364   1.93573   1.95613   1.96475
 Alpha virt. eigenvalues --    1.97351   1.99345   1.99542   2.02689   2.03086
 Alpha virt. eigenvalues --    2.04626   2.06383   2.06937   2.09696   2.10794
 Alpha virt. eigenvalues --    2.11390   2.11935   2.13490   2.15452   2.17393
 Alpha virt. eigenvalues --    2.18265   2.18877   2.20673   2.21475   2.22868
 Alpha virt. eigenvalues --    2.23980   2.25490   2.27489   2.28584   2.29364
 Alpha virt. eigenvalues --    2.30463   2.33098   2.34364   2.35166   2.35968
 Alpha virt. eigenvalues --    2.37528   2.39557   2.41185   2.42394   2.44879
 Alpha virt. eigenvalues --    2.46019   2.46476   2.48530   2.48785   2.51547
 Alpha virt. eigenvalues --    2.54310   2.56007   2.56546   2.57386   2.58125
 Alpha virt. eigenvalues --    2.60326   2.60556   2.61277   2.62898   2.64068
 Alpha virt. eigenvalues --    2.65006   2.66026   2.67522   2.68485   2.69402
 Alpha virt. eigenvalues --    2.69985   2.70664   2.71158   2.73007   2.74640
 Alpha virt. eigenvalues --    2.76476   2.76838   2.77353   2.78078   2.78763
 Alpha virt. eigenvalues --    2.79431   2.82554   2.83149   2.84233   2.84968
 Alpha virt. eigenvalues --    2.85306   2.86877   2.88301   2.89329   2.90420
 Alpha virt. eigenvalues --    2.92292   2.92948   2.94140   2.97366   2.98897
 Alpha virt. eigenvalues --    3.02594   3.03649   3.06146   3.06276   3.07018
 Alpha virt. eigenvalues --    3.08865   3.10241   3.11037   3.11558   3.12642
 Alpha virt. eigenvalues --    3.13363   3.15121   3.15226   3.15972   3.17230
 Alpha virt. eigenvalues --    3.17762   3.19937   3.21143   3.22834   3.23568
 Alpha virt. eigenvalues --    3.24092   3.24832   3.25056   3.25777   3.26857
 Alpha virt. eigenvalues --    3.28314   3.29926   3.30982   3.31774   3.32465
 Alpha virt. eigenvalues --    3.34010   3.36705   3.37424   3.38431   3.38717
 Alpha virt. eigenvalues --    3.38948   3.40377   3.42180   3.43096   3.43665
 Alpha virt. eigenvalues --    3.44033   3.45314   3.46844   3.47327   3.47833
 Alpha virt. eigenvalues --    3.49343   3.50136   3.50958   3.51956   3.53323
 Alpha virt. eigenvalues --    3.53899   3.55255   3.57076   3.57776   3.61240
 Alpha virt. eigenvalues --    3.61770   3.61969   3.63846   3.65757   3.68433
 Alpha virt. eigenvalues --    3.71519   3.73796   3.76565   3.77620   3.77886
 Alpha virt. eigenvalues --    3.78443   3.85768   3.88855   3.90100   3.92409
 Alpha virt. eigenvalues --    3.95065   3.98874   4.01203   4.02495   4.04729
 Alpha virt. eigenvalues --    4.05199   4.07070   4.08276   4.12200   4.13747
 Alpha virt. eigenvalues --    4.16385   4.17023   4.18193   4.19441   4.20404
 Alpha virt. eigenvalues --    4.22023   4.24558   4.25787   4.27682   4.29416
 Alpha virt. eigenvalues --    4.31823   4.35468   4.36858   4.40059   4.43258
 Alpha virt. eigenvalues --    4.48236   4.50424   4.54388   4.55993   4.57024
 Alpha virt. eigenvalues --    4.58753   4.60464   4.63197   4.67987   4.69122
 Alpha virt. eigenvalues --    4.75699   4.80246   4.83810   4.86567   4.88510
 Alpha virt. eigenvalues --    4.91357   4.98201   5.13235   5.16800   5.19583
 Alpha virt. eigenvalues --    5.21283   5.22752   5.24908   5.31091   5.38151
 Alpha virt. eigenvalues --    5.38661   5.43398   5.47302   5.51659   5.61860
 Alpha virt. eigenvalues --    5.65267   5.70025   5.78412   5.83641   5.92143
 Alpha virt. eigenvalues --    5.96615   5.99670   6.07236   6.14266   6.24717
 Alpha virt. eigenvalues --    6.34296   6.37560   6.41125   6.50208   6.52430
 Alpha virt. eigenvalues --    6.65262   6.67034   6.69760   6.76817   6.79869
 Alpha virt. eigenvalues --    6.84808   6.89891   6.94937   6.99542   7.12477
 Alpha virt. eigenvalues --    7.23262   7.30519   7.37355   7.43913  22.20709
 Alpha virt. eigenvalues --   22.44539  22.47433  22.70650  22.72959  22.79178
 Alpha virt. eigenvalues --   22.83221  22.93427  23.34870  23.52559  44.10576
 Alpha virt. eigenvalues --   44.32927  44.64428
          Condensed to atoms (all electrons):
               1          2          3          4          5          6
     1  C    4.980882   0.630413   0.303718   0.022246  -0.141311  -0.029545
     2  O    0.630413   7.814483  -0.082853  -0.052062   0.008024  -0.009441
     3  O    0.303718  -0.082853   7.960402  -0.055586   0.004254  -0.006522
     4  C    0.022246  -0.052062  -0.055586   5.365864   0.522583   0.233095
     5  H   -0.141311   0.008024   0.004254   0.522583   0.504841  -0.023700
     6  C   -0.029545  -0.009441  -0.006522   0.233095  -0.023700   5.068043
     7  H   -0.002839   0.003600   0.000571  -0.045894  -0.001410   0.416576
     8  H    0.013578  -0.000405  -0.000182  -0.051462  -0.006723   0.419991
     9  H   -0.023514   0.000695   0.004441  -0.020291   0.006612   0.411161
    10  O   -0.053734   0.003935   0.002624   0.223915  -0.036130  -0.040150
    11  C   -0.046336   0.000120   0.207309   0.001725  -0.000987  -0.000724
    12  H   -0.013610   0.004075  -0.031236  -0.001647  -0.000031  -0.000145
    13  H    0.005842   0.001871  -0.031950   0.000591  -0.000012   0.000099
    14  H   -0.001339   0.003423  -0.037595   0.000288   0.000007  -0.000010
    15  C    0.064488  -0.000903  -0.002216  -0.128536  -0.022239  -0.000489
    16  C   -0.010606  -0.012259   0.009045   0.006117   0.004221   0.000702
    17  C    0.001741  -0.000175   0.002694  -0.000922   0.002012  -0.000722
    18  C    0.000691   0.000126  -0.001700  -0.000259  -0.000952   0.000025
    19  H   -0.006505   0.011714  -0.002720   0.011649   0.002201   0.001194
    20  C    0.000656   0.000005  -0.000722   0.000289  -0.000371   0.000171
    21  H   -0.000474  -0.000001   0.000045   0.000153   0.000135  -0.000144
    22  C   -0.001132  -0.000008   0.000557   0.000132   0.000288  -0.000024
    23  H    0.000031  -0.000022  -0.000020   0.000153  -0.000071   0.000002
    24  H    0.000010   0.000000  -0.000004   0.000030  -0.000004  -0.000001
    25  H   -0.000000  -0.000000   0.000002  -0.000013   0.000001  -0.000000
               7          8          9         10         11         12
     1  C   -0.002839   0.013578  -0.023514  -0.053734  -0.046336  -0.013610
     2  O    0.003600  -0.000405   0.000695   0.003935   0.000120   0.004075
     3  O    0.000571  -0.000182   0.004441   0.002624   0.207309  -0.031236
     4  C   -0.045894  -0.051462  -0.020291   0.223915   0.001725  -0.001647
     5  H   -0.001410  -0.006723   0.006612  -0.036130  -0.000987  -0.000031
     6  C    0.416576   0.419991   0.411161  -0.040150  -0.000724  -0.000145
     7  H    0.505530  -0.020951  -0.022374   0.004700   0.000028   0.000071
     8  H   -0.020951   0.510101  -0.021385   0.002798   0.000076  -0.000004
     9  H   -0.022374  -0.021385   0.506247   0.000394  -0.000827  -0.000037
    10  O    0.004700   0.002798   0.000394   7.954930  -0.000852  -0.000091
    11  C    0.000028   0.000076  -0.000827  -0.000852   4.858949   0.423109
    12  H    0.000071  -0.000004  -0.000037  -0.000091   0.423109   0.532596
    13  H   -0.000016   0.000002  -0.000060  -0.000143   0.397317  -0.025941
    14  H   -0.000013   0.000003   0.000047  -0.000155   0.415983  -0.040151
    15  C    0.000553  -0.000797  -0.001241   0.316237   0.000046   0.000102
    16  C    0.000267  -0.000130  -0.000144  -0.071547  -0.001693   0.000427
    17  C    0.000070  -0.000054   0.000056  -0.049202   0.000267  -0.000005
    18  C   -0.000041   0.000015  -0.000014   0.007740  -0.000080  -0.000009
    19  H    0.000138  -0.000164   0.000091  -0.003332  -0.000148  -0.000168
    20  C   -0.000012   0.000029   0.000007   0.004091   0.000035  -0.000003
    21  H    0.000018  -0.000001   0.000017   0.008181   0.000001   0.000000
    22  C    0.000005  -0.000005   0.000002   0.000033  -0.000008   0.000001
    23  H    0.000000   0.000000  -0.000000  -0.000175   0.000004   0.000000
    24  H   -0.000000  -0.000000  -0.000000  -0.000163   0.000000  -0.000000
    25  H    0.000000   0.000000  -0.000000   0.000014   0.000000   0.000000
              13         14         15         16         17         18
     1  C    0.005842  -0.001339   0.064488  -0.010606   0.001741   0.000691
     2  O    0.001871   0.003423  -0.000903  -0.012259  -0.000175   0.000126
     3  O   -0.031950  -0.037595  -0.002216   0.009045   0.002694  -0.001700
     4  C    0.000591   0.000288  -0.128536   0.006117  -0.000922  -0.000259
     5  H   -0.000012   0.000007  -0.022239   0.004221   0.002012  -0.000952
     6  C    0.000099  -0.000010  -0.000489   0.000702  -0.000722   0.000025
     7  H   -0.000016  -0.000013   0.000553   0.000267   0.000070  -0.000041
     8  H    0.000002   0.000003  -0.000797  -0.000130  -0.000054   0.000015
     9  H   -0.000060   0.000047  -0.001241  -0.000144   0.000056  -0.000014
    10  O   -0.000143  -0.000155   0.316237  -0.071547  -0.049202   0.007740
    11  C    0.397317   0.415983   0.000046  -0.001693   0.000267  -0.000080
    12  H   -0.025941  -0.040151   0.000102   0.000427  -0.000005  -0.000009
    13  H    0.527700  -0.024225   0.000122   0.000004   0.000117   0.000014
    14  H   -0.024225   0.529432   0.000303  -0.001599  -0.000014   0.000221
    15  C    0.000122   0.000303   4.852426   0.318480   0.446537   0.032364
    16  C    0.000004  -0.001599   0.318480   5.279830   0.063929   0.352798
    17  C    0.000117  -0.000014   0.446537   0.063929   5.019797  -0.101362
    18  C    0.000014   0.000221   0.032364   0.352798  -0.101362   5.037687
    19  H   -0.000094   0.000966  -0.038912   0.389355  -0.002418  -0.007624
    20  C    0.000025   0.000001  -0.010226  -0.099522   0.486400  -0.003562
    21  H   -0.000002  -0.000000  -0.049136   0.011981   0.414007  -0.003890
    22  C   -0.000022  -0.000038  -0.079997  -0.000462  -0.017640   0.489596
    23  H    0.000002   0.000007   0.001416  -0.016023   0.001677   0.391804
    24  H   -0.000000   0.000000   0.010223  -0.003095  -0.042033   0.007524
    25  H    0.000000  -0.000000  -0.001090   0.008097   0.005178  -0.038273
              19         20         21         22         23         24
     1  C   -0.006505   0.000656  -0.000474  -0.001132   0.000031   0.000010
     2  O    0.011714   0.000005  -0.000001  -0.000008  -0.000022   0.000000
     3  O   -0.002720  -0.000722   0.000045   0.000557  -0.000020  -0.000004
     4  C    0.011649   0.000289   0.000153   0.000132   0.000153   0.000030
     5  H    0.002201  -0.000371   0.000135   0.000288  -0.000071  -0.000004
     6  C    0.001194   0.000171  -0.000144  -0.000024   0.000002  -0.000001
     7  H    0.000138  -0.000012   0.000018   0.000005   0.000000  -0.000000
     8  H   -0.000164   0.000029  -0.000001  -0.000005   0.000000  -0.000000
     9  H    0.000091   0.000007   0.000017   0.000002  -0.000000  -0.000000
    10  O   -0.003332   0.004091   0.008181   0.000033  -0.000175  -0.000163
    11  C   -0.000148   0.000035   0.000001  -0.000008   0.000004   0.000000
    12  H   -0.000168  -0.000003   0.000000   0.000001   0.000000  -0.000000
    13  H   -0.000094   0.000025  -0.000002  -0.000022   0.000002  -0.000000
    14  H    0.000966   0.000001  -0.000000  -0.000038   0.000007   0.000000
    15  C   -0.038912  -0.010226  -0.049136  -0.079997   0.001416   0.010223
    16  C    0.389355  -0.099522   0.011981  -0.000462  -0.016023  -0.003095
    17  C   -0.002418   0.486400   0.414007  -0.017640   0.001677  -0.042033
    18  C   -0.007624  -0.003562  -0.003890   0.489596   0.391804   0.007524
    19  H    0.463392   0.001225  -0.000173   0.000855  -0.002434   0.000042
    20  C    0.001225   4.901892  -0.034367   0.488597   0.001770   0.418161
    21  H   -0.000173  -0.034367   0.500298   0.007414   0.000078  -0.005979
    22  C    0.000855   0.488597   0.007414   4.935658  -0.028100  -0.040744
    23  H   -0.002434   0.001770   0.000078  -0.028100   0.508453  -0.000302
    24  H    0.000042   0.418161  -0.005979  -0.040744  -0.000302   0.517942
    25  H   -0.000200  -0.036667  -0.000168   0.414591  -0.003759  -0.004018
              25
     1  C   -0.000000
     2  O   -0.000000
     3  O    0.000002
     4  C   -0.000013
     5  H    0.000001
     6  C   -0.000000
     7  H    0.000000
     8  H    0.000000
     9  H   -0.000000
    10  O    0.000014
    11  C    0.000000
    12  H    0.000000
    13  H    0.000000
    14  H   -0.000000
    15  C   -0.001090
    16  C    0.008097
    17  C    0.005178
    18  C   -0.038273
    19  H   -0.000200
    20  C   -0.036667
    21  H   -0.000168
    22  C    0.414591
    23  H   -0.003759
    24  H   -0.004018
    25  H    0.515383
 Mulliken charges:
               1
     1  C    0.306650
     2  O   -0.324356
     3  O   -0.242357
     4  C   -0.032160
     5  H    0.178760
     6  C   -0.439439
     7  H    0.161424
     8  H    0.155667
     9  H    0.160120
    10  O   -0.273918
    11  C   -0.253314
    12  H    0.152695
    13  H    0.148759
    14  H    0.154459
    15  C    0.292488
    16  C   -0.228174
    17  C   -0.229936
    18  C   -0.162840
    19  H    0.182071
    20  C   -0.117903
    21  H    0.152006
    22  C   -0.169550
    23  H    0.145510
    24  H    0.142411
    25  H    0.140924
 Sum of Mulliken charges =  -0.00000
 Mulliken charges with hydrogens summed into heavy atoms:
               1
     1  C    0.306650
     2  O   -0.324356
     3  O   -0.242357
     4  C    0.146601
     6  C    0.037772
    10  O   -0.273918
    11  C    0.202599
    15  C    0.292488
    16  C   -0.046103
    17  C   -0.077930
    18  C   -0.017329
    20  C    0.024507
    22  C   -0.028626
 Electronic spatial extent (au):  <R**2>=           3004.3017
 Charge=             -0.0000 electrons
 Dipole moment (field-independent basis, Debye):
    X=              0.5941    Y=             -0.1669    Z=              0.9191  Tot=              1.1071
 Quadrupole moment (field-independent basis, Debye-Ang):
   XX=            -71.2972   YY=            -77.8953   ZZ=            -73.3378
   XY=              1.5441   XZ=             -2.4055   YZ=              2.1421
 Traceless Quadrupole moment (field-independent basis, Debye-Ang):
   XX=              2.8796   YY=             -3.7185   ZZ=              0.8390
   XY=              1.5441   XZ=             -2.4055   YZ=              2.1421
 Octapole moment (field-independent basis, Debye-Ang**2):
  XXX=             -9.7276  YYY=            267.6022  ZZZ=              1.4804  XYY=             24.5125
  XXY=             79.6054  XXZ=             -0.7498  XZZ=              7.7873  YZZ=            103.0917
  YYZ=             14.5308  XYZ=              5.8790
 Hexadecapole moment (field-independent basis, Debye-Ang**3):
 XXXX=          -1142.8239 YYYY=          -2062.0944 ZZZZ=           -776.9364 XXXY=            261.8159
 XXXZ=            226.2504 YYYX=            190.0013 YYYZ=           -311.6910 ZZZX=            241.2889
 ZZZY=           -272.7867 XXYY=           -505.9953 XXZZ=           -298.8792 YYZZ=           -500.3171
 XXYZ=            -64.1391 YYXZ=             73.8214 ZZXY=             81.4535
 N-N= 8.035314416361D+02 E-N=-3.039871559895D+03  KE= 6.111171188716D+02
   1 Symmetry operations used in ECPInt.
 ECPInt:  NShTT=   18336 NPrTT=   55600 LenC2=   17257 LenP2D=   39289.
 LDataN:  DoStor=T MaxTD1= 7 Len=  274
 Calling FoFJK, ICntrl=      2127 FMM=F ISym2X=0 I1Cent= 0 IOpClX= 0 NMat=1 NMatS=1 NMatT=0.
 -------------------------------------------------------------------
 Center     Atomic                   Forces (Hartrees/Bohr)
 Number     Number              X              Y              Z
 -------------------------------------------------------------------
      1        6           0.000002540    0.000004962   -0.000017807
      2        8           0.000004576   -0.000003114    0.000004583
      3        8          -0.000001988    0.000002138    0.000009547
      4        6          -0.000009008   -0.000001556    0.000010377
      5        1          -0.000000959    0.000000170   -0.000002096
      6        6           0.000000146   -0.000001092   -0.000004039
      7        1          -0.000000795    0.000000457    0.000000427
      8        1          -0.000000729    0.000000167   -0.000001342
      9        1          -0.000001459    0.000000620   -0.000000935
     10        8           0.000005046    0.000003896   -0.000003462
     11        6           0.000005903   -0.000003056   -0.000001934
     12        1          -0.000000088   -0.000000496    0.000004579
     13        1           0.000001186   -0.000001000    0.000000480
     14        1          -0.000002031    0.000001363    0.000000660
     15        6          -0.000008673    0.000001787   -0.000003019
     16        6          -0.000003514    0.000002811    0.000003577
     17        6           0.000005636   -0.000002750   -0.000002004
     18        6           0.000004794   -0.000005140    0.000001178
     19        1           0.000000660    0.000001503    0.000001168
     20        6           0.000000121   -0.000002433    0.000001559
     21        1          -0.000001060   -0.000000238   -0.000001020
     22        6           0.000000394    0.000001688   -0.000001724
     23        1           0.000000112    0.000000654    0.000000997
     24        1          -0.000000912   -0.000000956    0.000000159
     25        1           0.000000102   -0.000000385    0.000000092
 -------------------------------------------------------------------
 Cartesian Forces:  Max     0.000017807 RMS     0.000003812

 GradGradGradGradGradGradGradGradGradGradGradGradGradGradGradGradGradGrad
 Berny optimization.
 FormGI is forming the generalized inverse of G from B-inverse, IUseBI=4.
 Internal  Forces:  Max     0.000008694 RMS     0.000002307
 Search for a local minimum.
 Step number   1 out of a maximum of  125
 All quantities printed in internal units (Hartrees-Bohrs-Radians)
 Mixed Optimization -- En-DIIS/RFO-DIIS
 Second derivative matrix not updated -- first step.
 ITU=  0
     Eigenvalues ---    0.00247   0.00272   0.00350   0.00566   0.01588
     Eigenvalues ---    0.01754   0.01817   0.02097   0.02262   0.02343
     Eigenvalues ---    0.02596   0.02867   0.02876   0.03167   0.03930
     Eigenvalues ---    0.04382   0.04489   0.04918   0.05024   0.06131
     Eigenvalues ---    0.07065   0.08353   0.08507   0.10646   0.11042
     Eigenvalues ---    0.11587   0.12160   0.12423   0.12501   0.13168
     Eigenvalues ---    0.13319   0.14394   0.17901   0.18050   0.18370
     Eigenvalues ---    0.18927   0.19005   0.19090   0.19397   0.21224
     Eigenvalues ---    0.22121   0.24394   0.25625   0.27649   0.31041
     Eigenvalues ---    0.33093   0.33681   0.34577   0.34721   0.34885
     Eigenvalues ---    0.34944   0.35124   0.35429   0.35679   0.36241
     Eigenvalues ---    0.36363   0.36613   0.36837   0.37309   0.38474
     Eigenvalues ---    0.39401   0.41563   0.42903   0.47620   0.48934
     Eigenvalues ---    0.49668   0.52397   0.59927   0.91649
 RFO step:  Lambda=-2.43991331D-08 EMin= 2.46559443D-03
 Linear search not attempted -- first point.
 Iteration  1 RMS(Cart)=  0.00042083 RMS(Int)=  0.00000026
 Iteration  2 RMS(Cart)=  0.00000027 RMS(Int)=  0.00000000
 Variable       Old X    -DE/DX   Delta X   Delta X   Delta X     New X
                                 (Linear)    (Quad)   (Total)
    R1        2.26913  -0.00001   0.00000  -0.00001  -0.00001   2.26913
    R2        2.51117   0.00001   0.00000   0.00002   0.00002   2.51119
    R3        2.88206   0.00001   0.00000   0.00002   0.00002   2.88209
    R4        2.69764   0.00000   0.00000   0.00000   0.00000   2.69764
    R5        2.06670   0.00000   0.00000   0.00001   0.00001   2.06671
    R6        2.86987  -0.00000   0.00000  -0.00001  -0.00001   2.86985
    R7        2.65642   0.00000   0.00000   0.00001   0.00001   2.65643
    R8        2.05809   0.00000   0.00000   0.00000   0.00000   2.05809
    R9        2.05710   0.00000   0.00000   0.00000   0.00000   2.05710
   R10        2.05925  -0.00000   0.00000  -0.00000  -0.00000   2.05925
   R11        2.57576  -0.00000   0.00000  -0.00001  -0.00001   2.57575
   R12        2.05765   0.00000   0.00000   0.00001   0.00001   2.05766
   R13        2.05073   0.00000   0.00000   0.00000   0.00000   2.05073
   R14        2.05804  -0.00000   0.00000  -0.00001  -0.00001   2.05803
   R15        2.62805  -0.00000   0.00000  -0.00001  -0.00001   2.62804
   R16        2.63300   0.00001   0.00000   0.00002   0.00002   2.63302
   R17        2.63054   0.00000   0.00000   0.00001   0.00001   2.63055
   R18        2.04364   0.00000   0.00000   0.00000   0.00000   2.04364
   R19        2.61063  -0.00000   0.00000  -0.00001  -0.00001   2.61062
   R20        2.04418  -0.00000   0.00000  -0.00000  -0.00000   2.04418
   R21        2.61440  -0.00000   0.00000  -0.00001  -0.00001   2.61439
   R22        2.04547  -0.00000   0.00000  -0.00000  -0.00000   2.04547
   R23        2.62998   0.00000   0.00000   0.00001   0.00001   2.62998
   R24        2.04548   0.00000   0.00000   0.00000   0.00000   2.04548
   R25        2.04357   0.00000   0.00000   0.00000   0.00000   2.04357
    A1        2.17266  -0.00000   0.00000  -0.00001  -0.00001   2.17264
    A2        2.14531   0.00000   0.00000   0.00003   0.00003   2.14534
    A3        1.96434  -0.00000   0.00000  -0.00002  -0.00002   1.96432
    A4        2.01226   0.00000   0.00000   0.00000   0.00000   2.01227
    A5        1.85619  -0.00000   0.00000  -0.00001  -0.00001   1.85618
    A6        1.90375   0.00001   0.00000   0.00006   0.00006   1.90381
    A7        1.97301  -0.00001   0.00000  -0.00003  -0.00003   1.97297
    A8        1.92376  -0.00000   0.00000  -0.00001  -0.00001   1.92375
    A9        1.93480   0.00000   0.00000  -0.00001  -0.00001   1.93478
   A10        1.87261   0.00000   0.00000   0.00000   0.00000   1.87262
   A11        1.91937   0.00000   0.00000   0.00002   0.00002   1.91939
   A12        1.91017  -0.00000   0.00000  -0.00001  -0.00001   1.91016
   A13        1.91582   0.00000   0.00000   0.00001   0.00001   1.91584
   A14        1.90739  -0.00000   0.00000  -0.00000  -0.00000   1.90738
   A15        1.91060  -0.00000   0.00000  -0.00001  -0.00001   1.91059
   A16        1.90033  -0.00000   0.00000  -0.00000  -0.00000   1.90033
   A17        2.06832   0.00000   0.00000   0.00002   0.00002   2.06834
   A18        1.92462  -0.00000   0.00000  -0.00003  -0.00003   1.92459
   A19        1.84740   0.00000   0.00000   0.00000   0.00000   1.84741
   A20        1.91974   0.00000   0.00000   0.00003   0.00003   1.91978
   A21        1.93523  -0.00000   0.00000  -0.00004  -0.00004   1.93519
   A22        1.90431  -0.00000   0.00000  -0.00001  -0.00001   1.90430
   A23        1.93218   0.00000   0.00000   0.00004   0.00004   1.93222
   A24        2.17127  -0.00000   0.00000   0.00001   0.00001   2.17127
   A25        2.01630   0.00000   0.00000   0.00000   0.00000   2.01631
   A26        2.09561  -0.00000   0.00000  -0.00001  -0.00001   2.09560
   A27        2.08059  -0.00000   0.00000  -0.00001  -0.00001   2.08058
   A28        2.12325   0.00000   0.00000   0.00000   0.00000   2.12325
   A29        2.07935   0.00000   0.00000   0.00000   0.00000   2.07936
   A30        2.09384   0.00000   0.00000   0.00002   0.00002   2.09385
   A31        2.06629  -0.00000   0.00000  -0.00001  -0.00001   2.06628
   A32        2.12306  -0.00000   0.00000  -0.00001  -0.00001   2.12305
   A33        2.11256   0.00000   0.00000   0.00002   0.00002   2.11258
   A34        2.07492  -0.00000   0.00000  -0.00002  -0.00002   2.07490
   A35        2.09570  -0.00000   0.00000   0.00000   0.00000   2.09570
   A36        2.10344  -0.00000   0.00000  -0.00001  -0.00001   2.10343
   A37        2.08407   0.00000   0.00000  -0.00000  -0.00000   2.08407
   A38        2.09568   0.00000   0.00000   0.00001   0.00001   2.09569
   A39        2.08034  -0.00000   0.00000  -0.00001  -0.00001   2.08033
   A40        2.10132   0.00000   0.00000   0.00000   0.00000   2.10132
   A41        2.10153   0.00000   0.00000   0.00000   0.00000   2.10153
    D1       -0.04075   0.00000   0.00000  -0.00009  -0.00009  -0.04084
    D2       -3.13836   0.00000   0.00000  -0.00008  -0.00008  -3.13844
    D3        0.53795   0.00000   0.00000  -0.00004  -0.00004   0.53791
    D4       -1.53653   0.00000   0.00000  -0.00006  -0.00006  -1.53659
    D5        2.66501  -0.00000   0.00000  -0.00009  -0.00009   2.66492
    D6       -2.64683   0.00000   0.00000  -0.00005  -0.00005  -2.64688
    D7        1.56187   0.00000   0.00000  -0.00007  -0.00007   1.56181
    D8       -0.51977  -0.00000   0.00000  -0.00009  -0.00009  -0.51987
    D9        1.05837   0.00001   0.00000   0.00144   0.00144   1.05981
   D10       -3.13062   0.00000   0.00000   0.00138   0.00138  -3.12924
   D11       -1.04268   0.00001   0.00000   0.00145   0.00145  -1.04123
   D12        0.99783   0.00000   0.00000   0.00004   0.00004   0.99787
   D13        3.09333   0.00000   0.00000   0.00004   0.00004   3.09337
   D14       -1.10519   0.00000   0.00000   0.00003   0.00003  -1.10515
   D15       -1.03399  -0.00000   0.00000   0.00002   0.00002  -1.03397
   D16        1.06151  -0.00000   0.00000   0.00002   0.00002   1.06153
   D17       -3.13701  -0.00000   0.00000   0.00001   0.00001  -3.13700
   D18        3.14082  -0.00000   0.00000   0.00004   0.00004   3.14086
   D19       -1.04687  -0.00000   0.00000   0.00003   0.00003  -1.04683
   D20        1.03780  -0.00000   0.00000   0.00003   0.00003   1.03783
   D21       -1.13291   0.00001   0.00000   0.00004   0.00004  -1.13288
   D22        0.94936   0.00000   0.00000  -0.00001  -0.00001   0.94936
   D23        3.05075  -0.00000   0.00000  -0.00002  -0.00002   3.05073
   D24       -0.03135   0.00000   0.00000   0.00009   0.00009  -0.03127
   D25        3.11477   0.00000   0.00000   0.00003   0.00003   3.11480
   D26       -3.13628  -0.00000   0.00000  -0.00004  -0.00004  -3.13633
   D27        0.00349  -0.00000   0.00000  -0.00003  -0.00003   0.00346
   D28        0.00058   0.00000   0.00000   0.00002   0.00002   0.00060
   D29        3.14035   0.00000   0.00000   0.00003   0.00003   3.14038
   D30        3.13594   0.00000   0.00000   0.00004   0.00004   3.13598
   D31       -0.00649   0.00000   0.00000   0.00004   0.00004  -0.00645
   D32       -0.00133  -0.00000   0.00000  -0.00002  -0.00002  -0.00135
   D33        3.13942  -0.00000   0.00000  -0.00002  -0.00002   3.13941
   D34        0.00043  -0.00000   0.00000  -0.00001  -0.00001   0.00042
   D35        3.14122  -0.00000   0.00000  -0.00000  -0.00000   3.14122
   D36       -3.13939  -0.00000   0.00000  -0.00002  -0.00002  -3.13941
   D37        0.00140  -0.00000   0.00000  -0.00001  -0.00001   0.00139
   D38        0.00108   0.00000   0.00000   0.00001   0.00001   0.00109
   D39       -3.14108   0.00000   0.00000   0.00000   0.00000  -3.14108
   D40       -3.13965   0.00000   0.00000   0.00001   0.00001  -3.13964
   D41        0.00137   0.00000   0.00000   0.00000   0.00000   0.00137
   D42       -0.00068  -0.00000   0.00000  -0.00000  -0.00000  -0.00068
   D43       -3.14157  -0.00000   0.00000  -0.00000  -0.00000  -3.14157
   D44       -3.14146  -0.00000   0.00000  -0.00001  -0.00001  -3.14147
   D45        0.00084  -0.00000   0.00000  -0.00001  -0.00001   0.00083
   D46       -0.00008   0.00000   0.00000   0.00000   0.00000  -0.00008
   D47        3.14081  -0.00000   0.00000   0.00000   0.00000   3.14081
   D48       -3.14110   0.00000   0.00000   0.00001   0.00001  -3.14109
   D49       -0.00021   0.00000   0.00000   0.00001   0.00001  -0.00020
         Item               Value     Threshold  Converged?
 Maximum Force            0.000009     0.000450     YES
 RMS     Force            0.000002     0.000300     YES
 Maximum Displacement     0.002197     0.001800     NO 
 RMS     Displacement     0.000421     0.001200     YES
 Predicted change in Energy=-1.219957D-08
 GradGradGradGradGradGradGradGradGradGradGradGradGradGradGradGradGradGrad

                          Input orientation:                          
 ---------------------------------------------------------------------
 Center     Atomic      Atomic             Coordinates (Angstroms)
 Number     Number       Type             X           Y           Z
 ---------------------------------------------------------------------
      1          6           0       -0.940609    0.399909    0.557573
      2          8           0       -1.205985    1.425895   -0.007030
      3          8           0        0.021847    0.267241    1.464189
      4          6           0       -1.727190   -0.889613    0.346726
      5          1           0       -2.093872   -0.861685   -0.683246
      6          6           0       -2.893716   -0.924099    1.318506
      7          1           0       -3.519363   -0.043452    1.180089
      8          1           0       -3.487672   -1.818729    1.140072
      9          1           0       -2.520274   -0.947086    2.341967
     10          8           0       -0.959992   -2.045454    0.573637
     11          6           0        0.793644    1.442537    1.710854
     12          1           0        0.154562    2.242804    2.080695
     13          1           0        1.531639    1.161648    2.455250
     14          1           0        1.278501    1.769286    0.792050
     15          6           0        0.092516   -2.300491   -0.254029
     16          6           0        0.446373   -1.509587   -1.341822
     17          6           0        0.829936   -3.443672    0.047192
     18          6           0        1.540821   -1.875512   -2.120299
     19          1           0       -0.108475   -0.617798   -1.599467
     20          6           0        1.912767   -3.792767   -0.736451
     21          1           0        0.531997   -4.037853    0.900615
     22          6           0        2.276910   -3.009842   -1.827932
     23          1           0        1.811361   -1.256330   -2.965905
     24          1           0        2.478972   -4.682995   -0.494485
     25          1           0        3.125303   -3.284356   -2.439750
 ---------------------------------------------------------------------
                    Distance matrix (angstroms):
                    1          2          3          4          5
     1  C    0.000000
     2  O    1.200769   0.000000
     3  O    1.328862   2.239316   0.000000
     4  C    1.525134   2.399661   2.376166   0.000000
     5  H    2.112171   2.545316   3.219040   1.093653   0.000000
     6  C    2.479243   3.182444   3.152939   1.518660   2.156538
     7  H    2.689622   2.986627   3.566147   2.149968   2.484662
     8  H    3.427709   4.129106   4.095491   2.142883   2.486583
     9  H    2.737481   3.588339   2.950841   2.147853   3.056309
    10  O    2.445493   3.528165   2.665642   1.405720   2.065610
    11  C    2.329112   2.636270   1.427527   3.695182   4.402147
    12  H    2.629745   2.622408   2.073774   4.044709   4.725746
    13  H    3.208338   3.691508   2.015350   4.390160   5.204648
    14  H    2.618134   2.632322   2.070529   4.037603   4.524534
    15  C    3.003033   3.953868   3.090391   2.379667   2.652298
    16  C    3.029455   3.623399   3.348289   2.821337   2.703026
    17  C    4.262445   5.278314   4.053611   3.626546   3.968482
    18  C    4.301865   4.786455   4.443786   4.211664   4.037817
    19  H    2.526063   2.813728   3.191593   2.545936   2.200169
    20  C    5.234004   6.123162   4.990197   4.780258   4.964598
    21  H    4.688281   5.804907   4.371694   3.914350   4.414957
    22  C    5.260178   5.926383   5.163589   5.025667   5.002861
    23  H    4.767742   5.005362   5.014914   4.861003   4.540608
    24  H    6.215809   7.150878   5.863336   5.726184   5.962293
    25  H    6.252152   6.845777   6.122583   6.086538   6.016181
                    6          7          8          9         10
     6  C    0.000000
     7  H    1.089097   0.000000
     8  H    1.088570   1.776011   0.000000
     9  H    1.089707   1.778959   1.772053   0.000000
    10  O    2.356174   3.305476   2.600272   2.601516   0.000000
    11  C    4.399037   4.592592   5.412145   4.134084   4.066274
    12  H    4.461188   4.419929   5.535944   4.171139   4.680022
    13  H    5.022578   5.347047   5.983796   4.569200   4.475957
    14  H    4.993884   5.143549   5.975900   4.920530   4.428408
    15  C    3.644846   4.494062   3.872126   3.923975   1.363030
    16  C    4.310028   4.923073   4.661768   4.763162   2.435981
    17  C    4.672267   5.635721   4.740945   4.766849   2.331524
    18  C    5.691721   6.313040   5.993245   6.104613   3.679707
    19  H    4.045485   4.437336   4.512901   4.632506   2.735994
    20  C    5.962750   6.873029   6.048381   6.101346   3.608626
    21  H    4.648184   5.696215   4.597781   4.576756   2.510498
    22  C    6.402013   7.172478   6.592284   6.682515   4.144287
    23  H    6.372150   6.861264   6.727189   6.858002   4.564151
    24  H    6.803089   7.765924   6.817377   6.855286   4.463629
    25  H    7.478228   8.231542   7.661242   7.758879   5.225421
                   11         12         13         14         15
    11  C    0.000000
    12  H    1.088869   0.000000
    13  H    1.085200   1.790399   0.000000
    14  H    1.089061   1.774279   1.788725   0.000000
    15  C    4.285161   5.108455   4.625762   4.366226   0.000000
    16  C    4.260806   5.087162   4.767710   3.999607   1.390697
    17  C    5.161795   6.076781   5.244054   5.284974   1.393335
    18  C    5.123032   6.044055   5.491819   4.672809   2.400242
    19  H    4.002127   4.668599   4.721984   3.652564   2.163806
    20  C    5.886438   6.888811   5.905798   5.803020   2.402693
    21  H    5.546135   6.401695   5.518241   5.855930   2.131847
    22  C    5.877649   6.882733   6.025148   5.540865   2.784228
    23  H    5.494697   6.360589   5.942540   4.853917   3.376236
    24  H    6.725027   7.746039   6.615000   6.687917   3.380727
    25  H    6.708775   7.733643   6.802040   6.276504   3.865639
                   16         17         18         19         20
    16  C    0.000000
    17  C    2.411880   0.000000
    18  C    1.392029   2.768122   0.000000
    19  H    1.081446   3.402597   2.138526   0.000000
    20  C    2.780233   1.381480   2.393585   3.861431   0.000000
    21  H    3.380530   1.081735   3.849593   4.284552   2.155592
    22  C    2.416181   2.407910   1.383477   3.385873   1.391727
    23  H    2.136580   3.850507   1.082417   2.441443   3.378500
    24  H    3.862635   2.132758   3.377182   4.943854   1.082423
    25  H    3.395867   3.388063   2.144172   4.274802   2.151733
                   21         22         23         24         25
    21  H    0.000000
    22  C    3.398014   0.000000
    23  H    4.931897   2.141617   0.000000
    24  H    2.480569   2.149035   4.277342   0.000000
    25  H    4.295466   1.081411   2.473090   2.481530   0.000000
 Symmetry turned off by external request.
 Stoichiometry    C10H12O3
 Framework group  C1[X(C10H12O3)]
 Deg. of freedom    69
 Full point group                 C1      NOp   1
 Rotational constants (GHZ):           1.3554584           0.5414308           0.4743306
 Standard basis: def2TZVP (5D, 7F)
   475 basis functions,   759 primitive gaussians,   540 cartesian basis functions
    48 alpha electrons       48 beta electrons
       nuclear repulsion energy       803.5322141915 Hartrees.
 NAtoms=   25 NActive=   25 NUniq=   25 SFac= 1.00D+00 NAtFMM=   60 NAOKFM=F Big=F
 Integral buffers will be    131072 words long.
 Raffenetti 2 integral format.
 Two-electron integral symmetry is turned off.
 One-electron integrals computed using PRISM.
   1 Symmetry operations used in ECPInt.
 ECPInt:  NShTT=   18336 NPrTT=   55600 LenC2=   17257 LenP2D=   39289.
 LDataN:  DoStor=T MaxTD1= 6 Len=  172
 NBasis=   475 RedAO= T EigKep=  8.73D-06  NBF=   475
 NBsUse=   475 1.00D-06 EigRej= -1.00D+00 NBFU=   475
 Initial guess from the checkpoint file:  "/dev/shm/me2pheoxprpnt_30.chk"
 B after Tr=     0.000006    0.000008   -0.000017
         Rot=    1.000000    0.000004    0.000010    0.000002 Ang=   0.00 deg.
 Requested convergence on RMS density matrix=1.00D-08 within  32 cycles.
 Requested convergence on MAX density matrix=1.00D-06.
 Requested convergence on             energy=1.00D-06.
 No special actions if energy rises.
 SCF Done:  E(RM062X) =  -613.945899544     A.U. after    5 cycles
            NFock=  5  Conv=0.62D-08     -V/T= 2.0046
 QCSCF skips out because SCF is already converged.
   1 Symmetry operations used in ECPInt.
 ECPInt:  NShTT=   18336 NPrTT=   55600 LenC2=   17257 LenP2D=   39289.
 LDataN:  DoStor=T MaxTD1= 7 Len=  274
 Calling FoFJK, ICntrl=      2127 FMM=F ISym2X=0 I1Cent= 0 IOpClX= 0 NMat=1 NMatS=1 NMatT=0.
 -------------------------------------------------------------------
 Center     Atomic                   Forces (Hartrees/Bohr)
 Number     Number              X              Y              Z
 -------------------------------------------------------------------
      1        6           0.000000807   -0.000000274    0.000000626
      2        8           0.000000648    0.000000734    0.000000226
      3        8          -0.000000201   -0.000000309    0.000000134
      4        6           0.000000096    0.000000454   -0.000000452
      5        1           0.000000298    0.000000867   -0.000000550
      6        6          -0.000000331    0.000000538   -0.000000689
      7        1           0.000000024    0.000000786   -0.000000714
      8        1          -0.000000485    0.000000829   -0.000001198
      9        1          -0.000000610    0.000000157   -0.000000740
     10        8          -0.000000306    0.000000162   -0.000000624
     11        6           0.000000280   -0.000000857    0.000000929
     12        1           0.000000490   -0.000000557    0.000000971
     13        1           0.000000016   -0.000001092    0.000001079
     14        1           0.000000726   -0.000000601    0.000001218
     15        6          -0.000000387    0.000000016   -0.000000114
     16        6           0.000000277    0.000000250    0.000000066
     17        6          -0.000000759   -0.000000177   -0.000000372
     18        6           0.000000386    0.000000167    0.000000258
     19        1           0.000000660    0.000000505    0.000000092
     20        6          -0.000000550   -0.000000379   -0.000000182
     21        1          -0.000001112   -0.000000356   -0.000000681
     22        6           0.000000028   -0.000000304    0.000000215
     23        1           0.000000866    0.000000305    0.000000450
     24        1          -0.000000936   -0.000000587   -0.000000260
     25        1           0.000000078   -0.000000275    0.000000310
 -------------------------------------------------------------------
 Cartesian Forces:  Max     0.000001218 RMS     0.000000572

 GradGradGradGradGradGradGradGradGradGradGradGradGradGradGradGradGradGrad
 Berny optimization.
 Using GEDIIS/GDIIS optimizer.
 FormGI is forming the generalized inverse of G from B-inverse, IUseBI=4.
 Internal  Forces:  Max     0.000000398 RMS     0.000000064
 Search for a local minimum.
 Step number   2 out of a maximum of  125
 All quantities printed in internal units (Hartrees-Bohrs-Radians)
 Mixed Optimization -- En-DIIS/RFO-DIIS
 Swapping is turned off.
 Update second derivatives using D2CorX and points    1    2
 DE= -1.21D-08 DEPred=-1.22D-08 R= 9.95D-01
 Trust test= 9.95D-01 RLast= 2.49D-03 DXMaxT set to 3.00D-01
 ITU=  0  0
     Eigenvalues ---    0.00247   0.00272   0.00352   0.00566   0.01588
     Eigenvalues ---    0.01754   0.01817   0.02098   0.02262   0.02343
     Eigenvalues ---    0.02596   0.02867   0.02876   0.03166   0.03931
     Eigenvalues ---    0.04382   0.04489   0.04920   0.05024   0.06131
     Eigenvalues ---    0.07066   0.08353   0.08507   0.10646   0.11042
     Eigenvalues ---    0.11586   0.12160   0.12423   0.12502   0.13168
     Eigenvalues ---    0.13319   0.14390   0.17899   0.18048   0.18368
     Eigenvalues ---    0.18927   0.19004   0.19090   0.19397   0.21227
     Eigenvalues ---    0.22124   0.24394   0.25623   0.27648   0.31041
     Eigenvalues ---    0.33093   0.33685   0.34576   0.34721   0.34886
     Eigenvalues ---    0.34944   0.35124   0.35429   0.35679   0.36241
     Eigenvalues ---    0.36363   0.36613   0.36837   0.37309   0.38477
     Eigenvalues ---    0.39399   0.41564   0.42903   0.47620   0.48934
     Eigenvalues ---    0.49691   0.52395   0.59928   0.91659
 En-DIIS/RFO-DIIS/Sim-DIIS IScMMF=       -3 using points:     2    1
 RFO step:  Lambda=-1.40197095D-12.
 DidBck=F Rises=F RFO-DIIS coefs:    0.99137    0.00863
 Iteration  1 RMS(Cart)=  0.00000549 RMS(Int)=  0.00000000
 Iteration  2 RMS(Cart)=  0.00000000 RMS(Int)=  0.00000000
 Variable       Old X    -DE/DX   Delta X   Delta X   Delta X     New X
                                 (Linear)    (Quad)   (Total)
    R1        2.26913   0.00000   0.00000   0.00000   0.00000   2.26913
    R2        2.51119  -0.00000  -0.00000  -0.00000  -0.00000   2.51119
    R3        2.88209  -0.00000  -0.00000  -0.00000  -0.00000   2.88209
    R4        2.69764  -0.00000  -0.00000  -0.00000  -0.00000   2.69764
    R5        2.06671   0.00000  -0.00000   0.00000   0.00000   2.06671
    R6        2.86985   0.00000   0.00000   0.00000   0.00000   2.86985
    R7        2.65643  -0.00000  -0.00000  -0.00000  -0.00000   2.65643
    R8        2.05809   0.00000  -0.00000  -0.00000  -0.00000   2.05809
    R9        2.05710  -0.00000  -0.00000  -0.00000  -0.00000   2.05710
   R10        2.05925  -0.00000   0.00000  -0.00000  -0.00000   2.05925
   R11        2.57575  -0.00000   0.00000  -0.00000  -0.00000   2.57575
   R12        2.05766   0.00000  -0.00000   0.00000  -0.00000   2.05766
   R13        2.05073  -0.00000  -0.00000  -0.00000  -0.00000   2.05073
   R14        2.05803  -0.00000   0.00000  -0.00000   0.00000   2.05803
   R15        2.62804   0.00000   0.00000   0.00000   0.00000   2.62804
   R16        2.63302  -0.00000  -0.00000  -0.00000  -0.00000   2.63302
   R17        2.63055   0.00000  -0.00000   0.00000   0.00000   2.63055
   R18        2.04364   0.00000  -0.00000   0.00000   0.00000   2.04364
   R19        2.61062   0.00000   0.00000   0.00000   0.00000   2.61062
   R20        2.04418  -0.00000   0.00000  -0.00000  -0.00000   2.04418
   R21        2.61439   0.00000   0.00000   0.00000   0.00000   2.61439
   R22        2.04547   0.00000   0.00000   0.00000   0.00000   2.04547
   R23        2.62998  -0.00000  -0.00000  -0.00000  -0.00000   2.62998
   R24        2.04548  -0.00000  -0.00000  -0.00000  -0.00000   2.04548
   R25        2.04357   0.00000  -0.00000   0.00000   0.00000   2.04357
    A1        2.17264   0.00000   0.00000   0.00000   0.00000   2.17264
    A2        2.14534  -0.00000  -0.00000  -0.00000  -0.00000   2.14534
    A3        1.96432  -0.00000   0.00000   0.00000   0.00000   1.96432
    A4        2.01227   0.00000  -0.00000   0.00000   0.00000   2.01227
    A5        1.85618   0.00000   0.00000   0.00000   0.00000   1.85618
    A6        1.90381  -0.00000  -0.00000   0.00000  -0.00000   1.90381
    A7        1.97297  -0.00000   0.00000  -0.00000  -0.00000   1.97297
    A8        1.92375  -0.00000   0.00000  -0.00000  -0.00000   1.92375
    A9        1.93478   0.00000   0.00000   0.00000   0.00000   1.93478
   A10        1.87262   0.00000  -0.00000   0.00000   0.00000   1.87262
   A11        1.91939   0.00000  -0.00000  -0.00000  -0.00000   1.91939
   A12        1.91016  -0.00000   0.00000  -0.00000  -0.00000   1.91016
   A13        1.91584  -0.00000  -0.00000   0.00000   0.00000   1.91584
   A14        1.90738   0.00000   0.00000   0.00000   0.00000   1.90738
   A15        1.91059   0.00000   0.00000   0.00000   0.00000   1.91059
   A16        1.90033   0.00000   0.00000   0.00000   0.00000   1.90033
   A17        2.06834  -0.00000  -0.00000   0.00000  -0.00000   2.06834
   A18        1.92459   0.00000   0.00000   0.00000   0.00000   1.92459
   A19        1.84741   0.00000  -0.00000   0.00000   0.00000   1.84741
   A20        1.91978   0.00000  -0.00000   0.00000  -0.00000   1.91978
   A21        1.93519  -0.00000   0.00000  -0.00000   0.00000   1.93519
   A22        1.90430  -0.00000   0.00000  -0.00000  -0.00000   1.90430
   A23        1.93222  -0.00000  -0.00000  -0.00000  -0.00000   1.93222
   A24        2.17127   0.00000  -0.00000   0.00000   0.00000   2.17127
   A25        2.01631  -0.00000  -0.00000   0.00000   0.00000   2.01631
   A26        2.09560  -0.00000   0.00000  -0.00000  -0.00000   2.09560
   A27        2.08058  -0.00000   0.00000   0.00000   0.00000   2.08058
   A28        2.12325   0.00000  -0.00000   0.00000   0.00000   2.12325
   A29        2.07936  -0.00000  -0.00000  -0.00000  -0.00000   2.07936
   A30        2.09385   0.00000  -0.00000   0.00000   0.00000   2.09385
   A31        2.06628  -0.00000   0.00000  -0.00000  -0.00000   2.06628
   A32        2.12305  -0.00000   0.00000  -0.00000  -0.00000   2.12305
   A33        2.11258  -0.00000  -0.00000   0.00000  -0.00000   2.11258
   A34        2.07490   0.00000   0.00000  -0.00000   0.00000   2.07490
   A35        2.09570   0.00000  -0.00000   0.00000  -0.00000   2.09570
   A36        2.10343   0.00000   0.00000  -0.00000   0.00000   2.10343
   A37        2.08407   0.00000   0.00000   0.00000   0.00000   2.08407
   A38        2.09569  -0.00000  -0.00000   0.00000  -0.00000   2.09569
   A39        2.08033  -0.00000   0.00000  -0.00000  -0.00000   2.08033
   A40        2.10132   0.00000  -0.00000  -0.00000  -0.00000   2.10132
   A41        2.10153   0.00000  -0.00000   0.00000   0.00000   2.10153
    D1       -0.04084  -0.00000   0.00000  -0.00000  -0.00000  -0.04084
    D2       -3.13844  -0.00000   0.00000  -0.00000  -0.00000  -3.13844
    D3        0.53791   0.00000   0.00000   0.00001   0.00001   0.53792
    D4       -1.53659   0.00000   0.00000   0.00001   0.00001  -1.53658
    D5        2.66492   0.00000   0.00000   0.00001   0.00001   2.66493
    D6       -2.64688  -0.00000   0.00000   0.00001   0.00001  -2.64688
    D7        1.56181   0.00000   0.00000   0.00001   0.00001   1.56181
    D8       -0.51987   0.00000   0.00000   0.00001   0.00001  -0.51986
    D9        1.05981  -0.00000  -0.00001   0.00000  -0.00001   1.05980
   D10       -3.12924  -0.00000  -0.00001   0.00000  -0.00001  -3.12925
   D11       -1.04123  -0.00000  -0.00001   0.00000  -0.00001  -1.04124
   D12        0.99787   0.00000  -0.00000   0.00000  -0.00000   0.99787
   D13        3.09337   0.00000  -0.00000  -0.00000  -0.00000   3.09337
   D14       -1.10515   0.00000  -0.00000   0.00000  -0.00000  -1.10515
   D15       -1.03397   0.00000  -0.00000   0.00000  -0.00000  -1.03397
   D16        1.06153   0.00000  -0.00000  -0.00000  -0.00000   1.06153
   D17       -3.13700   0.00000  -0.00000  -0.00000  -0.00000  -3.13700
   D18        3.14086  -0.00000  -0.00000  -0.00000  -0.00000   3.14086
   D19       -1.04683  -0.00000  -0.00000  -0.00000  -0.00000  -1.04683
   D20        1.03783  -0.00000  -0.00000  -0.00000  -0.00000   1.03783
   D21       -1.13288  -0.00000  -0.00000   0.00000   0.00000  -1.13288
   D22        0.94936  -0.00000   0.00000   0.00000   0.00000   0.94936
   D23        3.05073  -0.00000   0.00000   0.00000   0.00000   3.05073
   D24       -0.03127  -0.00000  -0.00000  -0.00000  -0.00001  -0.03127
   D25        3.11480  -0.00000  -0.00000  -0.00001  -0.00001   3.11479
   D26       -3.13633   0.00000   0.00000   0.00000   0.00000  -3.13633
   D27        0.00346  -0.00000   0.00000   0.00000   0.00000   0.00346
   D28        0.00060   0.00000  -0.00000   0.00000   0.00000   0.00060
   D29        3.14038  -0.00000  -0.00000   0.00000   0.00000   3.14038
   D30        3.13598  -0.00000  -0.00000  -0.00000  -0.00000   3.13598
   D31       -0.00645  -0.00000  -0.00000  -0.00000  -0.00000  -0.00645
   D32       -0.00135  -0.00000   0.00000  -0.00000  -0.00000  -0.00135
   D33        3.13941  -0.00000   0.00000  -0.00000  -0.00000   3.13941
   D34        0.00042  -0.00000   0.00000  -0.00000  -0.00000   0.00042
   D35        3.14122  -0.00000   0.00000  -0.00000  -0.00000   3.14122
   D36       -3.13941   0.00000   0.00000  -0.00000  -0.00000  -3.13941
   D37        0.00139   0.00000   0.00000  -0.00000  -0.00000   0.00139
   D38        0.00109  -0.00000  -0.00000   0.00000  -0.00000   0.00109
   D39       -3.14108  -0.00000  -0.00000  -0.00000  -0.00000  -3.14108
   D40       -3.13964  -0.00000  -0.00000   0.00000   0.00000  -3.13964
   D41        0.00137   0.00000  -0.00000   0.00000   0.00000   0.00137
   D42       -0.00068   0.00000   0.00000  -0.00000  -0.00000  -0.00068
   D43       -3.14157  -0.00000   0.00000  -0.00000  -0.00000  -3.14157
   D44       -3.14147   0.00000   0.00000  -0.00000   0.00000  -3.14147
   D45        0.00083   0.00000   0.00000   0.00000   0.00000   0.00083
   D46       -0.00008   0.00000  -0.00000   0.00000   0.00000  -0.00008
   D47        3.14081   0.00000  -0.00000   0.00000   0.00000   3.14081
   D48       -3.14109   0.00000  -0.00000   0.00000   0.00000  -3.14109
   D49       -0.00020   0.00000  -0.00000   0.00000   0.00000  -0.00020
         Item               Value     Threshold  Converged?
 Maximum Force            0.000000     0.000450     YES
 RMS     Force            0.000000     0.000300     YES
 Maximum Displacement     0.000020     0.001800     YES
 RMS     Displacement     0.000005     0.001200     YES
 Predicted change in Energy=-2.148205D-12
 Optimization completed.
    -- Stationary point found.
                           ----------------------------
                           !   Optimized Parameters   !
                           ! (Angstroms and Degrees)  !
 --------------------------                            --------------------------
 ! Name  Definition              Value          Derivative Info.                !
 --------------------------------------------------------------------------------
 ! R1    R(1,2)                  1.2008         -DE/DX =    0.0                 !
 ! R2    R(1,3)                  1.3289         -DE/DX =    0.0                 !
 ! R3    R(1,4)                  1.5251         -DE/DX =    0.0                 !
 ! R4    R(3,11)                 1.4275         -DE/DX =    0.0                 !
 ! R5    R(4,5)                  1.0937         -DE/DX =    0.0                 !
 ! R6    R(4,6)                  1.5187         -DE/DX =    0.0                 !
 ! R7    R(4,10)                 1.4057         -DE/DX =    0.0                 !
 ! R8    R(6,7)                  1.0891         -DE/DX =    0.0                 !
[...]
 1289,-0.00052356,-0.00034163,-0.00080472,0.00051936,-0.00017184,-0.000
 22096,-0.00003506,0.00284618,0.00157156,-0.00194595,0.00060255,-0.0005
 4348,-0.00001793,0.00061654,-0.00126586,0.00053101,0.00037780,0.000059
 42,-0.00037034,-0.00000710,0.00004341,0.00005425,-0.00008082,0.0000107
 8,-0.00002080,0.02470224,-0.02910395,0.00839334,0.00008053,0.00018061,
 -0.00004489,0.00000252,-0.00003364,0.00001007,-0.00002471,0.00000722,0
 .00002893,-0.00002508,-0.00002625,-0.00001251,-0.03203112,0.08901574,-
 0.12160886,-0.01711262,0.02212276,0.00694625,-0.23209842,-0.19707038,0
 .54950044,-0.00236338,0.00084050,0.00060760,0.00046442,-0.00012479,-0.
 00012708,0.00075795,-0.00073091,-0.00096128,-0.00053347,0.00102165,0.0
 0011654,-0.00025835,0.00037546,0.00031239,0.00001247,0.00015071,0.0000
 3878,-0.00001090,-0.00002097,-0.00002015,0.00006611,-0.00004255,-0.000
 02498,0.00000735,-0.00004056,-0.00003523,0.00263093,0.00593242,-0.0016
 7551,0.00033054,0.00039519,0.00024974,-0.00001531,-0.00006406,-0.00003
 860,-0.00002757,-0.00001845,-0.00002079,-0.00003938,0.00011405,0.00008
 546,0.00227799,-0.06099707,0.05708515,-0.23274487,0.08704092,0.0955123
 6,-0.04659027,0.03484814,0.01023916,0.48508052,0.00079410,-0.00050886,
 0.00067126,0.00008646,0.00000926,-0.00044589,-0.00036102,0.00032367,0.
 00021304,0.00181244,-0.00150567,0.00042882,0.00042054,-0.00053921,-0.0
 0087988,-0.00018482,0.00025569,0.00000608,-0.00007831,-0.00000628,0.00
 001387,0.00004542,0.00001837,-0.00004355,0.00003186,0.00002309,-0.0000
 6277,0.00269151,-0.00392323,0.00761072,-0.00008488,-0.00004859,-0.0000
 3244,0.00001971,0.00001587,0.00001465,-0.00000406,0.00000830,0.0000128
 0,-0.00000089,-0.00000515,-0.00001529,-0.02473031,0.05526929,-0.023630
 98,0.04336066,-0.12274691,0.01251388,0.03651033,-0.03414561,-0.0103782
 2,-0.16857719,0.55249024,-0.00029425,-0.00022829,-0.00079456,0.0000171
 5,0.00013096,0.00033535,0.00018200,0.00021446,0.00042950,-0.00057752,0
 .00047213,0.00041229,0.00061433,-0.00019494,-0.00007348,0.00035079,-0.
 00026618,0.00029279,0.00003379,-0.00001989,-0.00004743,-0.00007714,-0.
 00000182,-0.00000049,-0.00013755,0.00004308,0.00011458,0.00168025,0.00
 442251,0.00140626,-0.00015159,-0.00022766,-0.00011304,-0.00000494,0.00
 001981,0.00000392,0.00002418,0.00000743,0.00001267,-0.00000551,-0.0000
 3161,-0.00001379,0.02302917,0.01365004,-0.03379181,0.13579097,-0.03201
 724,-0.16973219,0.00894498,-0.00875496,-0.00589545,-0.19774653,-0.2079
 0147,0.53179829,0.00155461,0.00058842,0.00100500,-0.00074462,-0.000056
 64,0.00000681,-0.00096920,-0.00003397,-0.00019912,-0.00187086,-0.00069
 946,0.00133976,-0.00240341,0.00016014,0.00207739,0.00006125,-0.0002907
 5,0.00006041,0.00006015,0.00002442,-0.00001894,-0.00002449,-0.00001039
 ,0.00004333,-0.00002631,-0.00003149,-0.00001401,-0.00128044,0.00018350
 ,-0.00180016,0.00006356,0.00009498,-0.00017098,-0.00002103,-0.00001212
 ,0.00005281,-0.00002628,-0.00001734,0.00002197,-0.00005295,-0.00013830
 ,-0.00005855,0.00848834,-0.00663525,0.00106397,-0.12309069,0.12842886,
 -0.02743948,0.00202074,0.00027558,0.00336316,-0.00895902,0.02053270,-0
 .00746693,0.12949088,0.00146908,0.00129720,-0.00222067,-0.00005550,-0.
 00124791,0.00026629,0.00019810,-0.00019630,0.00053764,0.00086466,-0.00
 038056,-0.00038400,-0.00069913,0.00023103,-0.00040311,-0.00049276,0.00
 020490,-0.00053380,-0.00001125,-0.00002394,0.00005842,0.00000951,-0.00
 000223,0.00001120,0.00022761,0.00001291,-0.00015229,-0.00063993,-0.000
 68801,-0.00154439,-0.00003154,-0.00000496,-0.00007292,-0.00001734,0.00
 000855,0.00001527,-0.00001541,-0.00001407,0.00001476,-0.00003927,-0.00
 001508,0.00003972,0.01050436,-0.00964051,0.00177133,0.12780165,-0.2474
 3884,0.06656488,0.00000011,0.00088731,0.00438902,0.00283634,-0.0030506
 8,0.00235237,-0.14260649,0.25796847,0.00156245,-0.00114819,-0.00370129
 ,-0.00030963,-0.00014489,0.00050385,0.00025691,0.00024969,0.00056198,0
 .00016587,0.00074113,-0.00162485,0.00067319,0.00013225,0.00029590,0.00
 007547,-0.00023827,-0.00011096,0.00003691,0.00001774,0.00000948,-0.000
 10886,-0.00001095,0.00006846,-0.00002496,0.00001698,0.00005470,-0.0010
 9228,-0.00255360,0.00040667,-0.00022555,-0.00030231,-0.00020449,0.0000
 0716,0.00004118,0.00002191,0.00002500,0.00001463,0.00004637,-0.0000239
 9,-0.00003779,-0.00002336,-0.01434082,0.01906181,0.00081356,-0.0270840
 3,0.06613689,-0.06798509,0.00358975,0.00419351,-0.00173361,0.00906566,
 -0.01593385,0.00789011,0.02421232,-0.06968349,0.06608275,0.00078242,0.
 00004688,-0.00084163,-0.00017069,-0.00044226,0.00043497,-0.00026839,0.
 00012832,0.00058337,-0.00022577,0.00094606,0.00085968,0.00067927,-0.00
 058103,-0.00015760,0.00004372,-0.00012212,0.00014165,0.00001970,-0.000
 04993,-0.00003022,-0.00009384,0.00002429,0.00001885,-0.00008103,0.0000
 5510,0.00005488,0.00682149,-0.00099233,-0.00047574,-0.00004734,-0.0000
 1093,-0.00010832,0.00001351,-0.00000593,0.00001356,0.00001062,0.000026
 43,0.00002757,-0.00000833,-0.00004920,-0.00003235,-0.03197405,0.059622
 41,-0.02013500,-0.03072526,-0.00733823,0.03283297,-0.24854701,0.047838
 55,0.14892897,0.04628368,-0.02223799,-0.01948722,-0.00057615,-0.000894
 15,0.00070424,0.51148034,0.00025914,0.00013450,0.00012868,-0.00000827,
 0.00004780,-0.00011796,-0.00021216,0.00003050,-0.00004095,0.00171694,-
 0.00002468,-0.00013130,0.00010761,-0.00015395,-0.00018347,0.00017814,-
 0.00041794,0.00014998,0.00009912,0.00001541,-0.00012537,0.00001464,0.0
 0001329,0.00000723,-0.00000755,-0.00000153,-0.00003180,0.00284445,-0.0
 0369032,0.00487944,-0.00000264,0.00000389,0.00000674,-0.00000430,-0.00
 000107,0.00000017,-0.00000184,-0.00000842,-0.00001913,0.00001165,-0.00
 000311,0.00000565,0.02181241,0.00599435,-0.02555134,-0.01090528,-0.005
 71263,0.01177492,0.09164660,-0.12642332,-0.03191784,0.01307013,-0.0338
 7082,0.02441425,-0.00064028,0.00024253,-0.00017022,-0.21168848,0.56907
 734,-0.00187140,0.00000398,0.00056518,0.00039565,0.00057119,-0.0003707
 8,0.00061067,-0.00017804,-0.00041783,0.00032246,0.00064121,0.00104572,
 -0.00054016,0.00041090,0.00032631,-0.00015283,0.00041634,-0.00026732,-
 0.00012878,0.00000456,0.00008151,0.00008063,-0.00006022,-0.00002518,0.
 00007813,-0.00004686,-0.00004062,-0.00462621,0.00887873,0.00078073,0.0
 0004419,0.00002905,0.00005156,-0.00000738,-0.00000599,-0.00001418,-0.0
 0000291,-0.00000774,0.00000444,-0.00000437,0.00004422,0.00001289,0.015
 09749,-0.06393927,0.04664181,0.03629636,0.00813277,-0.04926219,0.10867
 731,0.01251344,-0.18221396,-0.05193668,0.06053189,0.00455414,0.0005263
 1,0.00003400,-0.00132754,-0.18558080,-0.18003402,0.49338822,0.00041587
 ,0.00005395,0.00008428,-0.00013541,-0.00014459,0.00002313,-0.00018650,
 -0.00004151,-0.00008146,-0.00036885,-0.00013799,-0.00026047,0.00001456
 ,0.00002921,0.00001936,0.00001684,-0.00003312,0.00002164,0.00002388,-0
 .00001474,0.00000351,-0.00005042,0.00001399,-0.00000809,-0.00000375,0.
 00002224,0.00001668,-0.00022305,-0.00201689,-0.00142526,0.00003578,0.0
 0000963,0.00001936,-0.00000906,-0.00000074,-0.00000139,-0.00000753,-0.
 00001557,-0.00001159,-0.00000496,-0.00001223,-0.00000139,0.00858606,0.
 00994463,-0.01228203,0.00024571,0.00424136,0.00090618,-0.07083651,-0.0
 3594323,0.06905426,-0.00106884,0.00049569,-0.00012595,0.00024267,0.000
 51712,-0.00069966,-0.00185311,-0.01522319,0.01847005,0.06711246,0.0001
 2419,-0.00017575,0.00032586,0.00000258,0.00019512,-0.00019138,-0.00008
 765,0.00011758,-0.00013957,0.00002474,-0.00028278,-0.00042059,-0.00019
 132,0.00019913,-0.00007219,-0.00000552,0.00001177,0.00001073,-0.000008
 25,0.00001910,0.00000247,0.00002473,-0.00000063,0.00000205,0.00002865,
 -0.00003635,-0.00003011,-0.00237634,0.00076391,-0.00136735,-0.00003701
 ,-0.00006050,0.00002322,0.00000076,0.00001202,-0.00000308,-0.00000750,
 -0.00001604,-0.00000815,0.00000771,0.00001774,-0.00000234,-0.00856228,
 -0.00915941,0.02231967,0.00476070,-0.00239185,0.00190057,-0.03460316,-
 0.14115884,0.13262529,0.00079967,-0.00061730,-0.00090536,-0.00048744,-
 0.00052643,0.00100577,0.00223717,0.00863601,-0.00795991,0.03655914,0.1
 4233689,0.00027883,-0.00006774,0.00003408,-0.00008429,-0.00006326,0.00
 001120,-0.00009278,0.00001624,-0.00001582,-0.00042154,-0.00022038,-0.0
 0011122,-0.00000419,0.00004668,-0.00000199,0.00000787,0.00005954,-0.00
 001021,-0.00000992,0.00000069,0.00001470,-0.00002136,0.00000878,0.0000
 0087,0.00000346,-0.00000901,-0.00000099,-0.00097806,-0.00181377,-0.000
 72312,0.00000021,-0.00001132,-0.00000333,-0.00000273,0.00000188,0.0000
 0251,-0.00000359,-0.00000543,-0.00000223,-0.00000064,-0.00000767,-0.00
 000333,0.00463966,0.00347438,-0.00243398,0.00046030,0.00234940,0.00231
 610,0.06793567,0.13398028,-0.22899525,-0.00039474,-0.00059566,0.000219
 23,0.00018419,0.00001129,-0.00016396,0.00234367,0.00984673,-0.00900188
 ,-0.07693775,-0.14584707,0.23823388,-0.00028937,-0.00052171,-0.0005909
 8,0.00013613,0.00044996,0.00013575,0.00034513,0.00037590,0.00042141,0.
 00111050,-0.00154544,0.00038450,0.00007307,0.00009536,-0.00021621,0.00
 005002,0.00004554,0.00001729,-0.00004805,0.00002692,0.00002521,0.00001
 303,-0.00000224,0.00000749,-0.00002447,-0.00000859,0.00001984,-0.00449
 063,0.00060963,0.00298645,-0.00031345,-0.00030490,-0.00006744,0.000053
 63,0.00005823,-0.00000871,0.00002155,0.00003006,0.00005114,0.00000220,
 0.00007809,-0.00002593,-0.00202258,0.00952938,-0.01306161,-0.02759821,
 0.02392069,0.01401976,0.00007918,-0.01830611,0.02455793,-0.16946172,0.
 14087359,-0.02096240,-0.00049792,0.00273714,0.00533709,-0.12005720,-0.
 02992814,0.08627877,-0.00066626,0.00386766,0.00501911,0.53394400,-0.00
 119702,0.00047526,0.00076757,0.00018091,0.00013010,-0.00027078,0.00028
 640,-0.00041023,-0.00070155,-0.00027657,0.00074828,-0.00010427,-0.0005
 9770,0.00043751,0.00034305,-0.00008852,0.00014515,-0.00017546,-0.00001
 830,0.00000458,0.00001776,0.00006625,-0.00003583,-0.00000723,0.0000737
 8,-0.00004241,-0.00005369,-0.00203818,0.00322150,-0.00250417,0.0001870
 9,0.00018412,0.00011278,-0.00002434,-0.00003436,-0.00001040,-0.0000221
 5,-0.00001719,-0.00001858,-0.00000774,0.00001556,0.00003485,0.01094308
 ,-0.06027813,0.03942134,0.05838610,0.00199154,-0.05399813,-0.05163278,
 0.05002819,0.01336354,0.09673867,-0.25977665,0.08212260,0.00241068,0.0
 0347022,0.00090233,0.01429011,-0.17446729,0.08857244,0.00422908,0.0028
 0131,0.00026295,-0.19914888,0.52082567,0.00137385,0.00020910,-0.000289
 10,-0.00034045,-0.00058039,0.00027310,-0.00055822,0.00005049,0.0003377
 1,-0.00063016,0.00096438,-0.00007065,0.00048333,-0.00050550,-0.0002385
 4,-0.00001178,-0.00018178,0.00008771,0.00006077,-0.00003171,-0.0000407
 3,-0.00007503,0.00003273,0.00001370,-0.00003273,0.00005704,0.00001940,
 0.00537796,-0.00462130,-0.00192656,0.00000027,-0.00001446,-0.00006888,
 -0.00000204,-0.00000363,0.00001016,-0.00000558,-0.00000029,0.00000315,
 -0.00001099,-0.00005751,-0.00002867,-0.01410884,0.04013596,-0.02895756
 ,-0.01757853,-0.01909064,0.04310268,0.05499054,-0.02043185,-0.02976470
 ,0.01962178,0.03706739,-0.11690373,0.00552065,0.00062095,0.00091305,0.
 04567725,0.13364547,-0.23155857,0.00472632,0.00061705,0.00237983,-0.22
 916395,-0.15675742,0.50676863,0.00005459,-0.00027952,0.00013785,0.0000
 2286,0.00018828,-0.00015043,-0.00004321,0.00008698,-0.00003200,0.00033
 029,-0.00043973,0.00001742,-0.00004176,0.00003782,0.00000274,-0.000021
 25,0.00007750,-0.00001891,-0.00002821,0.00001133,0.00001653,0.00001686
 ,-0.00000330,-0.00000050,0.00000706,-0.00000999,-0.00000794,-0.0007410
 0,-0.00069582,0.00134107,-0.00001825,-0.00001775,0.00000266,-0.0000001
 7,0.00000634,0.00000415,0.00000437,0.00000254,-0.00000857,0.00001690,-
 0.00000266,0.00000607,-0.00064084,0.00416801,0.00439748,-0.00245417,-0
 .01465157,0.01951746,-0.00116066,0.00035743,-0.00020335,-0.06943508,-0
 .03355365,0.06295702,-0.00076935,-0.00155629,-0.00201635,0.00132290,0.
 00532514,0.00143330,-0.00025301,-0.00033639,-0.00030713,0.00853043,0.0
 0948695,-0.01380591,0.06605304,0.00007075,0.00005038,-0.00005823,-0.00
 003995,-0.00004337,0.00004279,-0.00002443,-0.00001097,0.00003029,-0.00
 008990,0.00003961,-0.00001176,0.00000184,0.00001355,0.00003316,0.00001
 886,-0.00001769,0.00001634,0.00000723,0.00000053,-0.00000317,-0.000005
 15,-0.00000163,0.00000428,-0.00000527,0.00000082,0.00000616,0.00015207
 ,0.00030787,-0.00048000,0.00001141,0.00001130,-0.00002456,-0.00000533,
 -0.00000063,0.00000536,-0.00000120,-0.00000296,0.00000327,-0.00000432,
 -0.00001024,-0.00000148,0.00384600,0.00260266,0.00051087,0.00308626,0.
 00796466,-0.00732375,0.00049155,-0.00053231,-0.00092265,-0.03374766,-0
 .14645733,0.13415066,-0.00183374,-0.00064856,-0.00136181,0.00561909,-0
 .00165178,0.00267828,-0.00034997,-0.00023101,-0.00022570,-0.00855868,-
 0.00933618,0.02061073,0.03325580,0.14906109,0.00019683,0.00025657,0.00
 003806,-0.00008978,-0.00020537,0.00004269,-0.00014311,-0.00013990,-0.0
 0005502,-0.00035385,0.00042403,-0.00008098,-0.00001036,-0.00002142,0.0
 0005347,0.00002459,-0.00006580,0.00002057,0.00002821,-0.00000792,-0.00
 001522,-0.00001621,0.00000241,0.00000265,-0.00000207,0.00001054,0.0000
 0407,0.00059484,0.00031392,-0.00098893,0.00010554,0.00012213,-0.000027
 35,-0.00002049,-0.00001996,0.00001387,-0.00000722,-0.00000532,-0.00000
 567,-0.00000080,-0.00004097,0.00000319,0.00464241,0.00025371,0.0024908
 5,0.00306747,0.01085394,-0.00969241,-0.00025599,-0.00083903,0.00003854
 ,0.06318298,0.13396918,-0.22565019,-0.00172392,-0.00165418,-0.00087216
 ,0.00112619,0.00299099,0.00357482,-0.00029887,-0.00023643,-0.00033889,
 0.00283548,0.00216368,-0.00127791,-0.07118605,-0.14683810,0.23393099,-
 0.00006005,-0.00015119,-0.00000611,0.00003411,0.00010142,-0.00002434,0
 .00004384,0.00006347,0.00002501,-0.00008994,-0.00036941,0.00017684,-0.
 00003144,0.00005251,-0.00001963,-0.00006255,0.00013294,-0.00005748,-0.
 00004384,-0.00000377,0.00003701,0.00000223,-0.00000566,-0.00000258,0.0
 0000748,-0.00000459,0.00000217,-0.00096539,0.00147832,-0.00021268,-0.0
 0002747,-0.00003662,-0.00001088,0.00000058,0.00000817,0.00000094,0.000
 00557,0.00000147,-0.00000016,0.00000380,0.00000462,0.00000265,0.000652
 33,0.00244642,0.00569536,-0.00079283,-0.00064333,0.00042575,-0.0086456
 8,0.02087319,-0.00694781,0.00300019,0.00053261,0.00367058,-0.00031218,
 -0.00025747,-0.00038750,-0.12976239,0.12892276,-0.02554179,-0.00091286
 ,-0.00202142,-0.00177264,0.00803930,-0.00764744,0.00210158,0.00023257,
 -0.00042671,0.00015635,0.13061104,0.00014113,0.00005129,0.00010678,-0.
 00003074,-0.00007817,-0.00003327,-0.00009467,-0.00005824,-0.00008868,-
 0.00018979,0.00016422,-0.00016058,-0.00000713,-0.00001068,0.00001604,0
 .00000386,-0.00004992,0.00000402,0.00001360,-0.00000445,-0.00001106,-0
 .00000728,0.00000416,0.00000184,0.00000097,0.00000347,-0.00000385,0.00
 054500,-0.00052657,0.00000347,0.00005003,0.00004244,0.00003685,-0.0000
 0567,-0.00000820,-0.00000304,-0.00000351,-0.00000495,-0.00001138,-0.00
 000072,-0.00000423,0.00000426,0.00265965,0.00390152,0.00149008,-0.0007
 4421,0.00023950,-0.00035304,0.00279281,-0.00283959,0.00290515,0.000231
 48,0.00125295,0.00512620,-0.00025931,-0.00031845,-0.00029672,0.1291874
 6,-0.24575230,0.05895012,-0.00155398,-0.00081694,-0.00177480,0.0103461
 6,-0.00991541,0.00153434,0.00051358,-0.00062337,0.00005147,-0.14200957
 ,0.25585966,0.00010732,0.00006031,0.00004992,-0.00003260,-0.00006045,0
 .00000050,-0.00005455,-0.00004098,-0.00006036,0.00001901,0.00001246,-0
 .00027241,-0.00001180,0.00001712,0.00002259,0.00003245,-0.00008658,0.0
 0001333,0.00002404,-0.00000161,-0.00002091,-0.00000516,0.00000213,0.00
 000473,-0.00000087,-0.00000104,-0.00000224,0.00054726,-0.00093735,0.00
 036244,0.00003044,0.00002037,0.00000956,-0.00000633,-0.00000450,0.0000
 0055,-0.00000355,-0.00000566,-0.00000494,-0.00000189,-0.00000618,0.000
 00127,0.00554788,0.00168568,0.00128134,0.00050327,-0.00041403,-0.00110
 101,0.00968564,-0.01550754,0.00777104,0.00396779,0.00479864,-0.0013820
 4,-0.00038770,-0.00029994,-0.00025668,-0.02576822,0.05925711,-0.066738
 40,-0.00220361,-0.00131152,-0.00100484,-0.01446077,0.01984626,-0.00034
 200,-0.00071311,0.00101655,-0.00019789,0.02451768,-0.06619251,0.062469
 27,0.00008273,-0.00006703,-0.00011478,-0.00004413,0.00003227,0.0000566
 3,0.00000371,0.00005422,0.00005540,-0.00011686,-0.00006314,-0.00016729
 ,-0.00002353,0.00005003,0.00006932,0.00000723,-0.00001204,-0.00000987,
 0.00000053,0.00000727,0.00000479,-0.00000611,-0.00000163,0.00000751,-0
 .00000072,-0.00000701,0.00000620,-0.00020247,-0.00028027,-0.00025854,-
 0.00002652,-0.00004165,-0.00002358,-0.00000167,0.00000636,0.00000227,0
 .00000332,-0.00000222,0.00000103,0.00000097,-0.00000550,-0.00000346,0.
 00014242,-0.00008148,-0.00062713,0.00235868,0.00484503,0.00082265,0.00
 351301,0.00066006,0.00298463,-0.00940397,0.00160552,0.00974231,-0.0003
 5730,0.00015085,0.00060164,-0.00306707,0.00261339,0.00208199,-0.000113
 72,0.00028658,0.00015839,-0.22692829,0.06542049,0.13638989,-0.00098492
 ,-0.00146855,-0.00185217,-0.00092640,-0.00157913,-0.00133260,0.2360910
 7,0.00015833,0.00001833,0.00016706,-0.00002748,-0.00001542,-0.00007821
 ,-0.00009934,-0.00002351,-0.00006622,-0.00002798,-0.00011600,-0.000077
 05,-0.00010210,0.00002572,-0.00001191,-0.00004369,0.00002013,-0.000039
 46,0.,0.00000210,0.00000678,0.00000575,0.00000243,-0.00000116,0.000021
 61,-0.00000409,-0.00001560,-0.00035711,0.00002881,-0.00035333,0.000038
 20,0.00004517,0.00001914,-0.00000487,-0.00000551,0.00000097,-0.0000020
 9,-0.00000274,-0.00001160,0.00000615,-0.00000517,0.00000618,-0.0000193
 9,-0.00135655,0.00080556,0.00441126,-0.00155746,0.00384414,0.00111155,
 0.00038862,0.00498054,0.01996891,-0.00246444,-0.01657707,0.00105367,-0
 .00012660,-0.00063182,-0.01560928,0.00798356,0.00981898,-0.00062830,0.
 00036325,0.00058296,0.06528038,-0.07016532,-0.03326914,-0.00197104,-0.
 00048442,-0.00133818,-0.00104073,-0.00050775,-0.00184675,-0.07212241,0
 .06795685,0.00016767,0.00003146,-0.00003301,-0.00005611,-0.00005523,0.
 00002889,-0.00007092,-0.00002753,-0.00000322,-0.00015197,-0.00001171,-
 0.00013919,-0.00003013,0.00001459,0.00004053,0.00000414,-0.00003237,-0
 .00001134,0.00001159,0.00000034,0.00000006,-0.00001172,0.00000447,0.00
 000338,0.00000208,0.00000281,0.00000177,-0.00020369,-0.00049225,-0.000
 07719,0.00002927,0.00003200,0.00000875,-0.00000457,-0.00000500,0.00000
 090,0.00000142,-0.00000019,-0.00000878,0.00000294,-0.00000995,0.000004
 34,-0.00066749,0.00086357,-0.00066071,0.00115705,0.00344080,0.00319162
 ,0.00260678,0.00543980,-0.00061036,-0.00710383,0.00206781,0.00692909,-
 0.00019828,0.00026164,0.00033520,0.01886930,-0.00878394,-0.00978887,0.
 00099275,-0.00033763,-0.00040136,0.13646077,-0.03332946,-0.14244152,-0
 .00138353,-0.00185753,-0.00101116,-0.00182833,-0.00130168,-0.00060283,
 -0.14859520,0.03408519,0.14524504\\-0.00000075,0.00000028,-0.00000062,
 -0.00000069,-0.00000071,-0.00000020,0.00000017,0.00000029,-0.00000019,
 0.,-0.00000048,0.00000049,-0.00000031,-0.00000085,0.00000051,0.0000002
 5,-0.00000056,0.00000075,-0.00000001,-0.00000079,0.00000071,0.00000051
 ,-0.00000080,0.00000120,0.00000061,-0.00000016,0.00000071,0.00000043,-
 0.00000021,0.00000054,-0.00000027,0.00000084,-0.00000095,-0.00000051,0
 .00000058,-0.00000097,0.,0.00000109,-0.00000107,-0.00000072,0.00000060
 ,-0.00000121,0.00000016,0.,0.00000028,-0.00000035,-0.00000020,-0.00000
 004,0.00000076,0.00000017,0.00000039,-0.00000032,-0.00000018,-0.000000
 27,-0.00000068,-0.00000045,-0.00000012,0.00000066,0.00000035,0.0000001
 0,0.00000111,0.00000036,0.00000069,0.00000008,0.00000013,-0.00000016,-
 0.00000086,-0.00000025,-0.00000052,0.00000089,0.00000065,0.00000025,-0
 .00000013,0.00000030,-0.00000029\\\@


 A CHEMICAL PHYSICIST MAKES PRECISE MEASUREMENTS ON IMPURE COMPOUNDS.
 A THEORETICAL PHYSICAL CHEMIST MAKES IMPRECISE
     MEASUREMENTS ON PURE COMPOUNDS.
 AN EXPERIMENTAL PHYSICAL CHEMIST MAKES IMPRECISE
     MEASUREMENTS ON IMPURE COMPOUNDS.
 Job cpu time:       0 days  6 hours 18 minutes 57.0 seconds.
 Elapsed time:       0 days  0 hours 10 minutes 32.5 seconds.
 File lengths (MBytes):  RWF=    442 Int=      0 D2E=      0 Chk=     18 Scr=      1
 Normal termination of Gaussian 16 at Tue Oct  8 13:21:21 2019.
