 Entering Gaussian System, Link 0=g16
 Initial command:
 /nopt/nrel/apps/gaussian/g16B/g16/l1.exe "/dev/shm/Gau-137631.inp" -scrdir="/dev/shm/"
 Default is to use a total of  36 processors:
                               36 via shared-memory
                                1 via Linda
 Entering Link 1 = /nopt/nrel/apps/gaussian/g16B/g16/l1.exe PID=    137633.
  
 Copyright (c) 1988-2017, Gaussian, Inc.  All Rights Reserved.
  
 This is part of the Gaussian(R) 16 program.  It is based on
 the Gaussian(R) 09 system (copyright 2009, Gaussian, Inc.),
 the Gaussian(R) 03 system (copyright 2003, Gaussian, Inc.),
 the Gaussian(R) 98 system (copyright 1998, Gaussian, Inc.),
 the Gaussian(R) 94 system (copyright 1995, Gaussian, Inc.),
 the Gaussian 92(TM) system (copyright 1992, Gaussian, Inc.),
 the Gaussian 90(TM) system (copyright 1990, Gaussian, Inc.),
 the Gaussian 88(TM) system (copyright 1988, Gaussian, Inc.),
 the Gaussian 86(TM) system (copyright 1986, Carnegie Mellon
 University), and the Gaussian 82(TM) system (copyright 1983,
 Carnegie Mellon University). Gaussian is a federally registered
 trademark of Gaussian, Inc.
  
 This software contains proprietary and confidential information,
 including trade secrets, belonging to Gaussian, Inc.
  
 This software is provided under written license and may be
 used, copied, transmitted, or stored only in accord with that
 written license.
  
 The following legend is applicable only to US Government
 contracts under FAR:
  
                    RESTRICTED RIGHTS LEGEND
  
 Use, reproduction and disclosure by the US Government is
 subject to restrictions as set forth in subparagraphs (a)
 and (c) of the Commercial Computer Software - Restricted
 Rights clause in FAR 52.227-19.
  
 Gaussian, Inc.
 340 Quinnipiac St., Bldg. 40, Wallingford CT 06492
  
  
 ---------------------------------------------------------------
 Warning -- This program may not be used in any manner that
 competes with the business of Gaussian, Inc. or will provide
 assistance to any competitor of Gaussian, Inc.  The licensee
 of this program is prohibited from giving any competitor of
 Gaussian, Inc. access to this program.  By using this program,
 the user acknowledges that Gaussian, Inc. is engaged in the
 business of creating and licensing software in the field of
 computational chemistry and represents and warrants to the
 licensee that it is not a competitor of Gaussian, Inc. and that
 it will not use this program in any manner prohibited above.
 ---------------------------------------------------------------
  

 Cite this work as:
 Gaussian 16, Revision B.01,
 M. J. Frisch, G. W. Trucks, H. B. Schlegel, G. E. Scuseria, 
 M. A. Robb, J. R. Cheeseman, G. Scalmani, V. Barone, 
 G. A. Petersson, H. Nakatsuji, X. Li, M. Caricato, A. V. Marenich, 
 J. Bloino, B. G. Janesko, R. Gomperts, B. Mennucci, H. P. Hratchian, 
 J. V. Ortiz, A. F. Izmaylov, J. L. Sonnenberg, D. Williams-Young, 
 F. Ding, F. Lipparini, F. Egidi, J. Goings, B. Peng, A. Petrone, 
 T. Henderson, D. Ranasinghe, V. G. Zakrzewski, J. Gao, N. Rega, 
 G. Zheng, W. Liang, M. Hada, M. Ehara, K. Toyota, R. Fukuda, 
 J. Hasegawa, M. Ishida, T. Nakajima, Y. Honda, O. Kitao, H. Nakai, 
 T. Vreven, K. Throssell, J. A. Montgomery, Jr., J. E. Peralta, 
 F. Ogliaro, M. J. Bearpark, J. J. Heyd, E. N. Brothers, K. N. Kudin, 
 V. N. Staroverov, T. A. Keith, R. Kobayashi, J. Normand, 
 K. Raghavachari, A. P. Rendell, J. C. Burant, S. S. Iyengar, 
 J. Tomasi, M. Cossi, J. M. Millam, M. Klene, C. Adamo, R. Cammi, 
 J. W. Ochterski, R. L. Martin, K. Morokuma, O. Farkas, 
 J. B. Foresman, and D. J. Fox, Gaussian, Inc., Wallingford CT, 2016.
 
 ******************************************
 Gaussian 16:  ES64L-G16RevB.01 20-Dec-2017
                 8-Oct-2019 
 ******************************************
 %RWF=/dev/shm/,5GB,/tmp/scratch/1501740/,-1
 %NoSave
 %Chk=/dev/shm/me2pheoxprpnt_33.chk
 Default route: CacheSize=180224 MaxDisk=256GB
 ----------------------------------------------------------------------
 # m062x/Def2TZVP nosymm scf=xqc opt freq=NoRaman CPHF=Grid=Fine guess=
 mix
 ----------------------------------------------------------------------
 1/4=180224,18=20,19=15,26=3,38=1/1,3;
 2/4=180224,9=110,12=2,15=1,17=6,18=5,40=1/2;
 3/4=180224,5=44,7=101,11=2,25=1,30=1,71=1,74=-55/1,2,3;
 4/4=180224,13=-1/1;
 5/4=180224,5=2,8=3,13=1,38=5/2,8;
 6/4=180224,7=2,8=2,9=2,10=2,28=1/1;
 7/4=180224,30=1/1,2,3,16;
 1/4=180224,18=20,19=15,26=3/3(2);
 2/4=180224,9=110,15=1/2;
 99/4=180224/99;
 2/4=180224,9=110,15=1/2;
 3/4=180224,5=44,7=101,11=2,25=1,30=1,71=1,74=-55/1,2,3;
 4/4=180224,5=5,16=3,69=1/1;
 5/4=180224,5=2,8=3,13=1,38=5/2,8;
 7/4=180224,30=1/1,2,3,16;
 1/4=180224,18=20,19=15,26=3/3(-5);
 2/4=180224,9=110,15=1/2;
 6/4=180224,7=2,8=2,9=2,10=2,19=2,28=1/1;
 99/4=180224,9=1/99;
 -------------------------------------------------------------------
 obabel me2pheoxprpnt_0.pdb -O me2pheoxprpnt.pdb --confab -conf10000
 -------------------------------------------------------------------
 Symbolic Z-matrix:
 Charge =  0 Multiplicity = 1
 C                    -1.045     0.668     0.526 
 O                    -1.279     1.349     1.482 
 O                    -0.256     1.045    -0.488 
 C                    -1.627    -0.717     0.263 
 H                    -1.747    -0.827    -0.819 
 C                    -2.972    -0.845     0.957 
 H                    -3.661    -0.085     0.594 
 H                    -3.387    -1.832     0.76 
 H                    -2.839    -0.73      2.033 
 O                    -0.779    -1.714     0.78 
 C                     0.795     1.945    -0.14 
 H                     1.455     1.486     0.595 
 H                     1.33      2.15     -1.061 
 H                     0.383     2.862     0.279 
 C                     0.187    -2.189    -0.08 
 C                     0.692    -1.336    -1.051 
 C                     0.684    -3.477     0.061 
 C                     1.708    -1.781    -1.884 
 H                     0.268    -0.345    -1.14 
 C                     1.694    -3.915    -0.784 
 H                     0.294    -4.12      0.839 
 C                     2.209    -3.07     -1.757 
 H                     2.105    -1.117    -2.641 
 H                     2.087    -4.918    -0.673 
 H                     3.       -3.412    -2.41 
 

 GradGradGradGradGradGradGradGradGradGradGradGradGradGradGradGradGradGrad
 Berny optimization.
 Initialization pass.
                           ----------------------------
                           !    Initial Parameters    !
                           ! (Angstroms and Degrees)  !
 --------------------------                            --------------------------
 ! Name  Definition              Value          Derivative Info.                !
 --------------------------------------------------------------------------------
 ! R1    R(1,2)                  1.1969         estimate D2E/DX2                !
 ! R2    R(1,3)                  1.339          estimate D2E/DX2                !
 ! R3    R(1,4)                  1.5252         estimate D2E/DX2                !
 ! R4    R(3,11)                 1.4268         estimate D2E/DX2                !
 ! R5    R(4,5)                  1.0942         estimate D2E/DX2                !
 ! R6    R(4,6)                  1.5189         estimate D2E/DX2                !
 ! R7    R(4,10)                 1.4073         estimate D2E/DX2                !
 ! R8    R(6,7)                  1.0882         estimate D2E/DX2                !
 ! R9    R(6,8)                  1.0887         estimate D2E/DX2                !
 ! R10   R(6,9)                  1.0903         estimate D2E/DX2                !
 ! R11   R(10,15)                1.3778         estimate D2E/DX2                !
 ! R12   R(11,12)                1.0893         estimate D2E/DX2                !
 ! R13   R(11,13)                1.0847         estimate D2E/DX2                !
 ! R14   R(11,14)                1.0891         estimate D2E/DX2                !
 ! R15   R(15,16)                1.3876         estimate D2E/DX2                !
 ! R16   R(15,17)                1.3877         estimate D2E/DX2                !
 ! R17   R(16,18)                1.3871         estimate D2E/DX2                !
 ! R18   R(16,19)                1.0816         estimate D2E/DX2                !
 ! R19   R(17,20)                1.3878         estimate D2E/DX2                !
 ! R20   R(17,21)                1.0821         estimate D2E/DX2                !
 ! R21   R(18,22)                1.3888         estimate D2E/DX2                !
 ! R22   R(18,23)                1.0824         estimate D2E/DX2                !
 ! R23   R(20,22)                1.3878         estimate D2E/DX2                !
 ! R24   R(20,24)                1.0829         estimate D2E/DX2                !
 ! R25   R(22,25)                1.0812         estimate D2E/DX2                !
 ! A1    A(2,1,3)              124.0491         estimate D2E/DX2                !
 ! A2    A(2,1,4)              125.4389         estimate D2E/DX2                !
 ! A3    A(3,1,4)              110.4846         estimate D2E/DX2                !
 ! A4    A(1,3,11)             115.2746         estimate D2E/DX2                !
 ! A5    A(1,4,5)              107.6779         estimate D2E/DX2                !
 ! A6    A(1,4,6)              109.6119         estimate D2E/DX2                !
 ! A7    A(1,4,10)             110.491          estimate D2E/DX2                !
 ! A8    A(5,4,6)              110.2574         estimate D2E/DX2                !
 ! A9    A(5,4,10)             110.9868         estimate D2E/DX2                !
 ! A10   A(6,4,10)             107.8204         estimate D2E/DX2                !
 ! A11   A(4,6,7)              110.4512         estimate D2E/DX2                !
 ! A12   A(4,6,8)              109.3463         estimate D2E/DX2                !
 ! A13   A(4,6,9)              109.5129         estimate D2E/DX2                !
 ! A14   A(7,6,8)              109.358          estimate D2E/DX2                !
 ! A15   A(7,6,9)              109.4386         estimate D2E/DX2                !
 ! A16   A(8,6,9)              108.7062         estimate D2E/DX2                !
 ! A17   A(4,10,15)            115.9389         estimate D2E/DX2                !
 ! A18   A(3,11,12)            110.188          estimate D2E/DX2                !
 ! A19   A(3,11,13)            105.9887         estimate D2E/DX2                !
 ! A20   A(3,11,14)            110.26           estimate D2E/DX2                !
 ! A21   A(12,11,13)           110.7157         estimate D2E/DX2                !
 ! A22   A(12,11,14)           108.9295         estimate D2E/DX2                !
 ! A23   A(13,11,14)           110.7395         estimate D2E/DX2                !
 ! A24   A(10,15,16)           118.6858         estimate D2E/DX2                !
 ! A25   A(10,15,17)           120.5069         estimate D2E/DX2                !
 ! A26   A(16,15,17)           120.7506         estimate D2E/DX2                !
 ! A27   A(15,16,18)           119.3124         estimate D2E/DX2                !
 ! A28   A(15,16,19)           118.5654         estimate D2E/DX2                !
 ! A29   A(18,16,19)           122.1177         estimate D2E/DX2                !
 ! A30   A(15,17,20)           119.4525         estimate D2E/DX2                !
 ! A31   A(15,17,21)           119.7029         estimate D2E/DX2                !
 ! A32   A(20,17,21)           120.8338         estimate D2E/DX2                !
 ! A33   A(16,18,22)           120.4691         estimate D2E/DX2                !
 ! A34   A(16,18,23)           119.4613         estimate D2E/DX2                !
 ! A35   A(22,18,23)           120.0684         estimate D2E/DX2                !
 ! A36   A(17,20,22)           120.3178         estimate D2E/DX2                !
 ! A37   A(17,20,24)           119.6044         estimate D2E/DX2                !
 ! A38   A(22,20,24)           120.0743         estimate D2E/DX2                !
 ! A39   A(18,22,20)           119.6951         estimate D2E/DX2                !
 ! A40   A(18,22,25)           120.1506         estimate D2E/DX2                !
 ! A41   A(20,22,25)           120.1536         estimate D2E/DX2                !
 ! D1    D(2,1,3,11)            30.0137         estimate D2E/DX2                !
 ! D2    D(4,1,3,11)          -151.802          estimate D2E/DX2                !
 ! D3    D(2,1,4,5)            146.8012         estimate D2E/DX2                !
 ! D4    D(2,1,4,6)             26.8447         estimate D2E/DX2                !
 ! D5    D(2,1,4,10)           -91.8396         estimate D2E/DX2                !
 ! D6    D(3,1,4,5)            -31.3522         estimate D2E/DX2                !
 ! D7    D(3,1,4,6)           -151.3087         estimate D2E/DX2                !
 ! D8    D(3,1,4,10)            90.0069         estimate D2E/DX2                !
 ! D9    D(1,3,11,12)           60.3433         estimate D2E/DX2                !
 ! D10   D(1,3,11,13)         -179.8281         estimate D2E/DX2                !
 ! D11   D(1,3,11,14)          -59.932          estimate D2E/DX2                !
 ! D12   D(1,4,6,7)             59.1668         estimate D2E/DX2                !
 ! D13   D(1,4,6,8)            179.556          estimate D2E/DX2                !
 ! D14   D(1,4,6,9)            -61.4288         estimate D2E/DX2                !
 ! D15   D(5,4,6,7)            -59.2007         estimate D2E/DX2                !
 ! D16   D(5,4,6,8)             61.1884         estimate D2E/DX2                !
 ! D17   D(5,4,6,9)           -179.7963         estimate D2E/DX2                !
 ! D18   D(10,4,6,7)           179.4908         estimate D2E/DX2                !
 ! D19   D(10,4,6,8)           -60.1201         estimate D2E/DX2                !
 ! D20   D(10,4,6,9)            58.8952         estimate D2E/DX2                !
 ! D21   D(1,4,10,15)          -90.0025         estimate D2E/DX2                !
 ! D22   D(5,4,10,15)           29.3751         estimate D2E/DX2                !
 ! D23   D(6,4,10,15)          150.2283         estimate D2E/DX2                !
 ! D24   D(4,10,15,16)          29.993          estimate D2E/DX2                !
 ! D25   D(4,10,15,17)        -152.7245         estimate D2E/DX2                !
 ! D26   D(10,15,16,18)        177.0734         estimate D2E/DX2                !
 ! D27   D(10,15,16,19)         -3.6753         estimate D2E/DX2                !
 ! D28   D(17,15,16,18)         -0.2022         estimate D2E/DX2                !
 ! D29   D(17,15,16,19)        179.049          estimate D2E/DX2                !
 ! D30   D(10,15,17,20)       -177.4762         estimate D2E/DX2                !
 ! D31   D(10,15,17,21)          1.3397         estimate D2E/DX2                !
 ! D32   D(16,15,17,20)         -0.2502         estimate D2E/DX2                !
 ! D33   D(16,15,17,21)        178.5657         estimate D2E/DX2                !
 ! D34   D(15,16,18,22)          0.523          estimate D2E/DX2                !
 ! D35   D(15,16,18,23)       -179.8841         estimate D2E/DX2                !
 ! D36   D(19,16,18,22)       -178.7005         estimate D2E/DX2                !
 ! D37   D(19,16,18,23)          0.8923         estimate D2E/DX2                !
 ! D38   D(15,17,20,22)          0.387          estimate D2E/DX2                !
 ! D39   D(15,17,20,24)        179.7036         estimate D2E/DX2                !
 ! D40   D(21,17,20,22)       -178.4152         estimate D2E/DX2                !
 ! D41   D(21,17,20,24)          0.9014         estimate D2E/DX2                !
 ! D42   D(16,18,22,20)         -0.3887         estimate D2E/DX2                !
 ! D43   D(16,18,22,25)        179.9104         estimate D2E/DX2                !
 ! D44   D(23,18,22,20)       -179.9791         estimate D2E/DX2                !
 ! D45   D(23,18,22,25)          0.32           estimate D2E/DX2                !
 ! D46   D(17,20,22,18)         -0.0708         estimate D2E/DX2                !
 ! D47   D(17,20,22,25)        179.6302         estimate D2E/DX2                !
 ! D48   D(24,20,22,18)       -179.3841         estimate D2E/DX2                !
 ! D49   D(24,20,22,25)          0.3168         estimate D2E/DX2                !
 --------------------------------------------------------------------------------
 Trust Radius=3.00D-01 FncErr=1.00D-07 GrdErr=1.00D-06 EigMax=2.50D+02 EigMin=1.00D-04
 Number of steps in this run=    125 maximum allowed number of steps=    150.
 GradGradGradGradGradGradGradGradGradGradGradGradGradGradGradGradGradGrad

                          Input orientation:                          
 ---------------------------------------------------------------------
 Center     Atomic      Atomic             Coordinates (Angstroms)
 Number     Number       Type             X           Y           Z
 ---------------------------------------------------------------------
      1          6           0       -1.045000    0.668000    0.526000
      2          8           0       -1.279000    1.349000    1.482000
      3          8           0       -0.256000    1.045000   -0.488000
      4          6           0       -1.627000   -0.717000    0.263000
      5          1           0       -1.747000   -0.827000   -0.819000
      6          6           0       -2.972000   -0.845000    0.957000
      7          1           0       -3.661000   -0.085000    0.594000
      8          1           0       -3.387000   -1.832000    0.760000
      9          1           0       -2.839000   -0.730000    2.033000
     10          8           0       -0.779000   -1.714000    0.780000
     11          6           0        0.795000    1.945000   -0.140000
     12          1           0        1.455000    1.486000    0.595000
     13          1           0        1.330000    2.150000   -1.061000
     14          1           0        0.383000    2.862000    0.279000
     15          6           0        0.187000   -2.189000   -0.080000
     16          6           0        0.692000   -1.336000   -1.051000
     17          6           0        0.684000   -3.477000    0.061000
     18          6           0        1.708000   -1.781000   -1.884000
     19          1           0        0.268000   -0.345000   -1.140000
     20          6           0        1.694000   -3.915000   -0.784000
     21          1           0        0.294000   -4.120000    0.839000
     22          6           0        2.209000   -3.070000   -1.757000
     23          1           0        2.105000   -1.117000   -2.641000
     24          1           0        2.087000   -4.918000   -0.673000
     25          1           0        3.000000   -3.412000   -2.410000
 ---------------------------------------------------------------------
                    Distance matrix (angstroms):
                    1          2          3          4          5
     1  C    0.000000
     2  O    1.196851   0.000000
     3  O    1.338972   2.240501   0.000000
     4  C    1.525162   2.423927   2.355480   0.000000
     5  H    2.129989   3.201344   2.415994   1.094177   0.000000
     6  C    2.487621   2.820551   3.610648   1.518896   2.157574
     7  H    2.723066   2.918702   3.747219   2.155491   2.492093
     8  H    3.433616   3.883775   4.431455   2.141923   2.488547
     9  H    2.728349   2.656961   4.022183   2.145230   3.055450
    10  O    2.410227   3.181945   3.081142   1.407268   2.068960
    11  C    2.336640   2.699551   1.426781   3.621427   3.821883
    12  H    2.631328   2.877550   2.072412   3.802914   4.195494
    13  H    3.217999   3.730326   2.016123   4.326259   4.288242
    14  H    2.629416   2.549239   2.073186   4.104826   4.399003
    15  C    3.169781   4.135994   3.289600   2.361150   2.478209
    16  C    3.085468   4.184514   2.623897   2.736333   2.502324
    17  C    4.515162   5.400267   4.651181   3.605430   3.702251
    18  C    4.402807   5.481699   3.713810   4.106572   3.739166
    19  H    2.350679   3.483924   1.622276   2.387010   2.096566
    20  C    5.497464   6.456251   5.337763   4.727838   4.623575
    21  H    4.981549   5.726931   5.361031   3.949991   4.214083
    22  C    5.456487   6.494985   4.961835   4.932738   4.643364
    23  H    4.810261   5.876371   3.857975   4.745634   4.271029
    24  H    6.515399   7.432985   6.409465   5.684918   5.608668
    25  H    6.452017   7.491637   5.844696   5.984738   5.634493
                    6          7          8          9         10
     6  C    0.000000
     7  H    1.088159   0.000000
     8  H    1.088670   1.776131   0.000000
     9  H    1.090271   1.778322   1.770660   0.000000
    10  O    2.365531   3.315744   2.610745   2.604201   0.000000
    11  C    4.814333   4.951322   5.706562   5.008344   4.088051
    12  H    5.016267   5.351775   5.872079   5.041521   3.907042
    13  H    5.616899   5.713522   6.436028   5.936986   4.771547
    14  H    5.045548   5.013778   6.039693   5.134225   4.747739
    15  C    3.586222   4.437138   3.688702   3.968643   1.377817
    16  C    4.206904   4.818676   4.490432   4.727182   2.378925
    17  C    4.593101   5.537940   4.446084   4.883270   2.401145
    18  C    5.554258   6.151671   5.740415   6.092840   3.645073
    19  H    3.891659   4.302487   4.379520   4.457533   2.580072
    20  C    5.850430   6.726352   5.704330   6.215127   3.661451
    21  H    4.626695   5.655376   4.334852   4.767958   2.635080
    22  C    6.257730   6.992448   6.259644   6.732162   4.147680
    23  H    6.228605   6.691562   6.499238   6.814630   4.514101
    24  H    6.696246   7.615949   6.445274   7.009084   4.537707
    25  H    7.320585   8.028815   7.303360   7.811997   5.228780
                   11         12         13         14         15
    11  C    0.000000
    12  H    1.089269   0.000000
    13  H    1.084662   1.788535   0.000000
    14  H    1.089125   1.772686   1.788674   0.000000
    15  C    4.178902   3.945767   4.593009   5.067534   0.000000
    16  C    3.406683   3.354872   3.543916   4.414474   1.387615
    17  C    5.426860   5.050838   5.774022   6.349886   1.387744
    18  C    4.214046   4.108861   4.033977   5.290713   2.394644
    19  H    2.553787   2.787787   2.712768   3.508794   2.128496
    20  C    5.963433   5.579387   6.082224   6.984012   2.397028
    21  H    6.163900   5.730156   6.632963   7.004987   2.141208
    22  C    5.455668   5.182428   5.339050   6.532090   2.770735
    23  H    4.164966   4.203547   3.710837   5.227248   3.374408
    24  H    7.003865   6.558846   7.119004   8.021117   3.377734
    25  H    6.221927   5.950416   5.961925   7.310437   3.851960
                   16         17         18         19         20
    16  C    0.000000
    17  C    2.412569   0.000000
    18  C    1.387145   2.776332   0.000000
    19  H    1.081563   3.380071   2.165463   0.000000
    20  C    2.779664   1.387793   2.400865   3.860714   0.000000
    21  H    3.388386   1.082050   3.858114   4.262363   2.153173
    22  C    2.409664   2.407571   1.388759   3.402028   1.387796
    23  H    2.138371   3.858710   1.082383   2.494705   3.383219
    24  H    3.862594   2.140945   3.383922   4.943600   1.082949
    25  H    3.388734   3.387318   2.146183   4.299211   2.145349
                   21         22         23         24         25
    21  H    0.000000
    22  C    3.392483   0.000000
    23  H    4.940458   2.146271   0.000000
    24  H    2.477458   2.145937   4.280298   0.000000
    25  H    4.287155   1.081228   2.474149   2.473616   0.000000
 Symmetry turned off by external request.
 Stoichiometry    C10H12O3
 Framework group  C1[X(C10H12O3)]
 Deg. of freedom    69
 Full point group                 C1      NOp   1
 Rotational constants (GHZ):           1.3971820           0.5741510           0.4389834
 Standard basis: def2TZVP (5D, 7F)
   475 basis functions,   759 primitive gaussians,   540 cartesian basis functions
    48 alpha electrons       48 beta electrons
       nuclear repulsion energy       806.5526246051 Hartrees.
 NAtoms=   25 NActive=   25 NUniq=   25 SFac= 1.00D+00 NAtFMM=   60 NAOKFM=F Big=F
 Integral buffers will be    131072 words long.
 Raffenetti 2 integral format.
 Two-electron integral symmetry is turned off.
 One-electron integrals computed using PRISM.
   1 Symmetry operations used in ECPInt.
 ECPInt:  NShTT=   18336 NPrTT=   55600 LenC2=   17259 LenP2D=   39415.
 LDataN:  DoStor=T MaxTD1= 6 Len=  172
 NBasis=   475 RedAO= T EigKep=  8.51D-06  NBF=   475
 NBsUse=   475 1.00D-06 EigRej= -1.00D+00 NBFU=   475
 ExpMin= 9.52D-02 ExpMax= 2.70D+04 ExpMxC= 9.22D+02 IAcc=3 IRadAn=         5 AccDes= 0.00D+00
 Harris functional with IExCor= 1009 and IRadAn=       5 diagonalized for initial guess.
 HarFok:  IExCor= 1009 AccDes= 0.00D+00 IRadAn=         5 IDoV= 1 UseB2=F ITyADJ=14
 ICtDFT=  3500011 ScaDFX=  1.000000  1.000000  1.000000  1.000000
 FoFCou: FMM=F IPFlag=           0 FMFlag=      100000 FMFlg1=           0
         NFxFlg=           0 DoJE=T BraDBF=F KetDBF=T FulRan=T
         wScrn=  0.000000 ICntrl=       500 IOpCl=  0 I1Cent=   200000004 NGrid=           0
         NMat0=    1 NMatS0=      1 NMatT0=    0 NMatD0=    1 NMtDS0=    0 NMtDT0=    0
 Symmetry not used in FoFCou.
 Mixing orbitals, IMix= 1 IMixAn=  0 NRI=1 NE=   48 Coef=  7.07106781D-01  7.07106781D-01
 Requested convergence on RMS density matrix=1.00D-08 within  32 cycles.
 Requested convergence on MAX density matrix=1.00D-06.
 Requested convergence on             energy=1.00D-06.
 No special actions if energy rises.
 Integral accuracy reduced to 1.0D-05 until final iterations.
 Initial convergence to 1.0D-05 achieved.  Increase integral accuracy.
 SCF Done:  E(RM062X) =  -613.914979039     A.U. after   17 cycles
            NFock= 17  Conv=0.50D-08     -V/T= 2.0043
 QCSCF skips out because SCF is already converged.

 **********************************************************************

            Population analysis using the SCF Density.

 **********************************************************************

 Alpha  occ. eigenvalues --  -19.68599 -19.66244 -19.63457 -10.68224 -10.61528
 Alpha  occ. eigenvalues --  -10.60417 -10.59880 -10.54214 -10.53999 -10.53864
 Alpha  occ. eigenvalues --  -10.53397 -10.53317 -10.52162  -1.26121  -1.20042
 Alpha  occ. eigenvalues --   -1.16533  -0.96066  -0.90005  -0.84775  -0.84418
 Alpha  occ. eigenvalues --   -0.82295  -0.74707  -0.70079  -0.69242  -0.65669
 Alpha  occ. eigenvalues --   -0.63604  -0.62004  -0.59546  -0.57685  -0.55709
 Alpha  occ. eigenvalues --   -0.54883  -0.53375  -0.50963  -0.49375  -0.48728
 Alpha  occ. eigenvalues --   -0.48481  -0.47111  -0.45789  -0.45432  -0.43799
 Alpha  occ. eigenvalues --   -0.42665  -0.41922  -0.41451  -0.39621  -0.37084
 Alpha  occ. eigenvalues --   -0.35783  -0.30864  -0.28443
 Alpha virt. eigenvalues --    0.02030   0.02120   0.03387   0.06520   0.08045
 Alpha virt. eigenvalues --    0.09187   0.10408   0.11115   0.12192   0.12274
 Alpha virt. eigenvalues --    0.13612   0.14428   0.14828   0.15393   0.15807
 Alpha virt. eigenvalues --    0.16744   0.17786   0.19560   0.20224   0.20492
 Alpha virt. eigenvalues --    0.21046   0.22251   0.22791   0.23712   0.24081
 Alpha virt. eigenvalues --    0.24821   0.25247   0.26144   0.27159   0.27936
 Alpha virt. eigenvalues --    0.28346   0.28999   0.30219   0.31090   0.31821
 Alpha virt. eigenvalues --    0.33290   0.34205   0.35079   0.35760   0.36876
 Alpha virt. eigenvalues --    0.37688   0.38234   0.38967   0.39595   0.40365
 Alpha virt. eigenvalues --    0.40769   0.41182   0.41886   0.42378   0.43325
 Alpha virt. eigenvalues --    0.44355   0.45173   0.45389   0.45660   0.45945
 Alpha virt. eigenvalues --    0.47160   0.47678   0.48514   0.49044   0.49403
 Alpha virt. eigenvalues --    0.50192   0.50405   0.51783   0.52439   0.52750
 Alpha virt. eigenvalues --    0.53769   0.54631   0.55285   0.55544   0.56268
 Alpha virt. eigenvalues --    0.56846   0.57706   0.59225   0.60463   0.62561
 Alpha virt. eigenvalues --    0.63541   0.64940   0.66530   0.68193   0.69219
 Alpha virt. eigenvalues --    0.70095   0.71554   0.72985   0.73661   0.74708
 Alpha virt. eigenvalues --    0.75176   0.77220   0.78086   0.78720   0.79573
 Alpha virt. eigenvalues --    0.79954   0.81789   0.83595   0.84118   0.86023
 Alpha virt. eigenvalues --    0.87811   0.88555   0.89560   0.90057   0.91218
 Alpha virt. eigenvalues --    0.92693   0.93453   0.93945   0.95376   0.95681
 Alpha virt. eigenvalues --    0.98161   0.98727   0.99587   1.00887   1.01556
 Alpha virt. eigenvalues --    1.02748   1.04842   1.06663   1.07310   1.07852
 Alpha virt. eigenvalues --    1.08640   1.10900   1.11422   1.13827   1.15105
 Alpha virt. eigenvalues --    1.15849   1.16134   1.20150   1.22383   1.25397
 Alpha virt. eigenvalues --    1.25639   1.26614   1.26749   1.27689   1.28833
 Alpha virt. eigenvalues --    1.29552   1.31760   1.32834   1.33458   1.34882
 Alpha virt. eigenvalues --    1.39462   1.40625   1.44793   1.45837   1.47468
 Alpha virt. eigenvalues --    1.47575   1.49185   1.49942   1.51836   1.53365
 Alpha virt. eigenvalues --    1.54584   1.55041   1.55988   1.56747   1.57441
 Alpha virt. eigenvalues --    1.57935   1.59327   1.60039   1.60534   1.61109
 Alpha virt. eigenvalues --    1.61844   1.64189   1.64503   1.66078   1.68074
 Alpha virt. eigenvalues --    1.68937   1.71503   1.72288   1.73457   1.74805
 Alpha virt. eigenvalues --    1.75320   1.76554   1.77734   1.78800   1.80766
 Alpha virt. eigenvalues --    1.81819   1.83245   1.84804   1.86011   1.89011
 Alpha virt. eigenvalues --    1.90253   1.91036   1.92989   1.95167   1.96475
 Alpha virt. eigenvalues --    1.98029   1.98721   1.99153   2.03243   2.04242
 Alpha virt. eigenvalues --    2.04536   2.06237   2.08518   2.09254   2.10075
 Alpha virt. eigenvalues --    2.11941   2.13163   2.13531   2.15216   2.16960
 Alpha virt. eigenvalues --    2.18310   2.18651   2.21239   2.22809   2.23369
 Alpha virt. eigenvalues --    2.26259   2.26513   2.27353   2.28244   2.28786
 Alpha virt. eigenvalues --    2.31468   2.32905   2.33583   2.34967   2.36326
 Alpha virt. eigenvalues --    2.37466   2.39681   2.40864   2.42246   2.43087
 Alpha virt. eigenvalues --    2.46672   2.48428   2.49644   2.50907   2.51641
 Alpha virt. eigenvalues --    2.53619   2.54511   2.55916   2.56699   2.59176
 Alpha virt. eigenvalues --    2.59755   2.60561   2.61857   2.64188   2.64691
 Alpha virt. eigenvalues --    2.65589   2.66357   2.67353   2.67827   2.69825
 Alpha virt. eigenvalues --    2.71063   2.71540   2.72575   2.74565   2.75021
 Alpha virt. eigenvalues --    2.75754   2.76713   2.77542   2.79301   2.79879
 Alpha virt. eigenvalues --    2.80795   2.83069   2.83722   2.85189   2.86845
 Alpha virt. eigenvalues --    2.87038   2.87829   2.88957   2.90924   2.92841
 Alpha virt. eigenvalues --    2.93720   2.95350   2.95906   2.98495   3.01419
 Alpha virt. eigenvalues --    3.02835   3.03498   3.05494   3.07300   3.08206
 Alpha virt. eigenvalues --    3.09165   3.10426   3.11080   3.11977   3.12824
 Alpha virt. eigenvalues --    3.14358   3.15387   3.16074   3.16691   3.17058
 Alpha virt. eigenvalues --    3.17718   3.19655   3.20385   3.22122   3.23671
 Alpha virt. eigenvalues --    3.24138   3.24758   3.24860   3.26803   3.28086
 Alpha virt. eigenvalues --    3.28760   3.29922   3.30273   3.31761   3.33312
 Alpha virt. eigenvalues --    3.34040   3.35222   3.36564   3.37744   3.38756
 Alpha virt. eigenvalues --    3.39372   3.40547   3.41913   3.43369   3.43870
 Alpha virt. eigenvalues --    3.44118   3.45895   3.47177   3.48673   3.49456
 Alpha virt. eigenvalues --    3.50033   3.50912   3.52543   3.52571   3.52817
 Alpha virt. eigenvalues --    3.54619   3.56466   3.57859   3.58847   3.60767
 Alpha virt. eigenvalues --    3.61613   3.62548   3.64372   3.65982   3.69239
 Alpha virt. eigenvalues --    3.73248   3.73994   3.76149   3.77590   3.80001
 Alpha virt. eigenvalues --    3.80869   3.83761   3.88505   3.91891   3.92429
 Alpha virt. eigenvalues --    3.94309   4.02194   4.03589   4.04100   4.06458
 Alpha virt. eigenvalues --    4.08244   4.09344   4.10912   4.12179   4.13884
 Alpha virt. eigenvalues --    4.16331   4.16922   4.18616   4.20793   4.21617
 Alpha virt. eigenvalues --    4.22493   4.25448   4.26020   4.28938   4.31055
 Alpha virt. eigenvalues --    4.34822   4.35225   4.37527   4.38307   4.41198
 Alpha virt. eigenvalues --    4.43880   4.50881   4.54548   4.55612   4.57444
 Alpha virt. eigenvalues --    4.58146   4.62097   4.66778   4.68180   4.70703
 Alpha virt. eigenvalues --    4.77373   4.80763   4.82581   4.85279   4.88176
 Alpha virt. eigenvalues --    4.90081   4.98939   5.10934   5.14866   5.18538
 Alpha virt. eigenvalues --    5.20392   5.21745   5.24746   5.35780   5.39502
 Alpha virt. eigenvalues --    5.41733   5.47958   5.51066   5.53225   5.59154
 Alpha virt. eigenvalues --    5.63694   5.74292   5.78610   5.86049   5.90991
 Alpha virt. eigenvalues --    5.95536   5.99574   6.10596   6.15468   6.26479
 Alpha virt. eigenvalues --    6.28467   6.39268   6.40471   6.44341   6.49504
 Alpha virt. eigenvalues --    6.66955   6.71275   6.76099   6.77744   6.79347
 Alpha virt. eigenvalues --    6.82471   6.91846   6.97349   7.01025   7.12556
 Alpha virt. eigenvalues --    7.23818   7.26370   7.34634   7.37512  22.20046
 Alpha virt. eigenvalues --   22.45712  22.49406  22.71697  22.72930  22.79693
 Alpha virt. eigenvalues --   22.87084  22.92697  23.34833  23.47905  44.05461
 Alpha virt. eigenvalues --   44.26474  44.61728
          Condensed to atoms (all electrons):
               1          2          3          4          5          6
     1  C    4.701800   0.635440   0.302996   0.209428  -0.091695  -0.050853
     2  O    0.635440   7.797016  -0.079783  -0.069519   0.004648   0.001513
     3  O    0.302996  -0.079783   8.166511  -0.129162   0.010012   0.004801
     4  C    0.209428  -0.069519  -0.129162   5.341363   0.459568   0.243885
     5  H   -0.091695   0.004648   0.010012   0.459568   0.526877  -0.022844
     6  C   -0.050853   0.001513   0.004801   0.243885  -0.022844   5.030470
     7  H    0.004445  -0.002733  -0.000066  -0.046555  -0.004096   0.413390
     8  H    0.013410   0.000558  -0.000214  -0.054772  -0.006605   0.424180
     9  H   -0.026378   0.006948   0.000323  -0.011856   0.007486   0.409429
    10  O   -0.002674  -0.000268   0.005232   0.169827  -0.040849  -0.040044
    11  C   -0.037056   0.000784   0.183715   0.009522  -0.000783  -0.001161
    12  H   -0.004009   0.001367  -0.040041   0.000492   0.000199  -0.000168
    13  H    0.007306   0.001109  -0.031725   0.001130  -0.000252   0.000022
    14  H   -0.015875   0.005755  -0.022769  -0.001147  -0.000117   0.000077
    15  C   -0.000872   0.000415   0.002460  -0.067204  -0.000277   0.000814
    16  C    0.009314  -0.002367  -0.118944  -0.006202  -0.019625   0.001907
    17  C   -0.001254  -0.000043   0.003355  -0.000662   0.004032  -0.000165
    18  C    0.003545  -0.000060  -0.006738  -0.005354  -0.000854   0.000000
    19  H   -0.027861   0.001350   0.034155   0.019343  -0.001791   0.000941
    20  C    0.000064   0.000001  -0.000834   0.000872  -0.000336  -0.000003
    21  H    0.000021  -0.000003   0.000021  -0.000977   0.000126  -0.000045
    22  C   -0.000138   0.000000   0.001905  -0.000621  -0.000259   0.000006
    23  H   -0.000022  -0.000001  -0.000507   0.000125   0.000038   0.000001
    24  H   -0.000004   0.000000  -0.000002   0.000056   0.000002  -0.000001
    25  H    0.000004   0.000000   0.000012  -0.000014   0.000001   0.000000
               7          8          9         10         11         12
     1  C    0.004445   0.013410  -0.026378  -0.002674  -0.037056  -0.004009
     2  O   -0.002733   0.000558   0.006948  -0.000268   0.000784   0.001367
     3  O   -0.000066  -0.000214   0.000323   0.005232   0.183715  -0.040041
     4  C   -0.046555  -0.054772  -0.011856   0.169827   0.009522   0.000492
     5  H   -0.004096  -0.006605   0.007486  -0.040849  -0.000783   0.000199
     6  C    0.413390   0.424180   0.409429  -0.040044  -0.001161  -0.000168
     7  H    0.531157  -0.024644  -0.021341   0.005443   0.000073   0.000001
     8  H   -0.024644   0.520525  -0.022887   0.001754   0.000044   0.000001
     9  H   -0.021341  -0.022887   0.495497  -0.001397  -0.000108   0.000018
    10  O    0.005443   0.001754  -0.001397   7.989290  -0.002064   0.000228
    11  C    0.000073   0.000044  -0.000108  -0.002064   4.885192   0.424477
    12  H    0.000001   0.000001   0.000018   0.000228   0.424477   0.507126
    13  H    0.000001  -0.000001  -0.000002  -0.000034   0.399932  -0.027768
    14  H   -0.000003  -0.000001  -0.000022   0.000012   0.414696  -0.033826
    15  C    0.000609  -0.001841  -0.000463   0.321704  -0.000845  -0.001144
    16  C    0.000087   0.000312  -0.000533  -0.081819   0.010379  -0.002306
    17  C    0.000086  -0.000032   0.000003  -0.050792  -0.000405  -0.000286
    18  C   -0.000056  -0.000037   0.000025   0.012176   0.000993   0.000991
    19  H    0.000385  -0.000114  -0.000162  -0.008170  -0.014985   0.003454
    20  C   -0.000012   0.000003   0.000023   0.004814   0.000106   0.000030
    21  H    0.000021   0.000023  -0.000012   0.006278   0.000003  -0.000002
    22  C    0.000007   0.000010  -0.000009  -0.000931  -0.000341  -0.000067
    23  H    0.000000  -0.000000   0.000000  -0.000191   0.000407  -0.000025
    24  H   -0.000000  -0.000001   0.000000  -0.000140   0.000000   0.000000
    25  H    0.000000   0.000000  -0.000000   0.000014  -0.000004  -0.000003
              13         14         15         16         17         18
     1  C    0.007306  -0.015875  -0.000872   0.009314  -0.001254   0.003545
     2  O    0.001109   0.005755   0.000415  -0.002367  -0.000043  -0.000060
     3  O   -0.031725  -0.022769   0.002460  -0.118944   0.003355  -0.006738
     4  C    0.001130  -0.001147  -0.067204  -0.006202  -0.000662  -0.005354
     5  H   -0.000252  -0.000117  -0.000277  -0.019625   0.004032  -0.000854
     6  C    0.000022   0.000077   0.000814   0.001907  -0.000165   0.000000
     7  H    0.000001  -0.000003   0.000609   0.000087   0.000086  -0.000056
     8  H   -0.000001  -0.000001  -0.001841   0.000312  -0.000032  -0.000037
     9  H   -0.000002  -0.000022  -0.000463  -0.000533   0.000003   0.000025
    10  O   -0.000034   0.000012   0.321704  -0.081819  -0.050792   0.012176
    11  C    0.399932   0.414696  -0.000845   0.010379  -0.000405   0.000993
    12  H   -0.027768  -0.033826  -0.001144  -0.002306  -0.000286   0.000991
    13  H    0.526298  -0.021855   0.001082   0.006024  -0.000045  -0.000886
    14  H   -0.021855   0.505943   0.000012  -0.001187   0.000030  -0.000081
    15  C    0.001082   0.000012   4.882978   0.257742   0.421298   0.101622
    16  C    0.006024  -0.001187   0.257742   5.536117   0.097782   0.264085
    17  C   -0.000045   0.000030   0.421298   0.097782   5.057211  -0.149147
    18  C   -0.000886  -0.000081   0.101622   0.264085  -0.149147   5.184412
    19  H   -0.009857   0.001612  -0.043860   0.394720   0.003542  -0.027709
    20  C    0.000030  -0.000007   0.023286  -0.138572   0.447165   0.044453
    21  H   -0.000000   0.000000  -0.053043   0.017119   0.416451  -0.005848
    22  C   -0.000150   0.000018  -0.109504   0.037894   0.006826   0.422816
    23  H    0.000461  -0.000013   0.000681  -0.015543   0.002019   0.387152
    24  H    0.000000  -0.000000   0.010712  -0.004058  -0.043362   0.009141
    25  H   -0.000001   0.000000  -0.001919   0.010574   0.006472  -0.045235
              19         20         21         22         23         24
     1  C   -0.027861   0.000064   0.000021  -0.000138  -0.000022  -0.000004
     2  O    0.001350   0.000001  -0.000003   0.000000  -0.000001   0.000000
     3  O    0.034155  -0.000834   0.000021   0.001905  -0.000507  -0.000002
     4  C    0.019343   0.000872  -0.000977  -0.000621   0.000125   0.000056
     5  H   -0.001791  -0.000336   0.000126  -0.000259   0.000038   0.000002
     6  C    0.000941  -0.000003  -0.000045   0.000006   0.000001  -0.000001
     7  H    0.000385  -0.000012   0.000021   0.000007   0.000000  -0.000000
     8  H   -0.000114   0.000003   0.000023   0.000010  -0.000000  -0.000001
     9  H   -0.000162   0.000023  -0.000012  -0.000009   0.000000   0.000000
    10  O   -0.008170   0.004814   0.006278  -0.000931  -0.000191  -0.000140
    11  C   -0.014985   0.000106   0.000003  -0.000341   0.000407   0.000000
    12  H    0.003454   0.000030  -0.000002  -0.000067  -0.000025   0.000000
    13  H   -0.009857   0.000030  -0.000000  -0.000150   0.000461   0.000000
    14  H    0.001612  -0.000007   0.000000   0.000018  -0.000013  -0.000000
    15  C   -0.043860   0.023286  -0.053043  -0.109504   0.000681   0.010712
    16  C    0.394720  -0.138572   0.017119   0.037894  -0.015543  -0.004058
    17  C    0.003542   0.447165   0.416451   0.006826   0.002019  -0.043362
    18  C   -0.027709   0.044453  -0.005848   0.422816   0.387152   0.009141
    19  H    0.431181  -0.002613   0.000184   0.004999  -0.000310  -0.000010
    20  C   -0.002613   4.927994  -0.038512   0.472415   0.001434   0.419383
    21  H    0.000184  -0.038512   0.504035   0.008886   0.000075  -0.005887
    22  C    0.004999   0.472415   0.008886   4.957141  -0.023028  -0.041603
    23  H   -0.000310   0.001434   0.000075  -0.023028   0.513023  -0.000315
    24  H   -0.000010   0.419383  -0.005887  -0.041603  -0.000315   0.517729
    25  H   -0.000024  -0.039373  -0.000168   0.419760  -0.003920  -0.004416
              25
     1  C    0.000004
     2  O    0.000000
     3  O    0.000012
     4  C   -0.000014
     5  H    0.000001
     6  C    0.000000
     7  H    0.000000
     8  H    0.000000
     9  H   -0.000000
    10  O    0.000014
    11  C   -0.000004
    12  H   -0.000003
    13  H   -0.000001
    14  H    0.000000
    15  C   -0.001919
    16  C    0.010574
    17  C    0.006472
    18  C   -0.045235
    19  H   -0.000024
    20  C   -0.039373
    21  H   -0.000168
    22  C    0.419760
    23  H   -0.003920
    24  H   -0.004416
    25  H    0.520177
 Mulliken charges:
               1
     1  C    0.370920
     2  O   -0.302128
     3  O   -0.284715
     4  C   -0.061566
     5  H    0.177393
     6  C   -0.416153
     7  H    0.143801
     8  H    0.150329
     9  H    0.165418
    10  O   -0.287399
    11  C   -0.272570
    12  H    0.171259
    13  H    0.149181
    14  H    0.168746
    15  C    0.255556
    16  C   -0.252898
    17  C   -0.220081
    18  C   -0.189404
    19  H    0.241602
    20  C   -0.121811
    21  H    0.151254
    22  C   -0.156033
    23  H    0.138460
    24  H    0.142776
    25  H    0.138061
 Sum of Mulliken charges =  -0.00000
 Mulliken charges with hydrogens summed into heavy atoms:
               1
     1  C    0.370920
     2  O   -0.302128
     3  O   -0.284715
     4  C    0.115826
     6  C    0.043395
    10  O   -0.287399
    11  C    0.216617
    15  C    0.255556
    16  C   -0.011297
    17  C   -0.068826
    18  C   -0.050943
    20  C    0.020965
    22  C   -0.017971
 Electronic spatial extent (au):  <R**2>=           2894.1640
 Charge=             -0.0000 electrons
 Dipole moment (field-independent basis, Debye):
    X=              0.6689    Y=              0.5076    Z=             -1.8641  Tot=              2.0445
 Quadrupole moment (field-independent basis, Debye-Ang):
   XX=            -72.8096   YY=            -73.4551   ZZ=            -80.8970
   XY=              2.7577   XZ=             -0.0650   YZ=             -3.7113
 Traceless Quadrupole moment (field-independent basis, Debye-Ang):
   XX=              2.9109   YY=              2.2655   ZZ=             -5.1764
   XY=              2.7577   XZ=             -0.0650   YZ=             -3.7113
 Octapole moment (field-independent basis, Debye-Ang**2):
  XXX=             -9.1184  YYY=            226.1480  ZZZ=             34.0203  XYY=             21.2894
  XXY=             74.9351  XXZ=              3.3591  XZZ=             12.1256  YZZ=             80.9284
  YYZ=             13.9050  XYZ=              9.2591
 Hexadecapole moment (field-independent basis, Debye-Ang**3):
 XXXX=          -1162.0743 YYYY=          -2041.4517 ZZZZ=           -588.8161 XXXY=            277.2437
 XXXZ=            274.7987 YYYX=            209.1885 YYYZ=           -249.1516 ZZZX=            282.4031
 ZZZY=           -235.1819 XXYY=           -533.7404 XXZZ=           -274.5615 YYZZ=           -488.6311
 XXYZ=            -55.1237 YYXZ=             81.5997 ZZXY=             89.4488
 N-N= 8.065526246051D+02 E-N=-3.045971003458D+03  KE= 6.113039837864D+02
   1 Symmetry operations used in ECPInt.
 ECPInt:  NShTT=   18336 NPrTT=   55600 LenC2=   17259 LenP2D=   39415.
 LDataN:  DoStor=T MaxTD1= 7 Len=  274
 Calling FoFJK, ICntrl=      2127 FMM=F ISym2X=0 I1Cent= 0 IOpClX= 0 NMat=1 NMatS=1 NMatT=0.
 -------------------------------------------------------------------
 Center     Atomic                   Forces (Hartrees/Bohr)
 Number     Number              X              Y              Z
 -------------------------------------------------------------------
      1        6          -0.011400644    0.004057285    0.003467276
      2        8           0.006676230   -0.004602442   -0.000690866
      3        8          -0.000909361    0.028822980    0.013510195
      4        6          -0.021223106    0.004056585    0.004512398
      5        1           0.000808339   -0.002266224    0.000951100
      6        6           0.003540269   -0.003262977    0.000995923
      7        1          -0.000398411    0.000864431    0.000634413
      8        1          -0.000058382    0.000032841   -0.000802895
      9        1          -0.000664830    0.001402692   -0.001326967
     10        8           0.004451967   -0.012902858   -0.002631411
     11        6          -0.002807788    0.009968703   -0.000760545
     12        1          -0.000120687   -0.002031266   -0.000567374
     13        1           0.001062109    0.000372460   -0.000256667
     14        1           0.000607543   -0.000050843   -0.001128655
     15        6           0.003857995    0.009083307   -0.000227628
     16        6           0.006288156   -0.012414876   -0.011475518
     17        6          -0.002439239   -0.000996130    0.006347845
     18        6          -0.000604467   -0.004452911    0.000172368
     19        1           0.013175269   -0.018927393   -0.009210118
     20        6          -0.000551535    0.002191827    0.000744628
     21        1          -0.001194478    0.000214988   -0.000128731
     22        6           0.002098791    0.000995103   -0.001380248
     23        1           0.000243057   -0.000032674   -0.000567332
     24        1          -0.000855637    0.000334318    0.000034775
     25        1           0.000418842   -0.000456927   -0.000215967
 -------------------------------------------------------------------
 Cartesian Forces:  Max     0.028822980 RMS     0.006526434

 GradGradGradGradGradGradGradGradGradGradGradGradGradGradGradGradGradGrad
 Berny optimization.
 FormGI is forming the generalized inverse of G from B-inverse, IUseBI=4.
 Internal  Forces:  Max     0.167173968 RMS     0.023635157
 Search for a local minimum.
 Step number   1 out of a maximum of  125
 All quantities printed in internal units (Hartrees-Bohrs-Radians)
 Mixed Optimization -- RFO/linear search
 Second derivative matrix not updated -- first step.
 ITU=  0
     Eigenvalues ---    0.00433   0.00516   0.00940   0.01338   0.01596
     Eigenvalues ---    0.01985   0.02210   0.02243   0.02246   0.02249
     Eigenvalues ---    0.02250   0.02251   0.02252   0.02254   0.02256
     Eigenvalues ---    0.02499   0.05314   0.05690   0.05773   0.05919
     Eigenvalues ---    0.07648   0.10286   0.10651   0.15996   0.15999
     Eigenvalues ---    0.15999   0.16000   0.16000   0.16000   0.16000
     Eigenvalues ---    0.16000   0.16000   0.16000   0.16000   0.17037
     Eigenvalues ---    0.19856   0.22000   0.22000   0.23488   0.24972
     Eigenvalues ---    0.24992   0.25000   0.25000   0.25000   0.29875
     Eigenvalues ---    0.30473   0.34334   0.34781   0.34897   0.34914
     Eigenvalues ---    0.34967   0.35026   0.35437   0.35640   0.35708
     Eigenvalues ---    0.35748   0.35806   0.35846   0.41455   0.43134
     Eigenvalues ---    0.43256   0.44437   0.47599   0.47707   0.47724
     Eigenvalues ---    0.47780   0.49503   0.57436   1.06421
 RFO step:  Lambda=-1.71844736D-01 EMin= 4.33107389D-03
 Linear search not attempted -- first point.
 Maximum step size (   0.300) exceeded in Quadratic search.
    -- Step size scaled by   0.527
 Iteration  1 RMS(Cart)=  0.32397529 RMS(Int)=  0.01537112
 Iteration  2 RMS(Cart)=  0.12543476 RMS(Int)=  0.00220357
 Iteration  3 RMS(Cart)=  0.00608401 RMS(Int)=  0.00044862
 Iteration  4 RMS(Cart)=  0.00000815 RMS(Int)=  0.00044861
 Iteration  5 RMS(Cart)=  0.00000000 RMS(Int)=  0.00044861
 Variable       Old X    -DE/DX   Delta X   Delta X   Delta X     New X
                                 (Linear)    (Quad)   (Total)
    R1        2.26172  -0.00448   0.00000  -0.00191  -0.00191   2.25981
    R2        2.53029   0.00097   0.00000   0.00069   0.00069   2.53098
    R3        2.88214   0.03289   0.00000   0.03685   0.03685   2.91899
    R4        2.69623   0.00362   0.00000   0.00325   0.00325   2.69948
    R5        2.06770  -0.00080   0.00000  -0.00082  -0.00082   2.06687
    R6        2.87030  -0.00229   0.00000  -0.00253  -0.00253   2.86777
    R7        2.65935   0.03465   0.00000   0.02965   0.02965   2.68900
    R8        2.05632   0.00064   0.00000   0.00065   0.00065   2.05697
    R9        2.05729   0.00014   0.00000   0.00014   0.00014   2.05743
   R10        2.06031  -0.00124   0.00000  -0.00126  -0.00126   2.05905
   R11        2.60370   0.03270   0.00000   0.02586   0.02586   2.62956
   R12        2.05842   0.00040   0.00000   0.00041   0.00041   2.05882
   R13        2.04971   0.00081   0.00000   0.00081   0.00081   2.05052
   R14        2.05815  -0.00070   0.00000  -0.00071  -0.00071   2.05744
   R15        2.62221   0.00858   0.00000   0.00727   0.00729   2.62950
   R16        2.62246   0.00406   0.00000   0.00344   0.00347   2.62592
   R17        2.62132   0.00374   0.00000   0.00320   0.00319   2.62452
   R18        2.04386  -0.02175   0.00000  -0.02164  -0.02164   2.02222
   R19        2.62255  -0.00205   0.00000  -0.00184  -0.00183   2.62072
   R20        2.04478   0.00021   0.00000   0.00021   0.00021   2.04499
   R21        2.62437  -0.00649   0.00000  -0.00542  -0.00545   2.61893
   R22        2.04541   0.00047   0.00000   0.00047   0.00047   2.04588
   R23        2.62256  -0.00648   0.00000  -0.00557  -0.00559   2.61696
   R24        2.04648  -0.00062   0.00000  -0.00062  -0.00062   2.04586
   R25        2.04322   0.00058   0.00000   0.00058   0.00058   2.04380
    A1        2.16507  -0.03145   0.00000  -0.03946  -0.03953   2.12553
    A2        2.18932  -0.02925   0.00000  -0.03669  -0.03676   2.15256
    A3        1.92832   0.06048   0.00000   0.07547   0.07539   2.00371
    A4        2.01192   0.00457   0.00000   0.00571   0.00571   2.01763
    A5        1.87933   0.01700   0.00000   0.03664   0.03521   1.91454
    A6        1.91309  -0.03910   0.00000  -0.06101  -0.06026   1.85283
    A7        1.92843   0.03746   0.00000   0.05637   0.05401   1.98244
    A8        1.92435   0.00427   0.00000  -0.00331  -0.00273   1.92163
    A9        1.93709   0.00166   0.00000   0.01174   0.00975   1.94684
   A10        1.88182  -0.02174   0.00000  -0.04130  -0.04035   1.84147
   A11        1.92774   0.00027   0.00000   0.00024   0.00024   1.92798
   A12        1.90845  -0.00042   0.00000  -0.00048  -0.00048   1.90798
   A13        1.91136   0.00042   0.00000   0.00067   0.00067   1.91203
   A14        1.90866   0.00007   0.00000   0.00011   0.00011   1.90876
   A15        1.91006  -0.00102   0.00000  -0.00200  -0.00200   1.90806
   A16        1.89728   0.00069   0.00000   0.00149   0.00149   1.89877
   A17        2.02351   0.16717   0.00000   0.20896   0.20896   2.23248
   A18        1.92314  -0.00300   0.00000  -0.00482  -0.00482   1.91832
   A19        1.84985   0.00108   0.00000   0.00163   0.00162   1.85148
   A20        1.92440   0.00134   0.00000   0.00227   0.00227   1.92667
   A21        1.93235  -0.00037   0.00000  -0.00089  -0.00089   1.93147
   A22        1.90118   0.00150   0.00000   0.00255   0.00256   1.90374
   A23        1.93277  -0.00061   0.00000  -0.00085  -0.00085   1.93192
   A24        2.07146   0.09241   0.00000   0.11546   0.11545   2.18690
   A25        2.10324  -0.07194   0.00000  -0.09010  -0.09016   2.01308
   A26        2.10749  -0.02031   0.00000  -0.02492  -0.02489   2.08260
   A27        2.08239   0.00610   0.00000   0.00867   0.00868   2.09108
   A28        2.06936   0.00860   0.00000   0.01417   0.01417   2.08352
   A29        2.13136  -0.01472   0.00000  -0.02289  -0.02290   2.10845
   A30        2.08484   0.01289   0.00000   0.01698   0.01701   2.10184
   A31        2.08921  -0.00735   0.00000  -0.00991  -0.00992   2.07929
   A32        2.10895  -0.00554   0.00000  -0.00707  -0.00709   2.10186
   A33        2.10258   0.00519   0.00000   0.00670   0.00666   2.10925
   A34        2.08499  -0.00224   0.00000  -0.00278  -0.00277   2.08223
   A35        2.09559  -0.00295   0.00000  -0.00391  -0.00390   2.09169
   A36        2.09994   0.00190   0.00000   0.00144   0.00143   2.10137
   A37        2.08749  -0.00148   0.00000  -0.00155  -0.00154   2.08595
   A38        2.09569  -0.00041   0.00000   0.00013   0.00014   2.09583
   A39        2.08907  -0.00576   0.00000  -0.00883  -0.00888   2.08020
   A40        2.09702   0.00319   0.00000   0.00491   0.00493   2.10195
   A41        2.09708   0.00258   0.00000   0.00394   0.00396   2.10103
    D1        0.52384  -0.00362   0.00000  -0.00879  -0.00879   0.51505
    D2       -2.64945  -0.01153   0.00000  -0.03181  -0.03181  -2.68126
    D3        2.56217  -0.01089   0.00000  -0.01945  -0.02047   2.54170
    D4        0.46853  -0.00375   0.00000  -0.00229  -0.00259   0.46594
    D5       -1.60290   0.02440   0.00000   0.05195   0.05327  -1.54964
    D6       -0.54720  -0.00284   0.00000   0.00398   0.00296  -0.54424
    D7       -2.64084   0.00431   0.00000   0.02114   0.02085  -2.61999
    D8        1.57092   0.03245   0.00000   0.07539   0.07670   1.64762
    D9        1.05319   0.00062   0.00000   0.00106   0.00106   1.05425
   D10       -3.13859  -0.00081   0.00000  -0.00165  -0.00165  -3.14025
   D11       -1.04601  -0.00018   0.00000  -0.00047  -0.00047  -1.04648
   D12        1.03266  -0.00362   0.00000  -0.00140  -0.00191   1.03075
   D13        3.13384  -0.00363   0.00000  -0.00143  -0.00193   3.13191
   D14       -1.07213  -0.00279   0.00000   0.00049  -0.00001  -1.07214
   D15       -1.03325  -0.00311   0.00000  -0.00697  -0.00709  -1.04034
   D16        1.06794  -0.00312   0.00000  -0.00700  -0.00712   1.06082
   D17       -3.13804  -0.00228   0.00000  -0.00507  -0.00519   3.13995
   D18        3.13271   0.00593   0.00000   0.00657   0.00719   3.13990
   D19       -1.04929   0.00592   0.00000   0.00654   0.00717  -1.04213
   D20        1.02791   0.00676   0.00000   0.00847   0.00909   1.03700
   D21       -1.57084  -0.06628   0.00000  -0.15808  -0.15887  -1.72971
   D22        0.51269  -0.01958   0.00000  -0.06803  -0.06785   0.44485
   D23        2.62198  -0.02722   0.00000  -0.09139  -0.09078   2.53120
   D24        0.52348  -0.01671   0.00000  -0.04640  -0.04638   0.47709
   D25       -2.66554  -0.01341   0.00000  -0.03646  -0.03647  -2.70202
   D26        3.09051   0.00019   0.00000   0.00337   0.00389   3.09440
   D27       -0.06415  -0.00123   0.00000  -0.00091  -0.00053  -0.06467
   D28       -0.00353  -0.00167   0.00000  -0.00477  -0.00477  -0.00830
   D29        3.12499  -0.00309   0.00000  -0.00905  -0.00919   3.11581
   D30       -3.09754  -0.00377   0.00000  -0.00712  -0.00658  -3.10413
   D31        0.02338  -0.00358   0.00000  -0.00718  -0.00675   0.01664
   D32       -0.00437   0.00263   0.00000   0.00680   0.00671   0.00235
   D33        3.11656   0.00282   0.00000   0.00674   0.00655   3.12311
   D34        0.00913  -0.00032   0.00000  -0.00036  -0.00024   0.00889
   D35       -3.13957  -0.00016   0.00000  -0.00048  -0.00046  -3.14003
   D36       -3.11891   0.00097   0.00000   0.00377   0.00395  -3.11497
   D37        0.01557   0.00113   0.00000   0.00365   0.00372   0.01930
   D38        0.00675  -0.00153   0.00000  -0.00363  -0.00356   0.00319
   D39        3.13642  -0.00044   0.00000  -0.00123  -0.00125   3.13517
   D40       -3.11393  -0.00171   0.00000  -0.00354  -0.00337  -3.11730
   D41        0.01573  -0.00062   0.00000  -0.00114  -0.00106   0.01467
   D42       -0.00678   0.00139   0.00000   0.00349   0.00344  -0.00335
   D43        3.14003   0.00026   0.00000   0.00042   0.00035   3.14038
   D44       -3.14123   0.00123   0.00000   0.00361   0.00366  -3.13757
   D45        0.00558   0.00010   0.00000   0.00054   0.00057   0.00616
   D46       -0.00123  -0.00041   0.00000  -0.00140  -0.00147  -0.00270
   D47        3.13514   0.00072   0.00000   0.00168   0.00162   3.13676
   D48       -3.13084  -0.00149   0.00000  -0.00380  -0.00378  -3.13462
   D49        0.00553  -0.00036   0.00000  -0.00072  -0.00069   0.00484
         Item               Value     Threshold  Converged?
 Maximum Force            0.167174     0.000450     NO 
 RMS     Force            0.023635     0.000300     NO 
 Maximum Displacement     1.593108     0.001800     NO 
 RMS     Displacement     0.439420     0.001200     NO 
 Predicted change in Energy=-7.895628D-02
 GradGradGradGradGradGradGradGradGradGradGradGradGradGradGradGradGradGrad

                          Input orientation:                          
 ---------------------------------------------------------------------
 Center     Atomic      Atomic             Coordinates (Angstroms)
 Number     Number       Type             X           Y           Z
 ---------------------------------------------------------------------
      1          6           0       -1.094744    0.834658    0.623036
      2          8           0       -1.337262    1.291086    1.701412
      3          8           0       -0.448132    1.541449   -0.312997
      4          6           0       -1.559391   -0.567289    0.170679
      5          1           0       -1.787533   -0.552694   -0.898906
      6          6           0       -2.814039   -0.873894    0.967442
      7          1           0       -3.577904   -0.121690    0.778928
      8          1           0       -3.193011   -1.853201    0.679862
      9          1           0       -2.576422   -0.887879    2.030729
     10          8           0       -0.640035   -1.603884    0.494807
     11          6           0        0.472173    2.518006    0.176900
     12          1           0        1.247181    2.033109    0.769530
     13          1           0        0.901107    2.993037   -0.699333
     14          1           0       -0.044565    3.248979    0.796605
     15          6           0        0.303217   -2.200778   -0.336015
     16          6           0        0.906801   -1.594196   -1.433259
     17          6           0        0.676249   -3.491500    0.018688
     18          6           0        1.878068   -2.278243   -2.152691
     19          1           0        0.603211   -0.609382   -1.721547
     20          6           0        1.642071   -4.168873   -0.710446
     21          1           0        0.217413   -3.953842    0.882851
     22          6           0        2.249512   -3.565720   -1.799020
     23          1           0        2.343367   -1.797927   -3.004091
     24          1           0        1.925783   -5.171734   -0.417446
     25          1           0        3.005886   -4.092598   -2.364718
 ---------------------------------------------------------------------
                    Distance matrix (angstroms):
                    1          2          3          4          5
     1  C    0.000000
     2  O    1.195841   0.000000
     3  O    1.339336   2.216096   0.000000
     4  C    1.544662   2.417859   2.432204   0.000000
     5  H    2.172789   3.219305   2.553962   1.093743   0.000000
     6  C    2.448212   2.721529   3.615373   1.517557   2.154098
     7  H    2.665518   2.804887   3.708613   2.154743   2.491249
     8  H    3.410358   3.791294   4.477029   2.140456   2.481772
     9  H    2.672845   2.528212   3.990527   2.144042   3.052450
    10  O    2.483886   3.212922   3.253075   1.422956   2.089064
    11  C    2.342632   2.665244   1.428504   3.694095   3.961418
    12  H    2.634835   2.845760   2.070671   3.872665   4.321984
    13  H    3.223457   3.697365   2.019110   4.414396   4.454304
    14  H    2.638550   2.514575   2.075991   4.153358   4.512805
    15  C    3.476773   4.362957   3.816978   2.528703   2.721078
    16  C    3.759504   4.815271   3.594872   3.115969   2.937635
    17  C    4.713523   5.455173   5.167671   3.684047   3.943195
    18  C    5.121760   6.158941   4.835879   4.487932   4.241005
    19  H    3.235023   4.369652   2.777662   2.873872   2.528954
    20  C    5.856932   6.671179   6.093824   4.898688   4.987429
    21  H    4.971820   5.531394   5.663147   3.890111   4.331544
    22  C    6.034380   6.979007   5.963952   5.232404   5.117252
    23  H    5.648643   6.725384   5.117215   5.179301   4.800703
    24  H    6.803157   7.543544   7.121321   5.804588   5.946096
    25  H    7.072461   8.023740   6.919703   6.300619   6.136481
                    6          7          8          9         10
     6  C    0.000000
     7  H    1.088502   0.000000
     8  H    1.088745   1.776538   0.000000
     9  H    1.089603   1.776799   1.771121   0.000000
    10  O    2.341488   3.302832   2.571788   2.573191   0.000000
    11  C    4.788437   4.871710   5.726604   4.932612   4.281127
    12  H    4.998334   5.284382   5.901419   4.974207   4.106674
    13  H    5.615478   5.652284   6.492303   5.882852   4.993272
    14  H    4.969633   4.883258   5.996548   5.004693   4.898565
    15  C    3.630002   4.541895   3.657380   3.951899   1.391501
    16  C    4.486296   5.212929   4.619612   4.962956   2.471889
    17  C    4.464763   5.480092   4.253510   4.626772   2.349976
    18  C    5.807176   6.558410   5.824075   6.267104   3.715487
    19  H    4.356400   4.896115   4.661024   4.926175   2.728904
    20  C    5.790433   6.770972   5.538348   6.006217   3.638655
    21  H    4.322376   5.394499   4.010597   4.303866   2.531422
    22  C    6.367008   7.243337   6.220822   6.717697   4.178508
    23  H    6.574629   7.223743   6.650266   7.098023   4.602242
    24  H    6.546393   7.564709   6.198289   6.679433   4.488339
    25  H    7.438742   8.306438   7.260213   7.794379   5.259594
                   11         12         13         14         15
    11  C    0.000000
    12  H    1.089483   0.000000
    13  H    1.085091   1.788515   0.000000
    14  H    1.088748   1.774170   1.788192   0.000000
    15  C    4.749585   4.476505   5.240724   5.577063   0.000000
    16  C    4.437536   4.257403   4.645577   5.416062   1.391473
    17  C    6.015051   5.604554   6.528042   6.823399   1.389579
    18  C    5.514303   5.246441   5.554555   6.553246   2.405507
    19  H    3.660851   3.688213   3.756472   4.652703   2.131252
    20  C    6.846196   6.388336   7.200146   7.755028   2.409590
    21  H    6.515220   6.075923   7.157504   7.208100   2.136874
    22  C    6.638895   6.240913   6.785632   7.644617   2.791328
    23  H    5.678676   5.488048   5.508662   6.754167   3.382769
    24  H    7.848461   7.333428   8.233645   8.732960   3.386138
    25  H    7.521943   7.102171   7.576927   8.555581   3.872859
                   16         17         18         19         20
    16  C    0.000000
    17  C    2.400222   0.000000
    18  C    1.388834   2.762471   0.000000
    19  H    1.070111   3.367544   2.143885   0.000000
    20  C    2.773452   1.386824   2.389612   3.843375   0.000000
    21  H    3.377507   1.082160   3.844467   4.256424   2.148135
    22  C    2.413205   2.405146   1.385876   3.384707   1.384837
    23  H    2.138397   3.845083   1.082630   2.466922   3.372537
    24  H    3.856031   2.138863   3.374262   4.925945   1.082623
    25  H    3.393492   3.386613   2.146816   4.280107   2.145327
                   21         22         23         24         25
    21  H    0.000000
    22  C    3.387108   0.000000
    23  H    4.927065   2.141517   0.000000
    24  H    2.468312   2.143089   4.271730   0.000000
    25  H    4.282703   1.081535   2.472498   2.474475   0.000000
 Symmetry turned off by external request.
 Stoichiometry    C10H12O3
 Framework group  C1[X(C10H12O3)]
 Deg. of freedom    69
 Full point group                 C1      NOp   1
 Rotational constants (GHZ):           1.4555679           0.4643368           0.3791134
 Standard basis: def2TZVP (5D, 7F)
   475 basis functions,   759 primitive gaussians,   540 cartesian basis functions
    48 alpha electrons       48 beta electrons
       nuclear repulsion energy       779.1113516386 Hartrees.
 NAtoms=   25 NActive=   25 NUniq=   25 SFac= 1.00D+00 NAtFMM=   60 NAOKFM=F Big=F
 Integral buffers will be    131072 words long.
 Raffenetti 2 integral format.
 Two-electron integral symmetry is turned off.
 One-electron integrals computed using PRISM.
   1 Symmetry operations used in ECPInt.
 ECPInt:  NShTT=   18336 NPrTT=   55600 LenC2=   16958 LenP2D=   38302.
 LDataN:  DoStor=T MaxTD1= 6 Len=  172
 NBasis=   475 RedAO= T EigKep=  8.58D-06  NBF=   475
 NBsUse=   475 1.00D-06 EigRej= -1.00D+00 NBFU=   475
 Initial guess from the checkpoint file:  "/dev/shm/me2pheoxprpnt_33.chk"
 B after Tr=     0.030800    0.004902   -0.015605
         Rot=    0.999967   -0.007288    0.000563    0.003659 Ang=  -0.94 deg.
 ExpMin= 9.52D-02 ExpMax= 2.70D+04 ExpMxC= 9.22D+02 IAcc=3 IRadAn=         5 AccDes= 0.00D+00
 Harris functional with IExCor= 1009 and IRadAn=       5 diagonalized for initial guess.
 HarFok:  IExCor= 1009 AccDes= 0.00D+00 IRadAn=         5 IDoV= 1 UseB2=F ITyADJ=14
 ICtDFT=  3500011 ScaDFX=  1.000000  1.000000  1.000000  1.000000
 FoFCou: FMM=F IPFlag=           0 FMFlag=      100000 FMFlg1=           0
         NFxFlg=           0 DoJE=T BraDBF=F KetDBF=T FulRan=T
         wScrn=  0.000000 ICntrl=       500 IOpCl=  0 I1Cent=   200000004 NGrid=           0
         NMat0=    1 NMatS0=      1 NMatT0=    0 NMatD0=    1 NMtDS0=    0 NMtDT0=    0
 Symmetry not used in FoFCou.
 Requested convergence on RMS density matrix=1.00D-08 within  32 cycles.
 Requested convergence on MAX density matrix=1.00D-06.
 Requested convergence on             energy=1.00D-06.
 No special actions if energy rises.
 Integral accuracy reduced to 1.0D-05 until final iterations.
 Initial convergence to 1.0D-05 achieved.  Increase integral accuracy.
 SCF Done:  E(RM062X) =  -613.928214463     A.U. after   16 cycles
            NFock= 16  Conv=0.40D-08     -V/T= 2.0048
 QCSCF skips out because SCF is already converged.
   1 Symmetry operations used in ECPInt.
 ECPInt:  NShTT=   18336 NPrTT=   55600 LenC2=   16958 LenP2D=   38302.
 LDataN:  DoStor=T MaxTD1= 7 Len=  274
 Calling FoFJK, ICntrl=      2127 FMM=F ISym2X=0 I1Cent= 0 IOpClX= 0 NMat=1 NMatS=1 NMatT=0.
 -------------------------------------------------------------------
 Center     Atomic                   Forces (Hartrees/Bohr)
 Number     Number              X              Y              Z
 -------------------------------------------------------------------
      1        6           0.000128945    0.003850395   -0.000246077
      2        8           0.004017307   -0.004936552    0.005858831
      3        8           0.011632672   -0.014920780   -0.007558742
      4        6          -0.005859577   -0.000872704   -0.001940062
      5        1           0.004883393    0.000466021   -0.001141506
      6        6          -0.001329689   -0.006363744   -0.001955335
      7        1          -0.000391660    0.000592966    0.000842153
      8        1          -0.000433819    0.000100601   -0.000822782
      9        1          -0.000256457    0.001502077   -0.001465477
     10        8           0.013058045   -0.003672818   -0.000555399
     11        6          -0.006104852    0.005918963    0.001373474
     12        1          -0.000041195   -0.000797328   -0.000493964
     13        1           0.000281407   -0.000070893   -0.000135221
     14        1           0.000417897    0.000431809   -0.000672076
     15        6          -0.010290119    0.011444417    0.002392578
     16        6          -0.005509750   -0.002908970    0.004740528
     17        6           0.000337433   -0.003306176    0.004301128
     18        6          -0.000795598   -0.000637833   -0.001436891
     19        1          -0.001091135    0.009689459   -0.001895138
     20        6          -0.001901028    0.001166916    0.003179934
     21        1          -0.001312645    0.000957150   -0.000370865
     22        6           0.001621996    0.001491047   -0.002308288
     23        1          -0.000413950    0.000454926    0.000269503
     24        1          -0.000709961    0.000190468    0.000214386
     25        1           0.000062338    0.000230583   -0.000174691
 -------------------------------------------------------------------
 Cartesian Forces:  Max     0.014920780 RMS     0.004236915

 GradGradGradGradGradGradGradGradGradGradGradGradGradGradGradGradGradGrad
 Berny optimization.
 Using GEDIIS/GDIIS optimizer.
 FormGI is forming the generalized inverse of G from B-inverse, IUseBI=4.
 Internal  Forces:  Max     0.042495405 RMS     0.006315544
 Search for a local minimum.
 Step number   2 out of a maximum of  125
 All quantities printed in internal units (Hartrees-Bohrs-Radians)
 Mixed Optimization -- RFO/linear search
 Update second derivatives using D2CorX and points    1    2
 DE= -1.32D-02 DEPred=-7.90D-02 R= 1.68D-01
 Trust test= 1.68D-01 RLast= 3.77D-01 DXMaxT set to 3.00D-01
 ITU=  0  0
 Use linear search instead of GDIIS.
     Eigenvalues ---    0.00439   0.00516   0.00951   0.01338   0.01837
     Eigenvalues ---    0.02066   0.02213   0.02243   0.02246   0.02249
     Eigenvalues ---    0.02250   0.02251   0.02252   0.02254   0.02260
     Eigenvalues ---    0.02497   0.05608   0.05774   0.05915   0.06214
     Eigenvalues ---    0.07527   0.10292   0.10651   0.15986   0.15997
     Eigenvalues ---    0.15999   0.16000   0.16000   0.16000   0.16000
     Eigenvalues ---    0.16000   0.16000   0.16000   0.16000   0.16576
     Eigenvalues ---    0.20053   0.21999   0.22003   0.23504   0.24887
     Eigenvalues ---    0.24980   0.25000   0.25000   0.29762   0.30472
     Eigenvalues ---    0.34334   0.34780   0.34897   0.34914   0.34967
     Eigenvalues ---    0.35026   0.35437   0.35628   0.35640   0.35708
     Eigenvalues ---    0.35748   0.35846   0.41451   0.42945   0.43065
     Eigenvalues ---    0.43800   0.47593   0.47673   0.47721   0.47780
     Eigenvalues ---    0.48176   0.57424   0.91612   1.06578
 RFO step:  Lambda=-1.33364582D-02 EMin= 4.38718707D-03
 Quartic linear search produced a step of -0.48008.
 Iteration  1 RMS(Cart)=  0.21110218 RMS(Int)=  0.02134342
 Iteration  2 RMS(Cart)=  0.12208929 RMS(Int)=  0.00230732
 Iteration  3 RMS(Cart)=  0.00417117 RMS(Int)=  0.00064212
 Iteration  4 RMS(Cart)=  0.00000583 RMS(Int)=  0.00064211
 Iteration  5 RMS(Cart)=  0.00000000 RMS(Int)=  0.00064211
 Variable       Old X    -DE/DX   Delta X   Delta X   Delta X     New X
                                 (Linear)    (Quad)   (Total)
    R1        2.25981   0.00259   0.00092  -0.00110  -0.00019   2.25962
    R2        2.53098   0.00324  -0.00033   0.00370   0.00337   2.53435
    R3        2.91899  -0.00699  -0.01769   0.02525   0.00756   2.92654
    R4        2.69948   0.00026  -0.00156   0.00389   0.00233   2.70181
    R5        2.06687   0.00010   0.00039  -0.00071  -0.00031   2.06656
    R6        2.86777   0.00105   0.00121  -0.00082   0.00040   2.86816
    R7        2.68900  -0.01359  -0.01423   0.01729   0.00305   2.69205
    R8        2.05697   0.00054  -0.00031   0.00146   0.00115   2.05812
    R9        2.05743   0.00028  -0.00007   0.00055   0.00048   2.05791
   R10        2.05905  -0.00150   0.00061  -0.00352  -0.00292   2.05614
   R11        2.62956  -0.02693  -0.01241   0.00138  -0.01104   2.61852
   R12        2.05882   0.00006  -0.00019   0.00051   0.00032   2.05914
   R13        2.05052   0.00019  -0.00039   0.00113   0.00074   2.05126
   R14        2.05744  -0.00029   0.00034  -0.00117  -0.00083   2.05660
   R15        2.62950  -0.00360  -0.00350   0.00412   0.00061   2.63011
   R16        2.62592  -0.00120  -0.00166   0.00249   0.00081   2.62674
   R17        2.62452  -0.00064  -0.00153   0.00280   0.00127   2.62579
   R18        2.02222   0.00974   0.01039  -0.00908   0.00131   2.02352
   R19        2.62072  -0.00212   0.00088  -0.00422  -0.00335   2.61737
   R20        2.04499  -0.00015  -0.00010   0.00001  -0.00009   2.04489
   R21        2.61893   0.00125   0.00262  -0.00467  -0.00204   2.61688
   R22        2.04588  -0.00019  -0.00022   0.00023   0.00000   2.04588
   R23        2.61696   0.00520   0.00269  -0.00047   0.00222   2.61918
   R24        2.04586  -0.00030   0.00030  -0.00109  -0.00079   2.04507
   R25        2.04380   0.00002  -0.00028   0.00065   0.00037   2.04417
    A1        2.12553   0.01175   0.01898  -0.01096   0.00417   2.12971
    A2        2.15256   0.00298   0.01765  -0.02628  -0.01238   2.14017
    A3        2.00371  -0.01458  -0.03619   0.04468   0.00469   2.00840
    A4        2.01763   0.00061  -0.00274   0.00661   0.00387   2.02150
    A5        1.91454  -0.00281  -0.01690  -0.01417  -0.03193   1.88261
    A6        1.85283   0.01524   0.02893   0.00834   0.03705   1.88988
    A7        1.98244  -0.01449  -0.02593   0.00052  -0.02568   1.95676
    A8        1.92163  -0.00267   0.00131   0.02968   0.03118   1.95281
    A9        1.94684   0.00103  -0.00468  -0.02897  -0.03417   1.91267
   A10        1.84147   0.00490   0.01937   0.00933   0.02856   1.87003
   A11        1.92798   0.00058  -0.00012   0.00143   0.00132   1.92930
   A12        1.90798  -0.00002   0.00023   0.00031   0.00054   1.90851
   A13        1.91203  -0.00066  -0.00032  -0.00174  -0.00206   1.90996
   A14        1.90876  -0.00017  -0.00005  -0.00002  -0.00007   1.90869
   A15        1.90806  -0.00067   0.00096  -0.00494  -0.00398   1.90409
   A16        1.89877   0.00095  -0.00071   0.00503   0.00431   1.90308
   A17        2.23248  -0.04250  -0.10032   0.11225   0.01193   2.24441
   A18        1.91832  -0.00134   0.00232  -0.00761  -0.00529   1.91303
   A19        1.85148  -0.00014  -0.00078   0.00054  -0.00025   1.85123
   A20        1.92667   0.00117  -0.00109   0.00544   0.00435   1.93102
   A21        1.93147  -0.00011   0.00043  -0.00138  -0.00096   1.93050
   A22        1.90374   0.00072  -0.00123   0.00452   0.00329   1.90703
   A23        1.93192  -0.00033   0.00041  -0.00171  -0.00131   1.93061
   A24        2.18690  -0.01191  -0.05542   0.08491   0.02943   2.21633
   A25        2.01308   0.00401   0.04328  -0.07724  -0.03395   1.97914
   A26        2.08260   0.00791   0.01195  -0.00803   0.00387   2.08648
   A27        2.09108  -0.00308  -0.00417   0.00072  -0.00348   2.08759
   A28        2.08352   0.00207  -0.00680   0.01508   0.00824   2.09176
   A29        2.10845   0.00101   0.01100  -0.01558  -0.00462   2.10383
   A30        2.10184  -0.00474  -0.00816   0.00511  -0.00308   2.09877
   A31        2.07929   0.00089   0.00476  -0.00809  -0.00332   2.07597
   A32        2.10186   0.00386   0.00340   0.00310   0.00651   2.10837
   A33        2.10925  -0.00088  -0.00320   0.00455   0.00136   2.11060
   A34        2.08223  -0.00022   0.00133  -0.00384  -0.00253   2.07969
   A35        2.09169   0.00110   0.00187  -0.00065   0.00120   2.09289
   A36        2.10137   0.00002  -0.00068   0.00264   0.00195   2.10332
   A37        2.08595  -0.00066   0.00074  -0.00390  -0.00316   2.08278
   A38        2.09583   0.00064  -0.00007   0.00130   0.00123   2.09706
   A39        2.08020   0.00077   0.00426  -0.00490  -0.00063   2.07957
   A40        2.10195  -0.00069  -0.00237   0.00189  -0.00049   2.10146
   A41        2.10103  -0.00009  -0.00190   0.00301   0.00109   2.10213
    D1        0.51505  -0.01002   0.00422  -0.16324  -0.15956   0.35548
    D2       -2.68126  -0.00710   0.01527  -0.01704  -0.00122  -2.68248
    D3        2.54170   0.00648   0.00983  -0.00909   0.00027   2.54196
    D4        0.46594   0.00246   0.00124  -0.04156  -0.04044   0.42550
    D5       -1.54964  -0.00529  -0.02557  -0.05834  -0.08423  -1.63386
    D6       -0.54424   0.00320  -0.00142  -0.15843  -0.15972  -0.70396
    D7       -2.61999  -0.00082  -0.01001  -0.19090  -0.20043  -2.82042
    D8        1.64762  -0.00857  -0.03682  -0.20768  -0.24421   1.40340
    D9        1.05425   0.00025  -0.00051  -0.00225  -0.00277   1.05148
   D10       -3.14025  -0.00069   0.00079  -0.00768  -0.00688   3.13606
   D11       -1.04648  -0.00053   0.00022  -0.00644  -0.00621  -1.05269
   D12        1.03075   0.00317   0.00092  -0.00607  -0.00499   1.02576
   D13        3.13191   0.00331   0.00093  -0.00501  -0.00391   3.12800
   D14       -1.07214   0.00405   0.00000   0.00026   0.00043  -1.07171
   D15       -1.04034  -0.00085   0.00341  -0.00976  -0.00641  -1.04675
   D16        1.06082  -0.00071   0.00342  -0.00869  -0.00533   1.05550
   D17        3.13995   0.00004   0.00249  -0.00342  -0.00098   3.13897
   D18        3.13990  -0.00352  -0.00345   0.00336  -0.00020   3.13969
   D19       -1.04213  -0.00338  -0.00344   0.00443   0.00088  -1.04125
   D20        1.03700  -0.00263  -0.00436   0.00970   0.00522   1.04222
   D21       -1.72971   0.01113   0.07627   0.28270   0.35869  -1.37102
   D22        0.44485  -0.00313   0.03257   0.24085   0.27401   0.71886
   D23        2.53120  -0.00280   0.04358   0.26657   0.30984   2.84104
   D24        0.47709  -0.00186   0.02227   0.05531   0.07758   0.55468
   D25       -2.70202  -0.00120   0.01751   0.04336   0.06086  -2.64115
   D26        3.09440   0.00089  -0.00187  -0.00093  -0.00333   3.09107
   D27       -0.06467   0.00128   0.00025   0.01287   0.01278  -0.05189
   D28       -0.00830   0.00031   0.00229   0.01271   0.01500   0.00670
   D29        3.11581   0.00070   0.00441   0.02651   0.03111  -3.13626
   D30       -3.10413  -0.00011   0.00316   0.00012   0.00275  -3.10138
   D31        0.01664   0.00023   0.00324   0.00683   0.00959   0.02623
   D32        0.00235   0.00006  -0.00322  -0.00880  -0.01193  -0.00959
   D33        3.12311   0.00040  -0.00315  -0.00209  -0.00509   3.11802
   D34        0.00889  -0.00048   0.00011  -0.00786  -0.00784   0.00105
   D35       -3.14003  -0.00002   0.00022   0.00082   0.00102  -3.13901
   D36       -3.11497  -0.00089  -0.00189  -0.02218  -0.02419  -3.13916
   D37        0.01930  -0.00042  -0.00179  -0.01351  -0.01533   0.00396
   D38        0.00319  -0.00028   0.00171  -0.00007   0.00153   0.00472
   D39        3.13517   0.00015   0.00060   0.00422   0.00481   3.13998
   D40       -3.11730  -0.00058   0.00162  -0.00673  -0.00532  -3.12262
   D41        0.01467  -0.00016   0.00051  -0.00244  -0.00204   0.01264
   D42       -0.00335   0.00023  -0.00165  -0.00101  -0.00258  -0.00592
   D43        3.14038   0.00020  -0.00017   0.00324   0.00313  -3.13968
   D44       -3.13757  -0.00023  -0.00176  -0.00972  -0.01149   3.13413
   D45        0.00616  -0.00026  -0.00028  -0.00547  -0.00579   0.00037
   D46       -0.00270   0.00013   0.00070   0.00498   0.00573   0.00303
   D47        3.13676   0.00016  -0.00078   0.00074   0.00002   3.13678
[...]
 .05605877,-0.22699835,0.43909496,0.00059995,0.00090390,-0.00071404,-0.
 00024027,-0.00069695,0.00066933,-0.00014902,-0.00029086,-0.00003239,0.
 00263316,0.00074234,-0.00296398,0.00053650,-0.00036283,0.00005580,0.00
 077084,-0.00118418,0.00069970,0.00035296,-0.00000028,-0.00043348,0.000
 00249,0.00005488,0.00004770,-0.00007448,-0.00001157,-0.00002160,0.0261
 4429,-0.02794475,0.01232156,0.00007527,0.00017654,-0.00008037,0.000003
 34,-0.00003142,0.00001573,-0.00002488,0.00000643,0.00002856,-0.0000260
 1,-0.00002419,-0.00000439,-0.05731584,0.09752493,-0.14511043,-0.018600
 09,0.02427350,-0.00167036,-0.17192908,-0.16093587,0.66398676,-0.002407
 48,0.00084535,0.00058268,0.00045432,-0.00010636,-0.00009321,0.00073508
 ,-0.00086869,-0.00085121,-0.00074015,0.00112268,-0.00001786,-0.0002018
 9,0.00043662,0.00029181,0.00005815,0.00012284,0.00003861,-0.00000436,-
 0.00002721,-0.00002008,0.00005528,-0.00004526,-0.00001961,-0.00000806,
 -0.00004074,-0.00001133,0.00205356,0.00613403,-0.00345038,0.00031749,0
 .00042279,0.00012409,-0.00001678,-0.00006924,-0.00002331,-0.00002532,-
 0.00002325,-0.00001399,-0.00003748,0.00012379,0.00006636,0.01470726,-0
 .04999204,0.06483714,-0.21602622,0.09577555,0.08182649,-0.04810777,0.0
 3528288,0.00807421,0.46827247,0.00071423,-0.00037712,0.00053941,0.0000
 6506,-0.00004156,-0.00038403,-0.00028379,0.00036787,0.00022032,0.00175
 163,-0.00115557,0.00057493,0.00046035,-0.00069129,-0.00078661,-0.00011
 482,0.00020694,0.00003729,-0.00006872,-0.00001254,0.00001286,0.0000259
 7,0.00000833,-0.00004903,-0.00000176,0.00002137,-0.00004517,0.00396012
 ,-0.00108069,0.00768418,-0.00010053,-0.00008960,-0.00001661,0.00001796
 ,0.00002028,0.00000784,0.00000069,0.00001129,0.00001190,-0.00000565,-0
 .00000749,-0.00001338,-0.02506383,0.04716943,-0.03564819,0.06562792,-0
 .12231114,0.00004847,0.03650864,-0.03416512,-0.00810894,-0.22425126,0.
 45620346,-0.00026588,-0.00041111,-0.00088510,-0.00001556,0.00021942,0.
 00039472,0.00019719,0.00032199,0.00040820,-0.00085148,0.00065418,0.000
 26861,0.00055911,-0.00009399,0.00002568,0.00041999,-0.00024913,0.00029
 398,0.00004487,-0.00002305,-0.00004765,-0.00008926,-0.00000189,0.00002
 042,-0.00012958,0.00006111,0.00013152,0.00058054,0.00439129,-0.0008696
 7,-0.00016481,-0.00028229,-0.00005903,-0.00000775,0.00002347,0.0000009
 4,0.00002777,0.00001057,0.00000727,-0.00000116,-0.00004383,-0.00001208
 ,0.02266439,0.00333204,-0.03846734,0.13181065,-0.04657420,-0.18716464,
 0.00636500,-0.00635352,-0.00409290,-0.13759753,-0.17769604,0.64537979,
 0.00159851,0.00061831,0.00054940,-0.00074793,-0.00001161,0.00011597,-0
 .00095715,-0.00007553,-0.00007235,-0.00194739,-0.00037684,0.00166089,-
 0.00207234,0.00048932,0.00231321,0.00014026,-0.00031087,0.00013722,0.0
 0006007,0.00002567,-0.00003392,-0.00003353,-0.00000197,0.00005773,-0.0
 0004562,-0.00003091,0.00001647,-0.00150276,-0.00039892,-0.00149670,0.0
 0002290,0.00002722,-0.00019949,-0.00001379,0.00000150,0.00005589,-0.00
 001914,-0.00001010,0.00003068,-0.00004999,-0.00013773,-0.00002566,0.00
 667926,-0.00360718,0.00111388,-0.14323950,0.13266884,-0.05085820,0.002
 60862,0.00128639,0.00247355,-0.00984440,0.01698577,-0.00939492,0.15092
 636,0.00147460,0.00052341,-0.00322935,-0.00003917,-0.00116309,0.000612
 09,0.00026732,-0.00001366,0.00062374,0.00084285,-0.00034869,-0.0007679
 1,-0.00068156,0.00018561,-0.00025269,-0.00053374,0.00002422,-0.0005078
 5,0.00000532,-0.00000755,0.00006128,-0.00000821,-0.00000030,0.00002551
 ,0.00020362,-0.00000511,-0.00016451,-0.00096810,-0.00148822,-0.0011097
 8,-0.00008226,-0.00008723,-0.00009403,-0.00001475,0.00002033,0.0000191
 8,-0.00000792,-0.00000658,0.00002766,-0.00003970,-0.00000860,0.0000449
 1,0.00827055,-0.00513602,0.00215029,0.13216162,-0.20569343,0.08027150,
 0.00108749,0.00251171,0.00355428,0.00489465,-0.00445549,0.00411323,-0.
 14790322,0.21341045,0.00086606,-0.00206955,-0.00309580,-0.00017988,0.0
 0017272,0.00044206,0.00033307,0.00036389,0.00036537,0.00018109,0.00051
 951,-0.00194917,0.00105526,0.00013423,0.00000095,0.00016106,-0.0002210
 4,0.00001097,0.00003028,0.00001932,-0.00000629,-0.00009433,-0.00000114
 ,0.00006826,-0.00005262,0.00003086,0.00008089,-0.00055153,-0.00220184,
 0.00141323,-0.00022006,-0.00033970,-0.00007770,0.00001165,0.00004234,0
 .00000304,0.00003290,0.00002723,0.00003217,-0.00000881,-0.00001094,-0.
 00001615,-0.01800719,0.02021911,-0.00188988,-0.05036205,0.07975569,-0.
 08927684,0.00275066,0.00335121,-0.00393926,0.01096734,-0.01490642,0.01
 016393,0.04964159,-0.08375272,0.08939130,0.00049329,-0.00010131,-0.000
 84130,-0.00006724,-0.00030169,0.00047989,-0.00014482,0.00020988,0.0005
 2889,-0.00024474,0.00116548,0.00077996,0.00062902,-0.00051688,-0.00007
 592,0.00003137,-0.00003334,0.00011156,0.00000238,-0.00005186,-0.000004
 81,-0.00008483,0.00001712,0.00002147,-0.00006942,0.00005681,0.00004907
 ,0.00603647,0.00018731,-0.00134724,-0.00005186,-0.00003009,-0.00009323
 ,0.00001427,-0.00000348,0.00001131,0.00001132,0.00003183,0.00002237,-0
 .00001007,-0.00004981,-0.00002168,-0.03566652,0.04770697,-0.02046030,-
 0.02304360,-0.00167971,0.03045895,-0.22935438,0.07178327,0.14361314,0.
 03848753,-0.01654561,-0.02108110,-0.00037281,-0.00078635,0.00079026,0.
 50001904,-0.00007733,0.00017020,0.00018582,0.00003867,0.00010899,-0.00
 020362,-0.00010469,-0.00002449,-0.00008824,0.00172781,0.00021789,-0.00
 010764,0.00001527,-0.00011121,-0.00010212,0.00017356,-0.00029940,0.000
 14462,0.00006017,-0.00000482,-0.00011561,0.00002698,0.00000336,-0.0000
 0067,0.00000190,-0.00001588,-0.00003515,0.00269258,-0.00080517,0.00493
 386,0.00000508,0.00001189,0.00001035,-0.00000528,-0.00000293,-0.000001
 10,-0.00000333,-0.00001197,-0.00001405,0.00001055,0.00000633,0.0000049
 0,0.02166815,-0.00713740,-0.01749197,-0.00410181,-0.00364808,0.0041546
 0,0.10202215,-0.12554619,-0.04821100,0.00784036,-0.01657271,0.02707821
 ,-0.00059583,0.00011296,-0.00037968,-0.26157243,0.47840872,-0.00188226
 ,0.00003242,0.00082601,0.00033121,0.00052057,-0.00053582,0.00062497,-0
 .00026363,-0.00048941,0.00006770,0.00070740,0.00082262,-0.00060714,0.0
 0053302,0.00033307,-0.00024496,0.00042161,-0.00037286,-0.00013525,0.00
 002251,0.00011865,0.00008618,-0.00006512,-0.00002446,0.00008464,-0.000
 05491,-0.00003782,-0.00630438,0.00905578,-0.00132378,0.00005266,0.0000
 4211,0.00004859,-0.00000884,-0.00000814,-0.00001332,-0.00000263,-0.000
 00746,0.00000696,-0.00000657,0.00005081,0.00000553,0.02315434,-0.05760
 839,0.06306241,0.03469887,0.00036108,-0.05885322,0.09371361,-0.0017482
 5,-0.20160145,-0.06144733,0.06493075,-0.00516675,0.00056129,-0.0001612
 3,-0.00139417,-0.12598083,-0.15840893,0.59519564,0.00043446,0.00008445
 ,0.00000829,-0.00012956,-0.00015592,0.00008093,-0.00019254,-0.00006729
 ,-0.00004289,-0.00042378,-0.00020376,-0.00016865,0.00002593,0.00002771
 ,0.00001527,0.00002112,-0.00002233,0.00002273,0.00002440,-0.00001354,0
 .00000525,-0.00005495,0.00001102,-0.00000495,-0.00000438,0.00002608,0.
 00001379,-0.00019089,-0.00247559,-0.00092613,0.00003858,0.00001652,0.0
 0001081,-0.00000930,-0.00000173,0.00000030,-0.00000761,-0.00001722,-0.
 00000732,-0.00000477,-0.00001425,0.00000173,0.00743638,0.00815697,-0.0
 1646536,-0.00013378,0.00469051,0.00010656,-0.05682153,-0.00865733,0.04
 670848,-0.00116782,0.00040459,-0.00001835,0.00017783,0.00039193,-0.000
 88398,0.00086951,-0.01084050,0.02047899,0.05157923,0.00023285,-0.00010
 809,0.00033520,-0.00004669,0.00013288,-0.00021150,-0.00012963,0.000080
 39,-0.00014915,-0.00009835,-0.00041040,-0.00036104,-0.00020549,0.00018
 066,-0.00008766,-0.00000360,0.00002353,0.00000495,-0.00000974,0.000018
 73,0.00000286,0.00001811,0.00000268,-0.00000044,0.00002735,-0.00004052
 ,-0.00002433,-0.00268953,-0.00007499,-0.00128236,-0.00002937,-0.000056
 77,0.00003780,-0.00000101,0.00001142,-0.00000485,-0.00000803,-0.000018
 91,-0.00000439,0.00000620,0.00001479,-0.00000667,-0.00458529,-0.003863
 44,0.02273112,0.00505868,-0.00105575,0.00210990,-0.00770825,-0.0939749
 0,0.10877487,0.00061699,-0.00083504,-0.00076456,-0.00030830,-0.0003164
 2,0.00104674,0.00113611,0.00798791,-0.01089964,0.00663940,0.09055653,0
 .00019987,-0.00003749,-0.00005294,-0.00005838,-0.00007572,0.00006803,-
 0.00005073,-0.00000084,0.00002609,-0.00036528,-0.00015534,0.00006921,0
 .00003179,0.00000705,0.00000559,0.00000202,0.00005543,-0.00002609,-0.0
 0000911,0.00000091,0.00001447,-0.00002025,0.00000661,0.00000213,-0.000
 00129,-0.00000354,0.00000392,-0.00040026,-0.00173729,0.00009687,0.0000
 0277,-0.00000200,-0.00000975,-0.00000149,0.00000013,0.00000336,-0.0000
 0117,-0.00000039,0.00000091,-0.00000137,-0.00001005,-0.00000066,0.0044
 5083,0.00312471,-0.00657971,-0.00044052,0.00257757,0.00135302,0.045307
 20,0.11018423,-0.28927545,-0.00035450,-0.00044541,0.00054923,0.0002157
 1,0.00000936,-0.00030931,0.00058010,0.00762435,-0.01107789,-0.05209346
 ,-0.11964977,0.30461567,-0.00011919,-0.00065019,-0.00053573,0.00008676
 ,0.00041188,0.00008992,0.00029541,0.00050199,0.00037423,0.00117450,-0.
 00133716,0.00053975,0.00012795,-0.00002659,-0.00027277,0.00005578,0.00
 002706,0.00002533,-0.00003967,0.00002537,0.00001926,0.00000259,0.00000
 491,0.00000822,-0.00002898,0.00000327,0.00002757,-0.00349821,0.0004027
 1,0.00326446,-0.00030994,-0.00033508,0.00001782,0.00004986,0.00005845,
 -0.00002426,0.00002546,0.00004118,0.00004232,-0.00000520,0.00006320,-0
 .00004376,-0.00661997,0.01271229,-0.02054114,-0.03136778,0.02429041,0.
 02017476,0.01164575,-0.01797399,0.02355029,-0.18346416,0.14174360,-0.0
 4804666,0.00029777,0.00358990,0.00472076,-0.10867072,0.00106792,0.0699
 5793,-0.00012135,0.00469086,0.00439417,0.51211195,-0.00086517,0.000582
 76,0.00066724,0.00009187,-0.00000784,-0.00022053,0.00014158,-0.0004885
 0,-0.00054028,-0.00041270,0.00081484,-0.00022677,-0.00047466,0.0003627
 3,0.00026110,-0.00010851,0.00007267,-0.00016144,-0.00000655,0.00000095
 ,0.00001106,0.00005147,-0.00002718,-0.00000408,0.00006148,-0.00003712,
 -0.00004809,-0.00148498,0.00164789,-0.00297494,0.00017031,0.00018799,0
 .00004105,-0.00002101,-0.00003389,0.00000048,-0.00002249,-0.00001942,-
 0.00001011,-0.00000702,0.00001208,0.00002716,0.01379870,-0.04298991,0.
 04061345,0.04815202,-0.00784316,-0.04828945,-0.04106784,0.04344424,0.0
 0374902,0.11133044,-0.22246652,0.09189587,0.00334767,0.00391343,0.0001
 4907,0.03156204,-0.13333997,0.06892272,0.00494344,0.00329738,-0.000239
 87,-0.25291648,0.44268145,0.00154454,0.00014437,-0.00056959,-0.0003127
 8,-0.00057992,0.00046257,-0.00059512,0.00015031,0.00046402,-0.00074068
 ,0.00090381,-0.00019886,0.00057894,-0.00060756,-0.00021562,0.00002389,
 -0.00018253,0.00015507,0.00006483,-0.00004066,-0.00004527,-0.00008778,
 0.00003791,0.00001568,-0.00004426,0.00006724,0.00001884,0.00621039,-0.
 00522011,-0.00134048,-0.00000889,-0.00003218,-0.00007603,-0.00000177,-
 0.00000081,0.00001351,-0.00000314,-0.00000069,0.00000147,-0.00000875,-
 0.00007255,-0.00001686,-0.02185130,0.04139658,-0.04142448,-0.01910650,
 -0.01175790,0.05637111,0.06140630,-0.03161841,-0.03501275,0.00228743,0
 .04476199,-0.14031892,0.00496460,-0.00015120,-0.00033861,0.01958357,0.
 11612143,-0.28443123,0.00403325,0.00012656,0.00133189,-0.17305737,-0.1
 2734255,0.60709111,0.00009835,-0.00021868,0.00018233,-0.00000816,0.000
 13702,-0.00017853,-0.00006359,0.00006227,-0.00004592,0.00031937,-0.000
 37610,0.00005365,-0.00004379,0.00003369,0.00000387,-0.00002556,0.00006
 582,-0.00002884,-0.00002455,0.00001230,0.00001546,0.00001548,-0.000002
 41,-0.00000158,0.00000679,-0.00001003,-0.00000669,-0.00051629,-0.00043
 847,0.00143423,-0.00000777,-0.00000609,0.00000335,-0.00000159,0.000005
 24,0.00000442,0.00000264,0.00000040,-0.00000985,0.00001800,-0.00000439
 ,0.00000541,-0.00015892,0.00483039,0.00373850,0.00036292,-0.00998485,0
 .02130687,-0.00122642,0.00022025,-0.00007061,-0.05661549,-0.00724772,0
 .04054167,-0.00093275,-0.00206939,-0.00154779,0.00094378,0.00592865,0.
 00036865,-0.00027229,-0.00041071,-0.00022259,0.00710797,0.00732507,-0.
 01760266,0.05195695,0.00010005,0.00008318,-0.00007338,-0.00004695,-0.0
 0006819,0.00006487,-0.00004973,-0.00003347,0.00002968,-0.00015406,0.00
 009437,-0.00003116,0.00000214,0.00001859,0.00004018,0.00002598,-0.0000
 2244,0.00002181,0.00001109,-0.00000132,-0.00000654,-0.00000707,-0.0000
 0056,0.00000566,-0.00000476,0.00000359,0.00000649,0.00015918,0.0002185
 7,-0.00069540,0.00002678,0.00002940,-0.00003924,-0.00000815,-0.0000030
 4,0.00000977,-0.00000207,-0.00000356,0.00000277,-0.00000205,-0.0000189
 5,0.00000202,0.00459711,0.00307734,0.00008256,0.00215914,0.00770369,-0
 .01039638,0.00033541,-0.00082625,-0.00079547,-0.00736337,-0.09875114,0
 .11189990,-0.00225382,-0.00137985,-0.00110133,0.00611677,0.00005677,0.
 00283485,-0.00042123,-0.00035243,-0.00019148,-0.00506690,-0.00462267,0
 .02139342,0.00408585,0.09646456,0.00015918,0.00027758,-0.00003827,-0.0
 0006489,-0.00020085,0.00009823,-0.00012664,-0.00015703,-0.00001327,-0.
 00039446,0.00041533,-0.00012442,0.00000012,-0.00001814,0.00005036,0.00
 002842,-0.00006319,0.00002938,0.00002790,-0.00001100,-0.00001702,-0.00
 001654,0.00000270,0.00000299,-0.00000201,0.00001162,0.00000159,0.00050
 727,0.00013784,-0.00112135,0.00009345,0.00011558,-0.00005619,-0.000016
 46,-0.00001789,0.00001765,-0.00000753,-0.00000615,-0.00000331,0.000001
 20,-0.00003715,0.00000926,0.00404539,-0.00018456,0.00152315,0.00103347
 ,0.00850567,-0.01223530,-0.00015299,-0.00070466,0.00041189,0.04079949,
 0.11170092,-0.28595786,-0.00119750,-0.00140424,0.00003460,0.00000664,0
 .00315130,0.00223966,-0.00021150,-0.00020323,-0.00019656,0.00293607,0.
 00221993,-0.00458885,-0.04622139,-0.12246527,0.30040105,-0.00004909,-0
 .00014749,0.00002757,0.00002441,0.00009370,-0.00004434,0.00004199,0.00
 006732,0.00000655,-0.00003946,-0.00033862,0.00023404,-0.00003671,0.000
 04864,-0.00002476,-0.00007150,0.00011039,-0.00007254,-0.00003792,0.000
 00191,0.00003967,0.00000222,-0.00000588,-0.00000128,0.00000770,-0.0000
 0405,0.00000227,-0.00102508,0.00130737,-0.00034141,-0.00002600,-0.0000
 3922,-0.00000166,-0.00000008,0.00000818,-0.00000044,0.00000528,0.00000
 136,-0.00000080,0.00000358,0.00000475,0.00000132,0.00147531,0.00350573
 ,0.00497931,-0.00061398,-0.00064310,0.00053407,-0.00944023,0.01743805,
 -0.00903882,0.00360542,0.00167202,0.00260267,-0.00035623,-0.00035221,-
 0.00029577,-0.14944953,0.13267025,-0.04787201,-0.00108978,-0.00243625,
 -0.00120020,0.00641026,-0.00436355,0.00225314,0.00015994,-0.00025096,0
 .00017080,0.15157118,0.00016423,0.00008364,0.00008324,-0.00003363,-0.0
 0009082,-0.00001222,-0.00010733,-0.00008434,-0.00007215,-0.00021267,0.
 00009923,-0.00020863,-0.00000824,-0.00000146,0.00002119,0.00001189,-0.
 00005882,0.00001539,0.00001530,-0.00000681,-0.00001417,-0.00000800,0.0
 0000442,0.00000264,0.00000044,0.00000217,-0.00000472,0.00064609,-0.000
 59982,0.00012583,0.00005476,0.00005267,0.00002208,-0.00000653,-0.00000
 920,-0.00000030,-0.00000479,-0.00000833,-0.00001029,-0.00000017,-0.000
 00419,0.00000563,0.00365473,0.00466663,0.00064664,-0.00071889,-0.00000
 041,-0.00049114,0.00501540,-0.00403315,0.00456269,0.00147841,0.0031577
 6,0.00420453,-0.00035368,-0.00045529,-0.00023597,0.13285754,-0.2067292
 2,0.07315418,-0.00211417,-0.00157651,-0.00151434,0.00799675,-0.0053520
 4,0.00181772,0.00039271,-0.00039855,0.00005824,-0.14679255,0.21257903,
 0.00008237,0.00007275,0.00000625,-0.00002533,-0.00005290,0.00002319,-0
 .00004182,-0.00004515,-0.00003215,0.00003823,-0.00002827,-0.00025845,-
 0.00000523,0.00001671,0.00001865,0.00004434,-0.00008232,0.00003111,0.0
 0002319,-0.00000377,-0.00002443,-0.00000348,0.00000260,0.00000447,-0.0
 0000192,-0.00000156,-0.00000123,0.00062143,-0.00085889,0.00049697,0.00
 002234,0.00001684,-0.00000230,-0.00000480,-0.00000358,0.00000228,-0.00
 000336,-0.00000525,-0.00000126,-0.00000181,-0.00000563,0.00000153,0.00
 479730,0.00084953,-0.00031623,0.00063373,-0.00055873,-0.00102620,0.011
 49535,-0.01460455,0.00976407,0.00295835,0.00387389,-0.00389973,-0.0002
 9576,-0.00023897,-0.00007591,-0.04816724,0.07347969,-0.08560812,-0.001
 73145,-0.00103381,-0.00006793,-0.01818915,0.02087057,-0.00326758,-0.00
 090203,0.00106222,-0.00034944,0.04946876,-0.08110680,0.08431129,0.0000
 8061,-0.00008506,-0.00012149,-0.00004288,0.00003726,0.00006211,0.00000
 484,0.00006301,0.00004688,-0.00014325,-0.00009474,-0.00014681,-0.00001
 542,0.00006217,0.00006388,0.00000996,-0.00001743,-0.00000650,0.0000017
 3,0.00000790,0.00000270,-0.00000665,0.00000004,0.00000874,-0.00000060,
 -0.00000496,0.00000843,-0.00020298,-0.00037959,-0.00015535,-0.00002525
 ,-0.00004521,-0.00001235,-0.00000197,0.00000633,0.00000123,0.00000372,
 -0.00000173,0.00000082,0.00000086,-0.00000673,-0.00000223,0.00000109,-
 0.00006564,-0.00074223,0.00199200,0.00539463,-0.00034812,0.00385487,0.
 00180605,0.00193063,-0.01007918,0.00374513,0.01185019,-0.00037626,0.00
 029673,0.00066204,-0.00030746,0.00135114,0.00031118,0.00001686,0.00024
 368,0.00003615,-0.20514682,0.08077489,0.13047011,-0.00109501,-0.001988
 38,-0.00139751,-0.00107170,-0.00192758,-0.00081200,0.21254888,0.000203
 71,0.00005814,0.00012412,-0.00004471,-0.00003934,-0.00005816,-0.000115
 12,-0.00004231,-0.00004462,-0.00006555,-0.00013942,-0.00007652,-0.0001
 0832,0.00002545,0.00000489,-0.00004627,0.00000287,-0.00003813,0.000002
 87,0.00000377,0.00000593,0.00000284,0.00000322,-0.00000113,0.00002013,
 -0.00000576,-0.00001596,-0.00042717,-0.00016519,-0.00030253,0.00004119
 ,0.00005345,0.00000497,-0.00000522,-0.00000598,0.00000302,-0.00000279,
 -0.00000539,-0.00001200,0.00000768,-0.00000544,0.00000735,-0.00002084,
 -0.00101349,0.00086059,0.00508424,0.00038452,0.00394022,0.00211769,0.0
 0247389,0.00427493,0.01636003,-0.00415370,-0.01571221,0.00092579,-0.00
 013661,-0.00061160,-0.01115857,0.00716443,0.00763590,-0.00038776,0.000
 37727,0.00047318,0.08067464,-0.07979021,-0.04931429,-0.00233081,-0.001
 26766,-0.00112337,-0.00155580,-0.00123662,-0.00161464,-0.08917188,0.07
 746011,0.00011576,0.00002697,-0.00007131,-0.00003753,-0.00004704,0.000
 05155,-0.00004786,-0.00002796,0.00001486,-0.00013906,-0.00000872,-0.00
 008899,-0.00000361,0.00001020,0.00003302,0.00001327,-0.00003339,0.0000
 0294,0.00001098,-0.00000076,-0.00000274,-0.00001175,0.00000409,0.00000
 314,-0.00000188,0.00000492,0.00000335,-0.00008271,-0.00044364,0.000122
 56,0.00002290,0.00002848,-0.00000070,-0.00000301,-0.00000440,0.0000016
 7,0.00000076,-0.00000065,-0.00000651,0.00000237,-0.00000717,0.00000473
 ,-0.00079616,0.00092294,-0.00085356,0.00006764,0.00352207,0.00161319,0
 .00146151,0.00474389,-0.00304827,-0.00895365,0.00369507,0.00929740,-0.
 00033354,0.00032145,0.00036232,0.02103646,-0.01172936,-0.01172884,0.00
 106764,-0.00048661,-0.00054408,0.13056799,-0.04937060,-0.15408013,-0.0
 0081990,-0.00166057,-0.00011798,-0.00142614,-0.00104926,0.00027113,-0.
 14171048,0.05159005,0.15876127\\-0.00003509,0.00000184,-0.00001304,0.0
 0000902,-0.00000488,0.00000359,0.00000969,0.00000536,0.00001231,0.0000
 3041,-0.00000938,0.00000729,-0.00000499,0.00000117,0.00000080,-0.00001
 695,0.00000610,0.00000630,0.00000539,-0.00000619,0.00000515,0.00000742
 ,-0.00000602,0.00000610,0.00000265,-0.00000136,0.00000338,-0.00000035,
 -0.00000116,-0.00001088,-0.00000218,-0.00001265,-0.00000837,-0.0000013
 8,0.00000214,0.00000435,0.00000221,0.00000354,-0.00000297,-0.00000281,
 0.00000446,-0.00000040,-0.00000078,0.00000704,-0.00000291,-0.00000405,
 -0.00000615,0.00001261,0.00000368,-0.00000158,0.00000194,-0.00000635,0
 .00000411,-0.00000288,-0.00000216,0.00000503,-0.00000095,0.00000109,-0
 .00000127,-0.00000448,0.00000323,0.00000283,-0.00000305,0.00000175,0.0
 0000061,-0.00000215,-0.00000288,0.00000087,-0.00000263,0.00000448,0.00
 000253,-0.00000462,-0.00000105,0.00000302,-0.00000448\\\@


 IN THE UNIVERSE THE DIFFICULT THINGS ARE DONE AS IF THEY WERE EASY.

                                                          -- LAO-TSU
 Job cpu time:       0 days  6 hours 18 minutes  4.3 seconds.
 Elapsed time:       0 days  0 hours 10 minutes 31.0 seconds.
 File lengths (MBytes):  RWF=    442 Int=      0 D2E=      0 Chk=     19 Scr=      1
 Normal termination of Gaussian 16 at Tue Oct  8 10:12:15 2019.
