 Entering Gaussian System, Link 0=g16
 Initial command:
 /nopt/nrel/apps/gaussian/g16B/g16/l1.exe "/dev/shm/Gau-204315.inp" -scrdir="/dev/shm/"
 Default is to use a total of  36 processors:
                               36 via shared-memory
                                1 via Linda
 Entering Link 1 = /nopt/nrel/apps/gaussian/g16B/g16/l1.exe PID=    204316.
  
 Copyright (c) 1988-2017, Gaussian, Inc.  All Rights Reserved.
  
 ---------------------------------------------------------------

 Cite this work as:
 Gaussian 16, Revision B.01,
 
 ******************************************
 Gaussian 16:  ES64L-G16RevB.01 20-Dec-2017
                29-Aug-2019 
 ******************************************
 %RWF=/dev/shm/,5GB,/tmp/scratch/1285970/,-1
 %NoSave
 %Chk=/dev/shm/tieg5ipatse_ts_ircf_opt_noeg.chk
 Default route: CacheSize=180224 MaxDisk=256GB
 ----------------------------------------------------------------------
 # m062x/Def2TZVP nosymm scf=xqc freq=NoRaman CPHF=Grid=Fine SCRF=(Solv
 ent=1,2-EthaneDiol,Read)
 ----------------------------------------------------------------------
 1/4=180224,10=4,30=1,38=1,40=2/1,3;
 2/4=180224,12=2,15=1,17=6,18=5,40=1/2;
 3/4=180224,5=44,7=101,11=2,25=1,30=1,70=2203,71=2,72=30,74=-55,140=1/1,2,3;
 4/4=180224/1;
 5/4=180224,5=2,8=3,13=1,38=5,53=30,98=1/2,8;
 8/4=180224,6=4,10=90,11=11/1;
 11/4=180224,6=1,8=1,9=11,15=111,16=1,31=1/1,2,10;
 10/4=180224,6=1,31=1,60=4/2;
 6/4=180224,7=2,8=2,9=2,10=2,28=1/1;
 7/4=180224,8=1,10=1,25=1,30=1/1,2,3,16;
 1/4=180224,10=4,30=1/3;
 99/4=180224/99;
 ----------------------------------------------------------------------
 Last conformation from file complete/tieg5ipatse_ts_ircf_opt_noeg.log.
 o
 ----------------------------------------------------------------------
 Symbolic Z-matrix:
 Charge =  0 Multiplicity = 1
 O                     1.81266   1.23364   0.01112 
 Ti                    0.332     0.08573   1.15213 
 O                     1.46046  -1.38292   0.86692 
 O                    -0.17159   1.74133   1.77382 
 C                     0.45573   2.91149   2.19972 
 C                    -0.5897    3.97775   2.4891 
 C                     3.21382   0.99716  -0.06885 
 C                     3.91557   1.89864   0.93146 
 O                     5.28901   1.57289   1.03695 
 C                     2.04668  -2.0056    1.9765 
 C                     2.66059  -0.90884   2.83428 
 O                     1.74654   0.19762   2.79614 
 H                     3.41966  -0.0511    0.15539 
 H                     3.55954   1.20882  -1.08311 
 H                     3.77127   2.94669   0.65258 
 H                     3.47456   1.74946   1.91796 
 H                     1.28288  -2.54232   2.55355 
 H                     2.81254  -2.72121   1.66456 
 H                     2.82933  -1.22155   3.8643 
 H                     3.60105  -0.55567   2.40977 
 H                     1.04293   2.72324   3.11024 
 H                     1.15119   3.27708   1.43586 
 H                    -1.30109   3.60268   3.23253 
 H                    -1.14372   4.20169   1.57709 
 O                     0.00641   5.19133   2.91187 
 H                     0.42044   5.04798   3.7692 
 H                     5.73217   1.82136   0.21906 
 H                     1.18007   0.24107   3.60896 
 O                     0.37563   1.24911  -2.11955 
 C                    -0.53981   0.51273  -1.7455 
 O                    -0.62496   0.00936  -0.56438 
 C                    -1.61972   0.64104  -3.99223 
 C                    -1.64446   0.15277  -2.68803 
 C                    -2.63642   0.31728  -4.87705 
 C                    -2.68932  -0.65921  -2.27167 
 C                    -3.68298  -0.49476  -4.46346 
 C                    -3.70842  -0.98238  -3.1593 
 H                    -2.71473  -1.04111  -1.26056 
 C                    -4.8108   -1.85391  -2.67162 
 H                    -4.47919  -0.75045  -5.1485 
 O                    -4.88148  -2.29837  -1.55391 
 O                    -5.73436  -2.10311  -3.60614 
 H                    -6.41422  -2.67243  -3.21484 
 O                    -0.87724  -0.81875   2.15921 
 C                    -1.76356  -0.46689   3.18364 
 C                    -1.10933  -0.60534   4.54221 
 O                    -0.05207   0.34064   4.73223 
 H                     1.39594   1.34699  -0.89114 
 H                    -0.64873  -1.58864   4.63596 
 H                    -1.85541  -0.48701   5.33082 
 H                    -0.42732   1.23002   4.72757 
 H                    -2.10569   0.56697   3.04931 
 H                    -2.63697  -1.12513   3.14947 
 H                    -2.61534   0.69685  -5.88939 
 H                    -0.79801   1.27332  -4.30026 
 

 GradGradGradGradGradGradGradGradGradGradGradGradGradGradGradGradGradGrad
 Berny optimization.
 Initialization pass.
 Trust Radius=3.00D-01 FncErr=1.00D-07 GrdErr=1.00D-07 EigMax=2.50D+02 EigMin=1.00D-04
 Number of steps in this run=      2 maximum allowed number of steps=      2.
 GradGradGradGradGradGradGradGradGradGradGradGradGradGradGradGradGradGrad

 Symmetry turned off by external request.
 Stoichiometry    C16H26O12Ti
 Framework group  C1[X(C16H26O12Ti)]
 Deg. of freedom   159
 Full point group                 C1      NOp   1
                          Input orientation:                          
 ---------------------------------------------------------------------
 Center     Atomic      Atomic             Coordinates (Angstroms)
 Number     Number       Type             X           Y           Z
 ---------------------------------------------------------------------
      1          8           0        1.812658    1.233635    0.011120
      2         22           0        0.332003    0.085728    1.152130
      3          8           0        1.460459   -1.382918    0.866919
      4          8           0       -0.171592    1.741329    1.773815
      5          6           0        0.455726    2.911486    2.199723
      6          6           0       -0.589704    3.977748    2.489102
      7          6           0        3.213815    0.997160   -0.068854
      8          6           0        3.915565    1.898637    0.931463
      9          8           0        5.289005    1.572894    1.036950
     10          6           0        2.046684   -2.005604    1.976496
     11          6           0        2.660590   -0.908844    2.834283
     12          8           0        1.746538    0.197621    2.796144
     13          1           0        3.419655   -0.051098    0.155390
     14          1           0        3.559535    1.208822   -1.083114
     15          1           0        3.771266    2.946693    0.652577
     16          1           0        3.474562    1.749455    1.917961
     17          1           0        1.282876   -2.542322    2.553548
     18          1           0        2.812540   -2.721207    1.664558
     19          1           0        2.829328   -1.221552    3.864302
     20          1           0        3.601045   -0.555672    2.409770
     21          1           0        1.042934    2.723236    3.110242
     22          1           0        1.151194    3.277082    1.435856
     23          1           0       -1.301094    3.602680    3.232529
     24          1           0       -1.143724    4.201691    1.577088
     25          8           0        0.006410    5.191331    2.911874
     26          1           0        0.420440    5.047978    3.769204
     27          1           0        5.732174    1.821364    0.219059
     28          1           0        1.180068    0.241066    3.608956
     29          8           0        0.375629    1.249113   -2.119549
     30          6           0       -0.539812    0.512731   -1.745500
     31          8           0       -0.624957    0.009356   -0.564378
     32          6           0       -1.619721    0.641040   -3.992228
     33          6           0       -1.644459    0.152765   -2.688029
     34          6           0       -2.636421    0.317279   -4.877045
     35          6           0       -2.689317   -0.659214   -2.271674
     36          6           0       -3.682984   -0.494760   -4.463464
     37          6           0       -3.708419   -0.982379   -3.159301
     38          1           0       -2.714726   -1.041108   -1.260560
     39          6           0       -4.810798   -1.853913   -2.671622
     40          1           0       -4.479190   -0.750452   -5.148496
     41          8           0       -4.881481   -2.298369   -1.553906
     42          8           0       -5.734361   -2.103112   -3.606135
     43          1           0       -6.414222   -2.672433   -3.214837
     44          8           0       -0.877241   -0.818748    2.159211
     45          6           0       -1.763564   -0.466893    3.183641
     46          6           0       -1.109330   -0.605342    4.542208
     47          8           0       -0.052070    0.340642    4.732233
     48          1           0        1.395942    1.346993   -0.891142
     49          1           0       -0.648728   -1.588638    4.635964
     50          1           0       -1.855410   -0.487008    5.330821
     51          1           0       -0.427320    1.230019    4.727575
     52          1           0       -2.105692    0.566973    3.049309
     53          1           0       -2.636966   -1.125129    3.149465
     54          1           0       -2.615336    0.696846   -5.889392
     55          1           0       -0.798005    1.273320   -4.300261
 ---------------------------------------------------------------------
 Rotational constants (GHZ):           0.2015653           0.0842689           0.0773176
 Standard basis: def2TZVP (5D, 7F)
  1069 basis functions,  1738 primitive gaussians,  1216 cartesian basis functions
   120 alpha electrons      120 beta electrons
       nuclear repulsion energy      3597.7093669717 Hartrees.
 NAtoms=   55 NActive=   55 NUniq=   55 SFac= 1.00D+00 NAtFMM=   60 NAOKFM=F Big=F
 Integral buffers will be    131072 words long.
 Raffenetti 2 integral format.
 Two-electron integral symmetry is turned off.
 Force inversion solution in PCM.
 Using the following non-standard input for PCM:
 PDENS=7.0
 --- end of non-standard input.
 Force inversion solution in PCM.
 ------------------------------------------------------------------------------
 Polarizable Continuum Model (PCM)
 =================================
 Model                : PCM.
 Atomic radii         : UFF (Universal Force Field).
 Polarization charges : Total charges.
 Charge compensation  : None.
 Solution method      : Matrix inversion.
 Cavity type          : Scaled VdW (van der Waals Surface) (Alpha=1.100).
 Cavity algorithm     : GePol (No added spheres)
                        Default sphere list used, NSphG=   55.
                        Lebedev-Laikov grids with approx.  7.0 points / Ang**2.
                        Smoothing algorithm: York/Karplus (Gamma=1.0000).
                        Polarization charges: spherical gaussians, with
                                              point-specific exponents (IZeta= 3).
                        Self-potential: point-specific (ISelfS= 7).
                        Self-field    : sphere-specific E.n sum rule (ISelfD= 2).
 1st derivatives      : Analytical E(r).r(x)/FMM algorithm (CHGder, D1EAlg=3).
                        Cavity 1st derivative terms included.
 2nd derivatives      : Analytical E(r).r(xy)/FMM algorithm (CHGder, D2EAlg=3).
                        Cavity 2nd derivative terms included.
 Solvent              : 1,2-EthaneDiol, Eps=  40.245000 Eps(inf)=   2.050051
 ------------------------------------------------------------------------------
 One-electron integrals computed using PRISM.
   1 Symmetry operations used in ECPInt.
 ECPInt:  NShTT=   91378 NPrTT=  283881 LenC2=   71117 LenP2D=  148004.
 LDataN:  DoStor=T MaxTD1= 6 Len=  172
 NBasis=  1069 RedAO= T EigKep=  6.89D-06  NBF=  1069
 NBsUse=  1069 1.00D-06 EigRej= -1.00D+00 NBFU=  1069
 ExpMin= 3.27D-02 ExpMax= 2.12D+05 ExpMxC= 2.04D+03 IAcc=3 IRadAn=         5 AccDes= 0.00D+00
 Harris functional with IExCor= 1009 and IRadAn=       5 diagonalized for initial guess.
 HarFok:  IExCor= 1009 AccDes= 0.00D+00 IRadAn=         5 IDoV= 1 UseB2=F ITyADJ=14
 ICtDFT=  3500011 ScaDFX=  1.000000  1.000000  1.000000  1.000000
 FoFCou: FMM=F IPFlag=           0 FMFlag=      100000 FMFlg1=           0
         NFxFlg=           0 DoJE=T BraDBF=F KetDBF=T FulRan=T
         wScrn=  0.000000 ICntrl=       500 IOpCl=  0 I1Cent=   200000004 NGrid=           0
         NMat0=    1 NMatS0=      1 NMatT0=    0 NMatD0=    1 NMtDS0=    0 NMtDT0=    0
 Symmetry not used in FoFCou.
 Requested convergence on RMS density matrix=1.00D-08 within  32 cycles.
 Requested convergence on MAX density matrix=1.00D-06.
 Requested convergence on             energy=1.00D-06.
 No special actions if energy rises.
 Inv3:  Mode=1 IEnd=   101198592.
 Iteration    1 A*A^-1 deviation from unit magnitude is 3.33D-15 for   2039.
 Iteration    1 A*A^-1 deviation from orthogonality  is 2.05D-15 for   5182   5082.
 Iteration    1 A^-1*A deviation from unit magnitude is 3.33D-15 for   2752.
 Iteration    1 A^-1*A deviation from orthogonality  is 2.89D-15 for   5288    724.
 Error on total polarization charges =  0.01669
 SCF Done:  E(RM062X) =  -2377.76479559     A.U. after   17 cycles
            NFock= 17  Conv=0.41D-08     -V/T= 2.0033
 QCSCF skips out because SCF is already converged.
 DoSCS=F DFT=T ScalE2(SS,OS)=  1.000000  1.000000
 Range of M.O.s used for correlation:     1  1069
 NBasis=  1069 NAE=   120 NBE=   120 NFC=     0 NFV=     0
 NROrb=   1069 NOA=   120 NOB=   120 NVA=   949 NVB=   949

 **** Warning!!: The largest alpha MO coefficient is  0.49258615D+02

   1 Symmetry operations used in ECPInt.
 ECPInt:  NShTT=   91378 NPrTT=  283881 LenC2=   71117 LenP2D=  148004.
 LDataN:  DoStor=T MaxTD1= 7 Len=  274
 Number of processors reduced to   8 by ecpmxn.
 Symmetrizing basis deriv contribution to polar:
 IMax=3 JMax=2 DiffMx= 0.00D+00
 G2DrvN: will do    56 centers at a time, making    1 passes.
 Calling FoFCou, ICntrl=  3107 FMM=F I1Cent=   0 AccDes= 0.00D+00.
 NEqPCM:  Using equilibrium solvation (IEInf=0, Eps=  40.2450, EpsInf=   2.0501)
 G2PCM: DoFxE=T DoFxN=T DoGrad=T DoDP/DQ/DG/TGxP=FFFF NFrqRd=   0 IEInf=0 SqF1=F DoCFld=F IF1Alg=4.
 End of G2Drv F.D. properties file   721 does not exist.
 End of G2Drv F.D. properties file   722 does not exist.
 End of G2Drv F.D. properties file   788 does not exist.
          IDoAtm=11111111111111111111111111111111111111111111111111
          IDoAtm=11111
 NEqPCM:  Using equilibrium solvation (IEInf=0, Eps=  40.2450, EpsInf=   2.0501)
          Differentiating once with respect to electric field.
                with respect to dipole field.
          Differentiating once with respect to nuclear coordinates.
 CalDSu exits because no D1Ps are significant.
          There are   168 degrees of freedom in the 1st order CPHF.  IDoFFX=6 NUNeed=     3.
    165 vectors produced by pass  0 Test12= 1.14D-13 1.00D-09 XBig12= 1.47D+02 4.38D+00.
 AX will form   165 AO Fock derivatives at one time.
    165 vectors produced by pass  1 Test12= 1.14D-13 1.00D-09 XBig12= 1.59D+01 4.56D-01.
    165 vectors produced by pass  2 Test12= 1.14D-13 1.00D-09 XBig12= 3.55D-01 5.87D-02.
    165 vectors produced by pass  3 Test12= 1.14D-13 1.00D-09 XBig12= 4.46D-03 6.23D-03.
    165 vectors produced by pass  4 Test12= 1.14D-13 1.00D-09 XBig12= 4.10D-05 4.90D-04.
    165 vectors produced by pass  5 Test12= 1.14D-13 1.00D-09 XBig12= 2.79D-07 4.46D-05.
    150 vectors produced by pass  6 Test12= 1.14D-13 1.00D-09 XBig12= 1.51D-09 2.33D-06.
     55 vectors produced by pass  7 Test12= 1.14D-13 1.00D-09 XBig12= 6.92D-12 1.89D-07.
      3 vectors produced by pass  8 Test12= 1.14D-13 1.00D-09 XBig12= 3.23D-14 1.65D-08.
      2 vectors produced by pass  9 Test12= 1.14D-13 1.00D-09 XBig12= 1.76D-16 1.28D-09.
 InvSVY:  IOpt=1 It=  1 EMax= 8.77D-15
 Solved reduced A of dimension  1200 with   168 vectors.
 Isotropic polarizability for W=    0.000000      354.31 Bohr**3.
 End of Minotr F.D. properties file   721 does not exist.
 End of Minotr F.D. properties file   722 does not exist.
 End of Minotr F.D. properties file   788 does not exist.

 **********************************************************************

            Population analysis using the SCF Density.

 **********************************************************************

 Alpha  occ. eigenvalues -- -180.49895 -20.49809 -19.68234 -19.66275 -19.65823
...
 Alpha virt. eigenvalues --   44.19799  44.29657  44.31766  44.33246
          Condensed to atoms (all electrons):
 Mulliken charges:
               1
     1  O   -0.495431
     2  Ti   1.181029
     3  O   -0.534839
     4  O   -0.546618
     5  C   -0.177648
     6  C   -0.034866
     7  C   -0.129680
     8  C   -0.114235
     9  O   -0.521520
    10  C   -0.049665
    11  C   -0.171409
    12  O   -0.467534
    13  H    0.166912
    14  H    0.169876
    15  H    0.152814
    16  H    0.174472
    17  H    0.144933
    18  H    0.145744
    19  H    0.177756
    20  H    0.171454
    21  H    0.148030
    22  H    0.139828
    23  H    0.124722
    24  H    0.140310
    25  O   -0.522788
    26  H    0.340628
    27  H    0.344220
    28  H    0.432486
    29  O   -0.521905
    30  C    0.490783
    31  O   -0.565153
    32  C   -0.187904
    33  C    0.098668
    34  C   -0.142823
    35  C   -0.218139
    36  C   -0.172594
    37  C    0.042901
    38  H    0.205120
    39  C    0.355327
    40  H    0.184145
    41  O   -0.379235
    42  O   -0.420993
    43  H    0.367183
    44  O   -0.535378
    45  C   -0.107983
    46  C   -0.104605
    47  O   -0.534393
    48  H    0.416213
    49  H    0.164281
    50  H    0.160452
    51  H    0.366917
    52  H    0.150039
    53  H    0.146389
    54  H    0.172587
    55  H    0.181118
 Sum of Mulliken charges =  -0.00000
 Mulliken charges with hydrogens summed into heavy atoms:
               1
     1  O   -0.079217
     2  Ti   1.181029
     3  O   -0.534839
     4  O   -0.546618
     5  C    0.110211
     6  C    0.230166
     7  C    0.207109
     8  C    0.213052
     9  O   -0.177300
    10  C    0.241012
    11  C    0.177802
    12  O   -0.035048
    25  O   -0.182161
    29  O   -0.521905
    30  C    0.490783
    31  O   -0.565153
    32  C   -0.006786
    33  C    0.098668
    34  C    0.029764
    35  C   -0.013019
    36  C    0.011550
    37  C    0.042901
    39  C    0.355327
    41  O   -0.379235
    42  O   -0.053810
    44  O   -0.535378
    45  C    0.188445
    46  C    0.220128
    47  O   -0.167476
 APT charges:
               1
     1  O   -1.247097
     2  Ti   4.316602
     3  O   -1.483779
     4  O   -1.552688
     5  C    0.651982
     6  C    0.623405
     7  C    0.554299
     8  C    0.556468
     9  O   -0.791348
    10  C    0.619738
    11  C    0.489243
    12  O   -1.068237
    13  H   -0.008648
    14  H   -0.044469
    15  H   -0.057511
    16  H    0.008190
    17  H   -0.067812
    18  H   -0.048804
    19  H   -0.007297
    20  H   -0.019328
    21  H   -0.089264
    22  H   -0.064107
    23  H   -0.075089
    24  H   -0.032422
    25  O   -0.827109
    26  H    0.328394
    27  H    0.327824
    28  H    0.621360
    29  O   -1.385978
    30  C    2.140326
    31  O   -1.841197
    32  C    0.063868
    33  C   -0.368882
    34  C   -0.177813
    35  C    0.024548
    36  C    0.053925
    37  C   -0.340235
    38  H    0.136379
    39  C    1.811978
    40  H    0.101658
    41  O   -1.086012
    42  O   -0.993427
    43  H    0.389747
    44  O   -1.527989
    45  C    0.634230
    46  C    0.509082
    47  O   -0.884652
    48  H    0.746816
    49  H    0.000104
    50  H   -0.039986
    51  H    0.350661
    52  H   -0.046589
    53  H   -0.053362
    54  H    0.061045
    55  H    0.109259
 Sum of APT charges =  -0.00000
 APT charges with hydrogens summed into heavy atoms:
               1
     1  O   -0.500281
     2  Ti   4.316602
     3  O   -1.483779
     4  O   -1.552688
     5  C    0.498611
     6  C    0.515894
     7  C    0.501182
     8  C    0.507146
     9  O   -0.463525
    10  C    0.503122
    11  C    0.462618
    12  O   -0.446878
    25  O   -0.498715
    29  O   -1.385978
    30  C    2.140326
    31  O   -1.841197
    32  C    0.173127
    33  C   -0.368882
    34  C   -0.116768
    35  C    0.160927
    36  C    0.155583
    37  C   -0.340235
    39  C    1.811978
    41  O   -1.086012
    42  O   -0.603680
    44  O   -1.527989
    45  C    0.534280
    46  C    0.469201
    47  O   -0.533991
 Electronic spatial extent (au):  <R**2>=          15094.0474
 Charge=             -0.0000 electrons
 Dipole moment (field-independent basis, Debye):
    X=              0.1783    Y=              0.0772    Z=              3.1586  Tot=              3.1645
 Quadrupole moment (field-independent basis, Debye-Ang):
   XX=           -161.3172   YY=           -195.1449   ZZ=           -130.5292
   XY=              5.0637   XZ=              4.4192   YZ=              0.2084
 Traceless Quadrupole moment (field-independent basis, Debye-Ang):
   XX=              1.0132   YY=            -32.8145   ZZ=             31.8013
   XY=              5.0637   XZ=              4.4192   YZ=              0.2084
 Octapole moment (field-independent basis, Debye-Ang**2):
  XXX=             96.7452  YYY=           -283.7506  ZZZ=            -63.2706  XYY=             81.1410
  XXY=            -85.9017  XXZ=           -152.4209  XZZ=            -37.8654  YZZ=            -32.3019
  YYZ=            -44.0832  XYZ=            -45.8364
 Hexadecapole moment (field-independent basis, Debye-Ang**3):
 XXXX=          -6608.4781 YYYY=          -4243.7120 ZZZZ=          -6948.4321 XXXY=           -417.3174
 XXXZ=          -1738.8563 YYYX=           -766.8814 YYYZ=           -858.2879 ZZZX=          -1737.6638
 ZZZY=           -577.0845 XXYY=          -1617.3326 XXZZ=          -2232.6064 YYZZ=          -1733.6552
 XXYZ=           -140.4462 YYXZ=           -516.8736 ZZXY=           -232.8662
 N-N= 3.597709366972D+03 E-N=-1.279219283825D+04  KE= 2.369879377685D+03
  Exact polarizability: 368.976  37.574 325.210  12.982 -18.528 368.737
 Approx polarizability: 322.565  28.921 297.052   3.395 -19.518 330.152
   1 Symmetry operations used in ECPInt.
 ECPInt:  NShTT=   91378 NPrTT=  283881 LenC2=   71117 LenP2D=  148004.
 LDataN:  DoStor=T MaxTD1= 8 Len=  415
 D2PCM: PCM CHGder 2nd derivatives, FixD1E=F FixD2E=F DoIter=F DoCFld=F I1PDM=0
 Calling FoFJK, ICntrl=    100127 FMM=F ISym2X=0 I1Cent= 0 IOpClX= 0 NMat=1 NMatS=1 NMatT=0.
 Full mass-weighted force constant matrix:
 Low frequencies ---   -4.6708   -0.0045   -0.0034   -0.0028    5.0349    7.5680
 Low frequencies ---   10.8884   15.6254   28.6226
 Diagonal vibrational polarizability:
      416.2280532     551.1103040     371.4352419
 Harmonic frequencies (cm**-1), IR intensities (KM/Mole), Raman scattering
 activities (A**4/AMU), depolarization ratios for plane and unpolarized
 incident light, reduced masses (AMU), force constants (mDyne/A),
 and normal coordinates:
                      1                      2                      3
                      A                      A                      A
 Frequencies --      9.3416                15.3871                28.5963
 Red. masses --      7.2358                 6.4483                 6.8338
 Frc consts  --      0.0004                 0.0009                 0.0033
 IR Inten    --      0.1999                 2.4603                 0.8351
  Atom  AN      X      Y      Z        X      Y      Z        X      Y      Z
     1   8     0.00   0.03  -0.02    -0.05   0.06  -0.00     0.02   0.02  -0.05
     2  22     0.02  -0.01  -0.02    -0.05   0.06   0.01     0.00   0.03  -0.05
     3   8     0.06   0.02  -0.03    -0.09   0.04  -0.07    -0.01   0.02  -0.05
...
    53   1     0.00   0.00   0.00    -0.00  -0.00   0.00     0.00   0.00  -0.00
    54   1     0.00   0.00   0.00    -0.00   0.00  -0.00     0.00  -0.00   0.00
    55   1    -0.00   0.00   0.00     0.00  -0.00   0.00    -0.00  -0.00  -0.00

 -------------------
 - Thermochemistry -
 -------------------
 Temperature   298.150 Kelvin.  Pressure   1.00000 Atm.
 Atom     1 has atomic number  8 and mass  15.99491
 Atom     2 has atomic number 22 and mass  47.94795
 Atom     3 has atomic number  8 and mass  15.99491
 Atom     4 has atomic number  8 and mass  15.99491
 Atom     5 has atomic number  6 and mass  12.00000
 Atom     6 has atomic number  6 and mass  12.00000
 Atom     7 has atomic number  6 and mass  12.00000
 Atom     8 has atomic number  6 and mass  12.00000
 Atom     9 has atomic number  8 and mass  15.99491
 Atom    10 has atomic number  6 and mass  12.00000
 Atom    11 has atomic number  6 and mass  12.00000
 Atom    12 has atomic number  8 and mass  15.99491
 Atom    13 has atomic number  1 and mass   1.00783
 Atom    14 has atomic number  1 and mass   1.00783
 Atom    15 has atomic number  1 and mass   1.00783
 Atom    16 has atomic number  1 and mass   1.00783
 Atom    17 has atomic number  1 and mass   1.00783
 Atom    18 has atomic number  1 and mass   1.00783
 Atom    19 has atomic number  1 and mass   1.00783
 Atom    20 has atomic number  1 and mass   1.00783
 Atom    21 has atomic number  1 and mass   1.00783
 Atom    22 has atomic number  1 and mass   1.00783
 Atom    23 has atomic number  1 and mass   1.00783
 Atom    24 has atomic number  1 and mass   1.00783
 Atom    25 has atomic number  8 and mass  15.99491
 Atom    26 has atomic number  1 and mass   1.00783
 Atom    27 has atomic number  1 and mass   1.00783
 Atom    28 has atomic number  1 and mass   1.00783
 Atom    29 has atomic number  8 and mass  15.99491
 Atom    30 has atomic number  6 and mass  12.00000
 Atom    31 has atomic number  8 and mass  15.99491
 Atom    32 has atomic number  6 and mass  12.00000
 Atom    33 has atomic number  6 and mass  12.00000
 Atom    34 has atomic number  6 and mass  12.00000
 Atom    35 has atomic number  6 and mass  12.00000
 Atom    36 has atomic number  6 and mass  12.00000
 Atom    37 has atomic number  6 and mass  12.00000
 Atom    38 has atomic number  1 and mass   1.00783
 Atom    39 has atomic number  6 and mass  12.00000
 Atom    40 has atomic number  1 and mass   1.00783
 Atom    41 has atomic number  8 and mass  15.99491
 Atom    42 has atomic number  8 and mass  15.99491
 Atom    43 has atomic number  1 and mass   1.00783
 Atom    44 has atomic number  8 and mass  15.99491
 Atom    45 has atomic number  6 and mass  12.00000
 Atom    46 has atomic number  6 and mass  12.00000
 Atom    47 has atomic number  8 and mass  15.99491
 Atom    48 has atomic number  1 and mass   1.00783
 Atom    49 has atomic number  1 and mass   1.00783
 Atom    50 has atomic number  1 and mass   1.00783
 Atom    51 has atomic number  1 and mass   1.00783
 Atom    52 has atomic number  1 and mass   1.00783
 Atom    53 has atomic number  1 and mass   1.00783
 Atom    54 has atomic number  1 and mass   1.00783
 Atom    55 has atomic number  1 and mass   1.00783
 Molecular mass:   458.09037 amu.
 Principal axes and moments of inertia in atomic units:
                           1         2         3
     Eigenvalues --  8953.62840********************
           X            0.67743  -0.60035  -0.42505
           Y            0.26696  -0.33778   0.90257
           Z            0.68543   0.72490   0.06856
 This molecule is an asymmetric top.
 Rotational symmetry number  1.
 Warning -- assumption of classical behavior for rotation
           may cause significant error
 Rotational temperatures (Kelvin)      0.00967     0.00404     0.00371
 Rotational constants (GHZ):           0.20157     0.08427     0.07732
 Zero-point vibrational energy    1154479.4 (Joules/Mol)
                                  275.92720 (Kcal/Mol)
 Warning -- explicit consideration of  54 degrees of freedom as
           vibrations may cause significant error
 Vibrational temperatures:     13.44    22.14    41.14    54.61    60.02
          (Kelvin)             64.34    73.11    81.19    86.42    94.83
                              114.05   128.56   144.19   172.35   182.82
                              197.11   205.40   217.59   226.44   234.30
                              252.48   264.88   272.80   278.70   295.59
                              316.82   328.60   364.69   383.34   401.37
                              409.81   429.03   436.58   441.51   456.29
                              472.39   490.83   505.51   511.46   542.03
                              559.04   608.36   618.86   631.90   652.27
                              668.49   731.10   743.08   766.53   797.60
                              838.70   853.58   868.77   885.83   929.89
                              976.31   983.63  1006.66  1085.32  1120.21
                             1160.22  1166.01  1183.81  1236.43  1249.92
                             1257.48  1284.72  1297.11  1336.93  1337.18
                             1353.66  1418.55  1425.81  1471.75  1497.64
                             1511.33  1513.40  1534.22  1543.95  1575.63
                             1577.79  1588.25  1606.19  1607.92  1608.29
                             1616.86  1621.79  1624.98  1634.85  1668.20
                             1680.52  1703.36  1713.85  1752.66  1754.65
                             1756.01  1758.59  1804.49  1834.35  1877.33
                             1880.56  1886.68  1902.59  1931.14  1936.41
                             1938.99  1988.57  1989.34  1992.52  1996.50
                             1999.57  2011.31  2024.91  2036.80  2041.90
                             2055.30  2059.75  2077.81  2134.30  2139.78
                             2143.70  2144.49  2156.59  2162.38  2165.53
                             2186.13  2189.18  2200.63  2203.62  2368.16
                             2399.62  2422.75  2602.70  4312.69  4344.97
                             4353.59  4355.88  4378.65  4398.04  4400.47
                             4424.97  4426.09  4431.15  4439.95  4448.69
                             4486.81  4490.86  4513.68  4519.98  4528.34
                             4636.35  4649.65  4655.03  4662.58  4667.35
                             5455.50  5513.84  5547.77  5549.24
 
 Zero-point correction=                           0.439718 (Hartree/Particle)
 Thermal correction to Energy=                    0.472511
 Thermal correction to Enthalpy=                  0.473455
 Thermal correction to Gibbs Free Energy=         0.371716
 Sum of electronic and zero-point Energies=          -2377.325078
 Sum of electronic and thermal Energies=             -2377.292284
 Sum of electronic and thermal Enthalpies=           -2377.291340
 Sum of electronic and thermal Free Energies=        -2377.393079
 
                     E (Thermal)             CV                S
                      KCal/Mol        Cal/Mol-Kelvin    Cal/Mol-Kelvin
 Total                  296.505            117.927            214.128
 Electronic               0.000              0.000              0.000
 Translational            0.889              2.981             44.254
 Rotational               0.889              2.981             36.746
 Vibrational            294.728            111.965            133.127
 Vibration     1          0.593              1.987              8.146
 Vibration     2          0.593              1.986              7.155
 Vibration     3          0.593              1.984              5.924
 Vibration     4          0.594              1.982              5.363
 Vibration     5          0.594              1.981              5.176
 Vibration     6          0.595              1.980              5.038
 Vibration     7          0.595              1.977              4.785
 Vibration     8          0.596              1.975              4.578
 Vibration     9          0.597              1.973              4.455
 Vibration    10          0.597              1.971              4.272
 Vibration    11          0.600              1.963              3.909
 Vibration    12          0.602              1.957              3.674
 Vibration    13          0.604              1.949              3.450
 Vibration    14          0.609              1.933              3.104
 Vibration    15          0.611              1.926              2.990
 Vibration    16          0.614              1.916              2.845
 Vibration    17          0.616              1.910              2.767
 Vibration    18          0.619              1.901              2.657
 Vibration    19          0.621              1.894              2.581
 Vibration    20          0.623              1.888              2.516
 Vibration    21          0.627              1.873              2.376
 Vibration    22          0.631              1.862              2.286
 Vibration    23          0.633              1.854              2.232
 Vibration    24          0.635              1.849              2.192
 Vibration    25          0.640              1.832              2.084
 Vibration    26          0.647              1.810              1.957
 Vibration    27          0.651              1.798              1.892
 Vibration    28          0.665              1.757              1.706
 Vibration    29          0.672              1.735              1.619
 Vibration    30          0.679              1.712              1.540
 Vibration    31          0.683              1.702              1.504
 Vibration    32          0.691              1.677              1.427
 Vibration    33          0.695              1.667              1.398
 Vibration    34          0.697              1.661              1.379
 Vibration    35          0.704              1.641              1.325
 Vibration    36          0.712              1.619              1.268
 Vibration    37          0.721              1.593              1.207
 Vibration    38          0.728              1.572              1.160
 Vibration    39          0.731              1.564              1.142
 Vibration    40          0.747              1.520              1.052
 Vibration    41          0.757              1.495              1.006
 Vibration    42          0.785              1.421              0.882
 Vibration    43          0.791              1.405              0.858
 Vibration    44          0.799              1.385              0.829
 Vibration    45          0.812              1.353              0.786
 Vibration    46          0.822              1.329              0.753
 Vibration    47          0.863              1.232              0.638
 Vibration    48          0.871              1.214              0.618
 Vibration    49          0.888              1.178              0.581
 Vibration    50          0.910              1.130              0.535
 Vibration    51          0.940              1.068              0.480
 Vibration    52          0.951              1.046              0.461
 Vibration    53          0.962              1.024              0.443
 Vibration    54          0.975              0.999              0.423
                       Q            Log10(Q)             Ln(Q)
 Total Bot       0.105312-170       -170.977523       -393.690296
 Total V=0       0.189902D+32         31.278529         72.021474
 Vib (Bot)       0.114106-186       -186.942691       -430.451454
 Vib (Bot)    1  0.221810D+02          1.345982          3.099237
...
 Vib (V=0)   53  0.105738D+01          0.024231          0.055793
 Vib (V=0)   54  0.105401D+01          0.022847          0.052607
 Electronic      0.100000D+01          0.000000          0.000000
 Translational   0.385372D+09          8.585881         19.769721
 Rotational      0.239490D+08          7.379287         16.991437
 -------------------------------------------------------------------
 Center     Atomic                   Forces (Hartrees/Bohr)
 Number     Number              X              Y              Z
 -------------------------------------------------------------------
      1        8           0.000005674    0.000006356    0.000010643
      2       22           0.000009356   -0.000004165    0.000007215
      3        8           0.000004890   -0.000001708   -0.000016045
      4        8          -0.000008576   -0.000004163   -0.000013746
      5        6           0.000012160    0.000012673    0.000019035
      6        6          -0.000004056   -0.000007504    0.000001290
      7        6           0.000007980    0.000000520    0.000001820
      8        6          -0.000004206    0.000001761   -0.000007249
      9        8           0.000001192    0.000002805    0.000001846
     10        6           0.000006589    0.000004297    0.000012478
     11        6          -0.000014644    0.000007010   -0.000004813
     12        8           0.000009433    0.000002834   -0.000010285
     13        1           0.000000677    0.000005233    0.000000599
     14        1          -0.000000220   -0.000003381   -0.000000941
     15        1          -0.000000543    0.000001897    0.000002297
     16        1          -0.000002330   -0.000001553    0.000003771
     17        1          -0.000001115    0.000001055    0.000000186
     18        1          -0.000001256   -0.000001511   -0.000001769
     19        1           0.000005024   -0.000001503    0.000000997
     20        1           0.000002591   -0.000001146    0.000002195
     21        1          -0.000004356   -0.000002159    0.000000441
     22        1          -0.000005321   -0.000001536   -0.000001221
     23        1          -0.000000652   -0.000001976    0.000000979
     24        1          -0.000001393    0.000000158    0.000001805
     25        8           0.000000428    0.000001120    0.000002115
     26        1          -0.000003180   -0.000000465    0.000001377
     27        1          -0.000002136    0.000002143    0.000001431
     28        1          -0.000003703   -0.000004758    0.000004943
     29        8          -0.000001921   -0.000000571   -0.000004216
     30        6          -0.000001569    0.000006147   -0.000005294
     31        8          -0.000007023   -0.000006659    0.000003221
     32        6           0.000000796    0.000001803   -0.000000692
     33        6           0.000005928   -0.000000837    0.000003336
     34        6           0.000001396    0.000002835   -0.000003029
     35        6          -0.000003087   -0.000000981   -0.000001022
     36        6          -0.000001192   -0.000001669    0.000002315
     37        6           0.000004879    0.000001985   -0.000002085
     38        1           0.000000836   -0.000000915   -0.000000318
     39        6          -0.000006163   -0.000001409   -0.000001642
     40        1           0.000000886    0.000000618   -0.000000488
     41        8           0.000002887   -0.000001310   -0.000001865
     42        8           0.000003594   -0.000001100    0.000002307
     43        1           0.000002141   -0.000001838   -0.000002996
     44        8           0.000001416   -0.000005515   -0.000016082
     45        6          -0.000010204   -0.000001806    0.000019590
     46        6          -0.000001798   -0.000001858    0.000001252
     47        8          -0.000003418    0.000003223   -0.000007983
     48        1          -0.000007525    0.000005507   -0.000003958
     49        1           0.000000060   -0.000003246   -0.000000631
     50        1           0.000002098   -0.000001587    0.000000004
     51        1           0.000002090   -0.000001411    0.000002445
     52        1           0.000003284   -0.000001754   -0.000000813
     53        1           0.000002780   -0.000001001   -0.000003775
     54        1           0.000000635    0.000000206    0.000001028
     55        1          -0.000000116    0.000000803   -0.000000003
 -------------------------------------------------------------------
 Cartesian Forces:  Max     0.000019590 RMS     0.000005078

 GradGradGradGradGradGradGradGradGradGradGradGradGradGradGradGradGradGrad
 Berny optimization.
 Search for a local minimum.
 Step number   1 out of a maximum of    2
 All quantities printed in internal units (Hartrees-Bohrs-Radians)
 Second derivative matrix not updated -- analytic derivatives used.
 ITU=  0
     Eigenvalues ---    0.00002   0.00006   0.00019   0.00022   0.00037
     Eigenvalues ---    0.00047   0.00051   0.00074   0.00086   0.00096
     Eigenvalues ---    0.00116   0.00136   0.00181   0.00215   0.00237
     Eigenvalues ---    0.00249   0.00317   0.00366   0.00411   0.00419
     Eigenvalues ---    0.00451   0.00501   0.00581   0.00627   0.00742
     Eigenvalues ---    0.00838   0.00913   0.01047   0.01099   0.01344
     Eigenvalues ---    0.01407   0.01699   0.01780   0.02057   0.02120
     Eigenvalues ---    0.02178   0.02468   0.02792   0.02925   0.03034
     Eigenvalues ---    0.03113   0.03192   0.03280   0.03358   0.03453
     Eigenvalues ---    0.03598   0.03781   0.03928   0.04212   0.04366
     Eigenvalues ---    0.04934   0.05150   0.05266   0.05344   0.05417
     Eigenvalues ---    0.05977   0.06358   0.06497   0.06641   0.06805
     Eigenvalues ---    0.07032   0.07158   0.07260   0.07313   0.07925
     Eigenvalues ---    0.08279   0.08629   0.08867   0.08950   0.08990
     Eigenvalues ---    0.09175   0.09505   0.09581   0.09964   0.10360
     Eigenvalues ---    0.11219   0.11571   0.11725   0.11797   0.12192
     Eigenvalues ---    0.13011   0.13241   0.13685   0.13778   0.14211
     Eigenvalues ---    0.15575   0.16064   0.16404   0.16873   0.18029
     Eigenvalues ---    0.18332   0.18564   0.18703   0.18905   0.19665
     Eigenvalues ---    0.20258   0.20654   0.20983   0.21657   0.22243
     Eigenvalues ---    0.24382   0.25233   0.25764   0.27143   0.27577
     Eigenvalues ---    0.28898   0.29779   0.32939   0.34266   0.34926
     Eigenvalues ---    0.35201   0.36685   0.43342   0.46013   0.46833
     Eigenvalues ---    0.47114   0.49205   0.49937   0.53832   0.54776
     Eigenvalues ---    0.61476   0.63358   0.64852   0.65726   0.67130
     Eigenvalues ---    0.69191   0.70468   0.72586   0.74210   0.75593
     Eigenvalues ---    0.77035   0.78657   0.79660   0.80820   0.80997
     Eigenvalues ---    0.81621   0.83850   0.83911   0.85398   0.85657
     Eigenvalues ---    0.86293   0.87169   0.88979   0.90895   0.91845
     Eigenvalues ---    0.94590   0.95591   1.01026   1.02819   1.06333
     Eigenvalues ---    1.09749   1.10450   1.12406   1.12761   1.14871
     Eigenvalues ---    1.30174   1.31499   1.40401   1.64754
 Angle between quadratic step and forces=  88.01 degrees.
 Linear search not attempted -- first point.
 B after Tr=    -0.000107    0.000137   -0.000055
         Rot=    1.000000    0.000004   -0.000012    0.000028 Ang=   0.00 deg.
 Variable       Old X    -DE/DX   Delta X   Delta X   Delta X     New X
                                 (Linear)    (Quad)   (Total)
    X1        3.42543   0.00001   0.00000   0.00005   0.00008   3.42550
...
   Y55        2.40623   0.00000   0.00000  -0.01057  -0.01041   2.39582
   Z55       -8.12632  -0.00000   0.00000  -0.00466  -0.00470  -8.13102
         Item               Value     Threshold  Converged?
 Maximum Force            0.000020     0.000450     YES
 RMS     Force            0.000005     0.000300     YES
 Maximum Displacement     0.010959     0.001800     NO 
 RMS     Displacement     0.002822     0.001200     NO 
 Predicted change in Energy=-1.260594D-08
 GradGradGradGradGradGradGradGradGradGradGradGradGradGradGradGradGradGrad


 ----------------------------------------------------------------------

 Electric dipole moment (input orientation):
 (Debye = 10**-18 statcoulomb cm , SI units = C m)
                  (au)            (Debye)         (10**-30 SI)
   Tot        0.124503D+01      0.316455D+01      0.105558D+02
   x          0.701513D-01      0.178307D+00      0.594767D+00
   y          0.303664D-01      0.771836D-01      0.257457D+00
   z          0.124268D+01      0.315858D+01      0.105359D+02

 Dipole polarizability, Alpha (input orientation).
 (esu units = cm**3 , SI units = C**2 m**2 J**-1)
 Alpha(0;0):
               (au)            (10**-24 esu)      (10**-40 SI)
   iso        0.354308D+03      0.525030D+02      0.584174D+02
   aniso      0.876131D+02      0.129829D+02      0.144455D+02
   xx         0.368976D+03      0.546766D+02      0.608359D+02
   yx         0.375744D+02      0.556796D+01      0.619519D+01
   yy         0.325210D+03      0.481912D+02      0.536199D+02
   zx         0.129825D+02      0.192380D+01      0.214052D+01
   zy        -0.185282D+02     -0.274559D+01     -0.305489D+01
   zz         0.368737D+03      0.546412D+02      0.607965D+02

 ----------------------------------------------------------------------

 Dipole orientation:
     8          3.41719717          2.32766977          0.27083913
    22          0.50361134          0.10842033          2.21240450
     8          2.66497305         -2.65441324          1.72691425
     8         -0.51488006          3.20812203          3.40768895
     6          0.62182540          5.39829425          4.33174805
     6         -1.38281001          7.40065863          4.81539404
     6          6.06961584          1.88279477          0.25828674
     6          7.28594188          3.53881493          2.26131533
     8          9.86643495          2.91678610          2.59150661
     6          3.65368268         -3.88267191          3.85347446
     6          4.71919370         -1.85104676          5.58731590
     8          2.99725308          0.24219241          5.46905191
     1          6.43546467         -0.10813908          0.65484936
     1          6.82961397          2.32895742         -1.60820409
     1          7.04202227          5.53180567          1.76823249
     1          6.34904586          3.21209063          4.06817687
     1          2.15184305         -4.92222392          4.83582192
     1          5.13278548         -5.22118098          3.31367251
     1          4.92828896         -2.48949682          7.53365131
     1          6.53831408         -1.16550337          4.90303061
     1          1.63302009          4.99992964          6.10298092
     1          2.01484022          6.12326806          2.98187369
     1         -2.80367654          6.65875345          6.12458338
     1         -2.33127533          7.86647892          3.04652023
     8         -0.30470040          9.67305476          5.73221718
     1          0.38536032          9.36218452          7.38675692
     1         10.78933583          3.42330766          1.10747189
     1          1.84187868          0.28754037          6.94383267
     8          0.93276740          2.45698180         -3.90024243
     6         -0.83328716          1.04978546         -3.32613933
     8         -1.11904009          0.04449981         -1.13061995
     6         -2.63171927          1.39713877         -7.67290140
     6         -2.81662536          0.41462828         -5.23811107
     6         -4.45531784          0.82760447         -9.46498599
     6         -4.83126039         -1.13716486         -4.60147627
     6         -6.47287428         -0.72417194         -8.83376771
     6         -6.65909244         -1.70544057         -6.39908927
     1         -4.98636398         -1.90519490         -2.71465971
     6         -8.78977064         -3.37295545         -5.63679550
     1         -7.90182256         -1.17460756        -10.22241080
     8         -9.04156308         -4.26402985         -3.55661456
     8        -10.43245087         -3.79946047         -7.50926121
     1        -11.75608485         -4.89215247         -6.86983998
     8         -1.88395302         -1.64512803          3.94147708
     6         -3.66573486         -1.02648104          5.79556132
     6         -2.57585208         -1.35150133          8.42131691
     8         -0.60255749          0.42548462          8.93590929
     1          2.72689192          2.58394898         -1.47011808
     1         -1.71552827         -3.21402818          8.60187854
     1         -4.06762160         -1.16332702          9.83478184
     1         -1.31121048          2.10636561          8.92816006
     1         -4.29827631          0.93329700          5.55341237
     1         -5.30910853         -2.26728611          5.60776434
     1         -4.30823812          1.59130089        -11.35469584
     1         -1.04939174          2.60474851         -8.13726535

 Electric dipole moment (dipole orientation):
 (Debye = 10**-18 statcoulomb cm , SI units = C m)
                  (au)            (Debye)         (10**-30 SI)
   Tot        0.124503D+01      0.316455D+01      0.105558D+02
   x          0.000000D+00      0.000000D+00      0.000000D+00
   y          0.000000D+00      0.000000D+00      0.000000D+00
   z          0.124503D+01      0.316455D+01      0.105558D+02

 Dipole polarizability, Alpha (dipole orientation).
 (esu units = cm**3 , SI units = C**2 m**2 J**-1)
 Alpha(0;0):
               (au)            (10**-24 esu)      (10**-40 SI)
   iso        0.354308D+03      0.525030D+02      0.584174D+02
   aniso      0.876131D+02      0.129829D+02      0.144455D+02
   xx         0.367461D+03      0.544521D+02      0.605862D+02
   yx         0.382611D+02      0.566971D+01      0.630840D+01
   yy         0.326088D+03      0.483213D+02      0.537647D+02
   zx         0.138620D+02      0.205414D+01      0.228554D+01
   zy        -0.174489D+02     -0.258566D+01     -0.287694D+01
   zz         0.369373D+03      0.547355D+02      0.609014D+02

 ----------------------------------------------------------------------
 1\1\GINC-R6I2N27\Freq\RM062X\def2TZVP\C16H26O12Ti1\HMAYES\29-Aug-2019\
 0\\# m062x/Def2TZVP nosymm scf=xqc freq=NoRaman CPHF=Grid=Fine SCRF=(S
 olvent=1,2-EthaneDiol,Read)\\Last conformation from file complete/tieg
 5ipatse_ts_ircf_opt_noeg.log.o\\0,1\O,1.812658,1.233635,0.01112\Ti,0.3
 32003,0.085728,1.15213\O,1.460459,-1.382918,0.866919\O,-0.171592,1.741
 329,1.773815\C,0.455726,2.911486,2.199723\C,-0.589704,3.977748,2.48910
 2\C,3.213815,0.99716,-0.068854\C,3.915565,1.898637,0.931463\O,5.289005
 ,1.572894,1.03695\C,2.046684,-2.005604,1.976496\C,2.66059,-0.908844,2.
 834283\O,1.746538,0.197621,2.796144\H,3.419655,-0.051098,0.15539\H,3.5
 59535,1.208822,-1.083114\H,3.771266,2.946693,0.652577\H,3.474562,1.749
 455,1.917961\H,1.282876,-2.542322,2.553548\H,2.81254,-2.721207,1.66455
 8\H,2.829328,-1.221552,3.864302\H,3.601045,-0.555672,2.40977\H,1.04293
 4,2.723236,3.110242\H,1.151194,3.277082,1.435856\H,-1.301094,3.60268,3
 .232529\H,-1.143724,4.201691,1.577088\O,0.00641,5.191331,2.911874\H,0.
 42044,5.047978,3.769204\H,5.732174,1.821364,0.219059\H,1.180068,0.2410
 66,3.608956\O,0.375629,1.249113,-2.119549\C,-0.539812,0.512731,-1.7455
 \O,-0.624957,0.009356,-0.564378\C,-1.619721,0.64104,-3.992228\C,-1.644
 459,0.152765,-2.688029\C,-2.636421,0.317279,-4.877045\C,-2.689317,-0.6
 59214,-2.271674\C,-3.682984,-0.49476,-4.463464\C,-3.708419,-0.982379,-
 3.159301\H,-2.714726,-1.041108,-1.26056\C,-4.810798,-1.853913,-2.67162
 2\H,-4.47919,-0.750452,-5.148496\O,-4.881481,-2.298369,-1.553906\O,-5.
 734361,-2.103112,-3.606135\H,-6.414222,-2.672433,-3.214837\O,-0.877241
 ,-0.818748,2.159211\C,-1.763564,-0.466893,3.183641\C,-1.10933,-0.60534
 2,4.542208\O,-0.05207,0.340642,4.732233\H,1.395942,1.346993,-0.891142\
 H,-0.648728,-1.588638,4.635964\H,-1.85541,-0.487008,5.330821\H,-0.4273
 2,1.230019,4.727575\H,-2.105692,0.566973,3.049309\H,-2.636966,-1.12512
 9,3.149465\H,-2.615336,0.696846,-5.889392\H,-0.798005,1.27332,-4.30026
 1\\Version=ES64L-G16RevB.01\HF=-2377.7647956\RMSD=4.057e-09\RMSF=5.078
 e-06\ZeroPoint=0.439718\Thermal=0.4725111\Dipole=0.0701513,0.0303664,1
 .2426798\DipoleDeriv=-1.9088414,-0.2092037,-0.078846,-0.0977858,-0.712
 2313,0.2230098,-0.3464931,0.0447162,-1.1202182,3.9702311,-0.7868894,-0
 .1447414,-0.0669164,4.5442105,-0.3197227,-0.422993,0.1502537,4.4353653
 ,-1.4816824,0.855737,-0.1793317,0.9341721,-1.8578204,0.2143191,-0.0549
 08,0.0517105,-1.1118352,-0.8335205,0.287241,0.0844985,0.0930226,-2.861
 3441,-0.639502,0.0713318,-0.7886767,-0.9631986,0.3636331,0.5122976,0.1
 619744,0.1293925,1.1115708,0.2472881,0.071586,0.251612,0.480742,0.4877
 673,0.1599894,0.0172268,0.1781402,0.9107042,0.194364,0.035283,0.229004
 2,0.4717438,1.1331359,0.0635328,0.0035359,-0.1858797,0.2702611,-0.0540
 007,-0.0253546,-0.0458576,0.2594992,0.9951875,-0.050344,0.0866241,-0.0
 808802,0.4211549,-0.0275049,0.0233626,-0.0065206,0.2530617,-1.3052496,
 -0.0169181,-0.0822299,0.0391568,-0.6459368,-0.0800495,-0.0250927,-0.11
 10071,-0.4228586,0.5649844,-0.2266183,0.1332724,-0.2237172,0.6185462,-
 0.2544343,0.3691127,-0.5028876,0.6756821,0.6516851,-0.2866113,-0.02565
 99,-0.3175943,0.5615788,-0.0514128,-0.1085553,0.0919941,0.2544652,-1.2
 93199,0.3653003,-0.0164332,0.2401855,-0.8708513,-0.1371966,-0.0006715,
 -0.079147,-1.0406618,-0.0036968,0.0163893,-0.0319302,0.0870014,-0.0927
 685,0.0098477,-0.0700592,0.0314805,0.0705225,-0.0618333,-0.0224884,0.0
 45002,-0.0430185,0.0625846,0.0696015,0.0976561,0.0189111,-0.1341576,-0
 .0337954,0.0199762,-0.0136343,0.0489489,-0.1856607,0.0238296,-0.045121
 3,0.0710512,0.0469218,0.0304498,0.0197571,0.0126061,0.008426,0.0808662
 ,0.018786,0.0589954,0.0005476,-0.086747,-0.0690131,-0.1144254,0.087185
 8,-0.0301552,-0.0582367,0.0735604,-0.0072977,0.150398,-0.0761859,-0.09
 63574,0.1828987,0.012322,0.1418616,-0.0874985,-0.0014158,0.0144131,-0.
 0248818,0.0374443,0.0441984,0.0272369,0.0038782,0.032794,0.0496778,0.0
 273359,-0.0917541,0.0748318,-0.1157671,-0.1069345,-0.0224947,0.0456777
 ,-0.061965,0.0021461,-0.0025446,0.0985419,-0.0030262,0.0468042,-0.0267
 632,-0.0519053,-0.121224,0.0355544,-0.0645895,0.0007979,-0.1466713,-0.
 0671993,-0.176438,-0.0524774,-0.127812,0.0548727,-0.0649617,-0.0962279
 ,0.0169304,0.1169815,0.056786,-0.043617,-0.0883035,-0.0559815,0.091975
 7,-0.0870737,-0.0528455,0.0257571,0.1482306,0.0452436,-0.0841183,-0.00
 83507,0.0245652,-0.0713225,0.0391689,-0.0007574,0.0315636,-0.1217552,0
 .0263016,-0.0881584,-0.718163,-0.2195542,0.0032851,-0.1151792,-1.18318
 76,-0.3231707,0.0084823,-0.394853,-0.579975,0.3644591,-0.009306,-0.067
 2987,0.0102411,0.3232931,0.1119401,-0.0610705,0.1013167,0.2974297,0.37
 51354,0.038541,-0.0224302,0.0422681,0.3839063,0.0605698,0.0104484,0.06
 3235,0.2244293,0.768978,-0.0377389,-0.4222519,-0.0400913,0.2791384,0.0
 98328,-0.4777493,0.1048313,0.8159625,-1.8497014,-0.7523169,-0.088391,-
 0.7067031,-0.9865325,0.2991543,-0.4013815,0.077448,-1.3216991,2.129187
 1,0.9126084,0.3892129,0.8441716,1.1644137,-0.7927308,0.7172972,-0.4148
 114,3.1273784,-1.0830634,-0.0856682,-0.9264881,-0.0997511,-0.7445745,0
 .5259616,-0.7855949,0.4448765,-3.6959535,0.078235,0.1078511,-0.0218362
 ,0.0186669,-0.0375217,-0.10281,0.2256516,0.0604605,0.150892,-0.4464218
 ,-0.1551564,-0.2293918,-0.1298269,-0.1473399,0.0200443,-0.3108696,-0.0
 464452,-0.512885,-0.4145317,-0.1256682,-0.0772698,-0.1282441,-0.206611
 1,-0.1434563,-0.0615397,-0.136305,0.087704,0.1135215,0.1033232,0.02512
 56,0.1020899,-0.0010068,0.002565,0.0350295,0.0112867,-0.0388716,0.0979
 252,0.0971947,0.0501322,0.1771108,0.0337783,-0.010284,-0.1730129,-0.15
 31585,0.0300705,-0.473904,-0.2727374,0.0544207,-0.2940158,-0.2951881,0
 .0995752,0.1134504,0.1362017,-0.2516122,0.177626,0.0008357,0.0276865,0
 .0081637,0.1531789,0.0490766,0.0025118,0.0319293,0.0783316,2.1014704,0
 .9641012,0.2834473,1.0010526,1.2118894,-0.4293103,0.1714056,-0.5004278
 ,2.1225737,0.0792876,-0.0294604,-0.0665048,-0.028451,0.1494682,-0.0101
 4,-0.0676718,-0.0113969,0.0762179,-0.906813,-0.3418029,0.1628469,-0.33
 99352,-0.8485755,0.4752725,0.1607596,0.4740988,-1.5026469,-1.3889926,-
 0.3819581,-0.6306362,-0.4244657,-0.6270711,-0.2083875,-0.5053101,-0.12
 94416,-0.9642186,0.4643887,0.0261625,0.0368154,0.0249791,0.3977988,0.0
 572839,0.0390531,0.0588473,0.3070549,-1.7737155,-0.4084522,1.075342,-0
 .5154682,-1.0172532,0.4322067,0.9655001,0.3324595,-1.7929976,0.7302313
 ,0.0078306,-0.5455851,-0.1483104,0.3217228,0.2483981,-0.5593561,-0.054
 7828,0.8507354,0.5980018,0.2546799,0.1056837,0.4019781,0.5898692,0.043
 3925,0.1136744,0.0592298,0.3393751,-0.9830983,-0.2713739,0.0668178,-0.
 3773385,-0.732636,-0.11548,0.1499842,-0.0952477,-0.9382232,0.862897,0.
 0968789,0.5516785,0.019246,0.3557132,-0.0315301,0.8688969,0.1250679,1.
 0218382,0.0057612,0.0845748,-0.0561471,0.0247189,-0.0819381,0.0238387,
 -0.0256953,-0.0081674,0.0764904,-0.0710783,-0.0384334,0.0921787,-0.001
 2416,0.0508947,-0.0517619,0.13188,0.0075806,-0.0997744,0.2353437,0.042
 8076,-0.0098402,0.0165748,0.3225091,0.0184449,-0.0296499,0.0606083,0.4
 941312,0.0052994,0.0360678,0.0505543,0.1461054,-0.1044567,-0.0513412,0
 .0371452,0.0244861,-0.0406085,-0.1412737,-0.1099697,0.0892757,-0.14014
 31,-0.0023059,-0.0105581,0.0446021,0.0023687,-0.0165053,0.1075642,-0.0
 346464,-0.0156667,-0.0349202,0.1232515,0.0694427,-0.0131105,0.0699905,
 -0.0476795,0.0841897,-0.0624437,0.0399353,-0.061159,0.1088403,0.036259
 ,0.0374714,0.0330757,0.1347456\Polar=368.9756686,37.5744474,325.210195
 6,12.9824668,-18.5281909,368.7370017\Quadrupole=0.7533225,-24.3967788,
 23.6434564,3.7647098,3.2855608,0.1549551\PG=C01 [X(C16H26O12Ti1)]\NIma
 g=0\\0.45970703,-0.05083191,0.09209374,0.10034993,-0.05323125,0.442712
 59,-0.01383158,0.00264450,-0.00637040,0.28601565,0.00022832,-0.0158971
 5,0.00189609,-0.02860070,0.33585235,-0.00945984,-0.00208037,-0.0107897
 4,-0.03173599,-0.00496803,0.27398524,0.00474571,0.00289218,-0.00015913
 ,-0.05632680,0.04054923,-0.00547884,0.17767237,-0.00573088,-0.01153951
 ,0.00687605,0.04179864,-0.06930419,-0.00306017,-0.11582098,0.22456338,
 0.00176036,0.00674335,-0.00014103,-0.00142672,-0.01168615,-0.01918369,
 0.09414565,-0.08361633,0.26977427,-0.01003314,0.00131160,0.00885574,-0
 .02952342,0.01438310,0.00040990,0.00074547,0.00295570,0.00421742,0.151
 85588,0.00582878,0.00370158,-0.00414138,0.01887589,-0.11214656,-0.0393
 0212,0.02338651,-0.02748159,-0.00026522,0.08148617,0.44330276,0.015207
 03,-0.00116545,-0.00534725,0.00085363,-0.03224620,-0.04002432,0.010525
 97,-0.00931616,0.00198073,0.03442258,0.12914717,0.12016146,-0.00266655
 ,-0.00078284,0.00149078,0.00819427,-0.00909691,0.00076423,-0.00527067,
 0.00463964,-0.00107865,-0.10900306,-0.06601210,-0.02796778,0.54160326,
 -0.00476074,-0.00263386,0.00133167,0.00564596,-0.04252087,-0.01973586,
 -0.00323850,0.00516161,0.00251486,-0.07285834,-0.18886786,-0.04356650,
 0.01058363,0.49103802,-0.00194886,0.00026535,0.00138354,0.00332063,-0.
 01869809,-0.00339083,-0.00054092,0.00071855,-0.00180674,-0.02881355,-0
 .04241363,-0.08099083,-0.00652765,-0.03396956,0.57854457,0.00053828,0.
 00057960,0.00000358,-0.00330117,0.00590039,0.00092445,0.00198258,-0.00
 209992,0.00025114,0.01519329,-0.02894859,-0.00840217,-0.16157314,0.068
 85997,0.01876442,0.55365742,-0.00037865,0.00088855,0.00106526,0.000575
 22,-0.00527234,-0.00230531,-0.00053062,0.00095343,0.00026254,0.0081562
 2,-0.03258764,-0.01043503,0.07019992,-0.11394068,-0.00419166,0.0105718
 9,0.48723262,-0.00006661,-0.00055486,-0.00024881,-0.00011826,-0.001282
 24,-0.00115225,0.00006011,0.00017466,0.00008405,0.00391233,-0.01319229
 ,-0.00310551,0.01876235,-0.00639402,-0.08590067,0.01771655,-0.04911688
 ,0.62318315,-0.22272303,0.02993537,-0.00024191,-0.01776638,-0.01255856
 ,0.01415735,-0.00510563,0.00527136,-0.00118998,0.00230704,-0.00174254,
 -0.00299985,0.00019739,0.00107085,0.00130735,-0.00012273,0.00067591,-0
 .00015312,0.47960373,0.02675911,-0.06562563,0.00774843,-0.00077336,0.0
 0473824,-0.00404989,0.00164833,-0.00138207,-0.00013503,-0.00022378,-0.
 00013273,-0.00021303,0.00041525,0.00053585,-0.00046941,-0.00003325,-0.
 00024879,0.00004271,-0.01268838,0.58392583,0.02782192,0.00475825,-0.09
 336756,0.00272795,-0.00291665,0.00102874,0.00005370,0.00046721,0.00054
 118,0.00154774,-0.00052296,-0.00216320,0.00047866,0.00087757,0.0002583
 1,-0.00008625,-0.00010811,0.00000818,-0.02248346,-0.04346989,0.5973217
 7,-0.03349917,-0.01453027,-0.02303033,-0.00326967,-0.00140749,-0.00026
 131,0.00095002,0.00065618,-0.00042126,0.00059177,-0.00019598,-0.000361
 53,-0.00000771,-0.00003943,0.00018301,0.00005219,0.00031181,-0.0000015
 1,-0.07829019,-0.03229655,-0.02821872,0.50265427,0.01211057,0.00729460
 ,0.00955011,-0.00216305,-0.00184075,0.00218637,-0.00064884,0.00042964,
 0.00033508,0.00026808,-0.00064554,-0.00048337,0.00029021,0.00051888,-0
 .00009076,-0.00004998,-0.00003100,0.00012330,-0.03617928,-0.14214686,-
 0.06020390,-0.00605731,0.57834371,0.00573689,0.00452058,0.00634137,-0.
 00099699,-0.00038805,0.00356343,0.00049455,0.00041325,-0.00078377,0.00
 015848,-0.00044350,-0.00067336,0.00014645,0.00028857,0.00023930,-0.000
 13108,-0.00017093,-0.00009216,-0.03103026,-0.05770467,-0.14987245,-0.0
 5288187,-0.04411905,0.59683088,-0.01161371,-0.00427715,-0.00959247,0.0
 0475885,0.00330747,-0.00242425,-0.00016569,-0.00120062,0.00035765,-0.0
 0083147,0.00034279,0.00062515,0.00004162,0.00008861,-0.00046550,-0.000
 02371,-0.00047095,0.00000091,-0.03349379,0.01106985,0.00276166,-0.2367
 0177,0.04819350,-0.03166943,0.45970572,-0.00613200,-0.00035732,-0.0047
 6869,0.00110249,0.00030050,-0.00075539,-0.00012852,-0.00013459,0.00003
 126,-0.00010675,0.00046546,0.00025719,-0.00015301,-0.00041409,0.000109
 68,0.00004875,0.00007466,-0.00006276,-0.01345225,0.00864504,0.00241565
 ,0.03488604,-0.07895529,0.02090792,-0.01041395,0.11207626,-0.00768683,
 -0.00370498,-0.00298388,0.00055717,0.00055164,-0.00194831,0.00007891,-
 0.00025407,0.00024474,-0.00008986,0.00028272,0.00037230,-0.00007466,-0
 .00029894,-0.00008390,0.00006493,0.00012259,0.00002549,-0.02182407,0.0
 0849894,0.00342876,0.01050415,0.01120617,-0.09201096,-0.16679208,-0.14
 235501,0.47001696,-0.00148500,-0.00337955,0.00075744,-0.01835051,0.022
 59829,0.00122031,-0.09090518,0.03346028,-0.05505855,0.00054419,-0.0003
 8923,-0.00121107,-0.00039543,0.00021983,0.00025602,-0.00004175,0.00010
 686,-0.00006939,0.00145530,-0.00065445,-0.00007302,0.00009710,-0.00003
 229,0.00015361,-0.00013798,-0.00002181,-0.00009810,0.57461512,-0.00002
 600,-0.00038997,-0.00026173,0.02330941,-0.02501836,0.00270640,0.028699
 38,-0.09908400,0.06273124,-0.00167470,0.00295984,0.00033039,-0.0005827
 6,-0.00087078,-0.00003862,0.00029832,-0.00015046,0.00002046,0.00023735
 ,-0.00082899,0.00007911,-0.00042017,-0.00011240,-0.00026728,0.00035760
 ,0.00007944,0.00005580,-0.03268321,0.56215257,-0.00122274,-0.00148016,
 0.00119404,-0.01651634,0.02514470,0.00697228,-0.05527695,0.06220644,-0
 .17498875,-0.00067963,-0.00757462,-0.00318761,0.00141155,0.00071130,0.
 00002947,-0.00066911,0.00025205,0.00005244,0.00067693,0.00029636,0.000
 14103,0.00026193,-0.00002877,0.00062961,-0.00035472,0.00000854,-0.0002
 2218,-0.06901306,-0.00751484,0.47304193,-0.00100537,-0.00031873,0.0013
 8914,-0.01360359,0.00196367,-0.01923943,-0.01304401,0.00291899,-0.0197
 4989,0.00162435,-0.00227890,0.00070282,0.00034481,0.00102328,-0.000445
 66,-0.00008579,0.00042357,0.00048084,0.00185312,-0.00095617,-0.0009508
 6,-0.00011108,-0.00075278,-0.00032034,-0.00023431,0.00026947,0.0000396
 8,-0.10156451,-0.04352704,-0.01523640,0.56264991,-0.00023122,0.0000954
 2,-0.00141923,0.00870813,0.00734520,0.01987276,0.01503975,-0.00187965,
 0.00374549,-0.00115575,0.00046966,-0.00224131,0.00020392,-0.00072156,0
 .00040573,-0.00001343,-0.00029583,-0.00024188,-0.00058680,0.00018746,0
 .00065044,-0.00056906,0.00014647,0.00067489,0.00089324,0.00003370,-0.0
 0033130,-0.05813044,-0.13588105,-0.05173123,0.04407328,0.45674259,0.00
 028709,-0.00000981,-0.00010126,-0.00306797,0.00439474,0.00000718,-0.02
 996139,-0.00969083,-0.04140582,-0.00173338,0.00118079,-0.00089925,-0.0
 0026289,-0.00080311,-0.00008481,0.00008698,-0.00007308,-0.00004629,0.0
 0004669,0.00004929,-0.00071947,0.00014636,-0.00012542,-0.00014731,-0.0
 0012317,-0.00010464,0.00007799,-0.02287349,-0.03787545,-0.10151081,-0.
 01694734,-0.06166396,0.62304982,0.00280364,-0.00008778,0.00102334,-0.0
 2339812,0.00183786,0.01115420,0.00785992,-0.00751300,-0.00282879,-0.00
 938571,0.01069914,-0.00713513,-0.00210271,-0.00376827,-0.00058960,0.00
 033656,-0.00050253,-0.00037249,-0.00040832,0.00055386,-0.00092400,0.00
 027665,-0.00021603,-0.00164450,-0.00100686,-0.00027261,0.00081414,-0.0
 0036534,0.00830325,-0.00055203,-0.12357495,0.07753853,-0.00564739,0.34
 360760,0.00055041,0.00011866,0.00224492,0.00488977,-0.02289347,-0.0041
 6812,-0.00085067,-0.00059617,-0.00228659,0.00929044,-0.00393870,0.0078
 6152,0.00060748,0.00158159,-0.00123996,0.00027745,0.00072189,0.0010682
 0,0.00045519,-0.00055181,-0.00035584,0.00056586,-0.00072832,-0.0018140
 9,-0.00105717,0.00008472,0.00063127,0.03180059,-0.04161891,-0.00930836
 ,0.06435794,-0.14781537,0.01829121,-0.15018685,0.26150889,-0.00073862,
 0.00235685,-0.00691723,0.00254440,-0.00778298,-0.01317728,0.00234673,-
 0.02014201,-0.00864886,-0.00415651,0.00733575,0.00208001,-0.00144479,-
 0.00212602,-0.00129854,0.00056296,-0.00021989,0.00026911,-0.00219537,0
 .00017752,0.00147293,-0.00023828,0.00026585,0.00095052,0.00112253,0.00
 022136,-0.00038714,0.00814461,-0.01591616,-0.00793043,0.01482239,0.006
 06585,-0.09175282,-0.17430973,0.00274480,0.42283132,-0.02610294,0.0339
 7138,-0.00945821,-0.00097911,0.00401888,-0.00124721,0.00100038,-0.0006
 2511,-0.00074939,-0.00028413,-0.00022081,0.00051069,-0.00004951,-0.000
 15278,-0.00013582,-0.00002826,-0.00007342,0.00002689,-0.04996435,0.033
 28082,-0.00610510,0.00241393,-0.01413733,0.00297127,0.00180526,0.00041
 602,0.00067084,0.00017768,-0.00080258,0.00089049,-0.00001266,0.0000221
 5,0.00029317,0.00010951,-0.00008161,-0.00000271,0.07023878,0.00918956,
 0.00022296,0.00064513,-0.00046041,-0.00068907,0.00100781,-0.00287841,-
 0.00076890,0.00033442,0.00005354,0.00014038,-0.00003317,-0.00007207,-0
 .00009329,0.00009241,0.00001533,0.00005499,-0.00002690,0.04097895,-0.2
 9620840,0.05500810,0.00285018,-0.02095376,0.00452068,-0.00018329,0.002
 82638,0.00065639,0.00006435,0.00012994,0.00021571,0.00081606,0.0001538
 5,0.00070437,-0.00009141,0.00012074,-0.00022016,-0.04822004,0.31994011
 ,-0.00071280,-0.00157077,0.00345681,0.00183571,-0.00045625,-0.00012027
 ,0.00028188,0.00024238,-0.00044448,-0.00010547,0.00033137,0.00005612,-
 0.00003057,-0.00010421,-0.00004262,0.00003128,-0.00002606,-0.00001281,
 -0.00960214,0.05666950,-0.06855990,0.00224914,-0.02496731,0.00550142,0
 .00186185,0.00193218,0.00083110,0.00024909,0.00052088,-0.00024763,0.00
 072199,0.00029580,-0.00108669,-0.00039516,0.00017560,0.00031409,0.0108
 0253,-0.05976361,0.06842582,-0.03229802,-0.00606922,0.03409075,0.00257
 315,0.00361903,-0.00260094,0.00069961,-0.00059137,0.00007919,-0.000896
 72,0.00053380,0.00109406,-0.00020425,-0.00045306,-0.00033805,0.0000516
 2,-0.00011319,0.00002625,-0.06999345,-0.01364484,0.06257117,0.00615554
 ,0.00346348,-0.01555982,0.00217840,0.00030775,0.00107704,-0.00015060,-
 0.00001413,-0.00014395,-0.00026829,-0.00000815,0.00001803,0.00024109,-
 0.00004110,0.00029279,0.00382801,-0.00020276,-0.00445957,0.08899465,0.
 00450306,0.00227750,-0.00692012,0.00069291,-0.00091590,0.00010752,-0.0
 0127866,-0.00019500,0.00023251,0.00009591,0.00019737,-0.00008287,-0.00
 001480,-0.00003567,-0.00000396,0.00002493,0.00000527,-0.00000400,-0.01
 712371,-0.06569970,0.05566279,0.00591536,0.00397212,-0.02291228,0.0011
 8988,0.00012134,0.00140086,0.00006045,0.00040858,-0.00031477,0.0006324
 5,0.00002232,0.00002306,-0.00007939,0.00023461,-0.00003478,-0.00858293
 ,-0.00378723,0.02876292,0.01679853,0.06298858,0.00184066,-0.00118328,0
 .00527417,-0.00117533,-0.00045158,0.00040421,0.00034515,0.00022862,-0.
 00013500,0.00012829,-0.00011434,-0.00009768,0.00001339,0.00002910,0.00
 003501,-0.00000287,0.00007564,0.00000919,0.07296713,0.05250908,-0.2810
 2193,0.00765427,0.00484924,-0.02153632,-0.00130072,-0.00009713,0.00206
 239,0.00003583,-0.00014268,0.00010155,-0.00015351,-0.00019900,0.000069
 25,0.00020205,0.00014606,-0.00013874,0.00124069,0.00086820,-0.00527635
 ,-0.07919422,-0.05389991,0.29995260,0.00187479,0.00098351,0.00053050,0
 .00055798,-0.00029221,0.00007651,-0.00035343,-0.00008495,0.00014053,0.
 00002224,0.00031649,0.00006697,-0.00017892,-0.00030128,0.00017674,0.00
 003425,0.00007687,-0.00004018,0.00268068,-0.01499064,0.00356140,-0.050
 46306,0.01673809,-0.00167348,-0.02220545,0.03942690,-0.01104924,-0.000
 03993,0.00009485,-0.00002935,0.00009764,0.00013816,-0.00009229,-0.0002
 4432,-0.00013860,0.00014181,-0.00152660,-0.00137369,-0.00235792,0.0005
 5813,0.00081418,0.00006620,0.06385230,-0.00113681,0.00193065,-0.000211
 55,0.00081851,-0.00019602,-0.00021239,-0.00041245,-0.00008186,0.000154
 41,-0.00004092,0.00038759,0.00013309,-0.00009537,-0.00027235,0.0001208
 8,0.00003833,0.00006852,-0.00005406,0.00241239,-0.02156577,0.00590679,
 0.02071705,-0.28652700,0.06517616,0.00987014,-0.00197739,0.00040806,-0
 .00001437,0.00012773,-0.00008192,0.00015153,0.00014388,-0.00008524,-0.
 00021542,-0.00007270,0.00016487,-0.00151374,-0.00095547,-0.00302484,0.
 00035788,0.00137307,0.00001045,-0.03036484,0.31048419,0.00144501,0.001
 31070,0.00030178,-0.00022957,0.00000381,-0.00036011,-0.00029153,-0.000
 07624,0.00029907,-0.00000192,-0.00021138,0.00001092,-0.00001017,0.0003
 1725,-0.00016052,-0.00003473,-0.00010350,0.00006482,0.00044978,-0.0258
 2633,0.00487411,-0.00544847,0.06771058,-0.07307661,-0.00259268,0.00206
 671,0.00278425,0.00000540,0.00008985,-0.00024851,-0.00004553,-0.000297
 94,0.00011984,0.00057074,0.00049708,-0.00030359,-0.00228050,-0.0028870
 2,-0.00236866,0.00087618,0.00064623,0.00151465,0.01002295,-0.06966559,
 0.07165589,0.00182244,0.00048042,0.00110080,-0.00088107,-0.00066976,-0
 .00084339,-0.00004567,0.00021607,0.00009458,0.00022295,0.00012139,0.00
 011144,-0.00033622,-0.00000990,-0.00023700,0.00001457,0.00016253,0.000
 15526,0.00608616,0.00223063,-0.01475339,-0.08240985,-0.01360554,0.0856
 2828,-0.02762234,-0.00453526,0.03419952,-0.00012311,-0.00003930,0.0000
 5589,0.00044625,-0.00070237,0.00003128,-0.00085902,-0.00060705,0.00063
 562,0.00053228,0.00025512,0.00076270,-0.00180045,-0.00216139,-0.002313
 40,0.00317561,-0.00029273,-0.00280396,0.10719151,0.00107141,0.00017227
 ,0.00200617,-0.00116828,0.00039664,-0.00077548,0.00025736,0.00001451,0
 .00020847,0.00004872,-0.00050292,-0.00004971,0.00017571,0.00040439,-0.
 00004664,-0.00006839,-0.00012180,0.00001804,0.00706768,0.00336983,-0.0
 2252230,-0.01777737,-0.06037777,0.04118973,0.00557548,0.00306641,-0.00
 801780,-0.00000374,-0.00009076,-0.00026509,-0.00074721,-0.00125279,0.0
 0054659,0.00011662,-0.00069134,0.00024867,0.00073561,0.00087859,0.0007
 1760,-0.00204431,-0.00171851,-0.00290466,-0.01136615,-0.00350438,0.027
 86208,0.01535361,0.06062940,-0.00000251,0.00014348,0.00241284,-0.00086
 518,-0.00055295,-0.00048127,-0.00000507,0.00010688,0.00010268,0.000068
 46,0.00005593,0.00006208,-0.00000236,-0.00010898,0.00021414,0.00005847
 ,0.00015581,-0.00003120,0.00804328,0.00297774,-0.02330486,0.09529899,0
 .03678649,-0.27570296,-0.00056058,-0.00133678,0.00811596,0.00003028,-0
 .00002470,-0.00006043,0.00036087,-0.00012713,-0.00007242,0.00125775,0.
 00167632,-0.00132191,0.00021845,0.00019809,0.00104872,-0.00229472,-0.0
 0298321,-0.00132281,0.00221454,0.00094461,-0.00574506,-0.10180160,-0.0
 3806760,0.29397364,0.00024381,0.00042219,-0.00009764,0.00088114,0.0006
 0595,-0.00190961,0.01397502,0.01024864,-0.00979386,-0.00014916,0.00004
 276,0.00028805,0.00003597,-0.00002091,-0.00009721,-0.00000010,-0.00000
 036,0.00000568,-0.00022078,0.00017094,-0.00005246,0.00006049,0.0000164
 5,-0.00007920,-0.00002423,-0.00003448,0.00003323,-0.18203761,-0.084676
 95,0.09245930,-0.01270627,-0.00554978,0.00635446,0.00182382,-0.0005865
 4,-0.00030938,0.00000818,0.00002812,-0.00013503,0.00002769,-0.00003353
 ,0.00001652,-0.00002528,-0.00002042,0.00003469,0.00000284,0.00007772,0
 .00003303,0.19091239,-0.00008319,-0.00040603,0.00017744,-0.00346726,0.
 00121776,0.00301503,-0.00186447,-0.01160363,0.01830058,0.00024645,-0.0
 0056484,-0.00028635,0.00009090,0.00013144,0.00004731,-0.00005447,0.000
 03436,0.00000180,0.00011891,0.00001319,-0.00001271,0.00011914,0.000044
 61,-0.00001583,-0.00010599,-0.00003706,0.00002072,-0.08194330,-0.10665
 984,0.05302657,-0.02118733,-0.01156407,0.01034130,0.00108814,0.0022079
 1,0.00021545,0.00010146,-0.00007780,-0.00005485,-0.00001299,-0.0000624
 2,0.00004146,-0.00002315,-0.00002954,0.00001575,-0.00001123,0.00006751
 ,0.00003155,0.09284129,0.11688623,0.00049219,0.00108772,-0.00039896,0.
 00611144,-0.00481953,-0.00379216,0.00416491,0.02837619,-0.02765649,-0.
 00024800,0.00127784,0.00062503,-0.00022816,-0.00026398,-0.00008885,0.0
 0010791,-0.00006898,-0.00000991,-0.00052842,0.00006689,0.00000025,-0.0
 0003469,-0.00003046,-0.00014838,0.00010767,-0.00000376,0.00005600,0.09
 366308,0.05416389,-0.10734712,-0.01660362,-0.01105521,0.00911457,0.000
 39361,0.00171782,0.00064666,-0.00020114,-0.00011562,-0.00000700,0.0000
 6499,0.00003166,-0.00001952,-0.00000617,0.00000965,0.00006195,-0.00003
 646,0.00005427,0.00004170,-0.09428630,-0.07090117,0.13152941,0.0002139
 0,0.00028474,-0.00018171,0.00172647,-0.00391234,-0.00169644,-0.0120549
 3,0.01588319,-0.00777087,0.00007682,0.00133334,0.00069543,-0.00029321,
 -0.00015332,-0.00005856,0.00012701,-0.00003489,0.00000974,-0.00010334,
 -0.00003363,-0.00000989,-0.00006536,-0.00000511,-0.00006486,0.00006629
 ,0.00001164,0.00001227,-0.17534304,0.11236772,0.06172086,0.00946059,-0
 .00791814,-0.00206172,0.00158774,-0.00441033,-0.00201650,-0.00010077,0
 .00016117,-0.00004396,0.00002753,0.00003315,-0.00001859,0.00000760,0.0
 0001398,0.00002017,0.00000250,-0.00000212,0.00000516,-0.01453032,0.014
 56387,0.00927897,0.18917186,-0.00025453,-0.00017464,0.00025822,-0.0020
 3961,0.00201228,0.00041852,0.01442224,-0.01293486,0.00532012,0.0001118
 7,-0.00129235,-0.00034458,0.00027172,0.00028478,0.00004302,-0.00010209
 ,0.00007059,0.00004992,0.00025265,-0.00008614,-0.00002012,0.00007084,0
 .00003811,-0.00004124,-0.00010563,-0.00000448,0.00001663,0.10981634,-0
 .15436253,-0.05473586,0.01609078,-0.01198719,-0.00708540,0.00098757,-0
 .00472998,-0.00281351,0.00002069,-0.00006017,0.00003181,-0.00003630,-0
 .00000505,0.00002411,-0.00000933,-0.00000690,0.00001396,0.00005111,0.0
 0004420,0.00002048,-0.01026313,0.01118781,0.00452860,-0.12924188,0.171
 72037,0.00028039,0.00006845,-0.00004831,-0.00028473,-0.00278078,-0.003
 28706,-0.02793858,0.02864529,0.00241546,0.00037392,0.00166720,0.000875
 79,-0.00034050,-0.00008864,-0.00003919,0.00015196,-0.00000764,0.000034
 27,-0.00016883,0.00006888,-0.00006648,0.00003701,-0.00001658,-0.000059
 79,-0.00002494,-0.00000269,0.00003712,0.06279112,-0.05978965,-0.077766
 68,0.01463117,-0.00669370,-0.00184719,0.00020755,-0.00508010,-0.001448
 38,0.00000666,-0.00014835,0.00003500,0.00003327,-0.00000768,0.00000766
 ,-0.00000813,-0.00001080,0.00001538,0.00002686,0.00003558,0.00002322,0
 .00996495,-0.01023627,-0.00346988,-0.05812183,0.05399363,0.08264039,0.
 00035938,0.00007110,-0.00023469,0.00057797,0.00082508,0.00129804,-0.00
 059799,-0.00034174,-0.00246202,-0.00039210,0.00044988,-0.00013705,-0.0
 0009357,-0.00026079,-0.00000724,0.00003850,-0.00004629,-0.00004584,-0.
 00050266,0.00040411,0.00014083,0.00014345,0.00015087,-0.00002120,-0.00
 005710,-0.00008420,0.00004113,-0.00107151,0.00220012,-0.01150092,-0.05
 604456,0.00737742,-0.02641439,-0.01022969,0.01364889,-0.02352090,0.000
 04659,-0.00031726,-0.00019206,0.00008158,-0.00019359,0.00006177,-0.000
 05207,-0.00005977,0.00004580,-0.00006302,0.00014598,0.00007561,0.00041
 942,0.00080590,0.00025310,-0.00008189,-0.00059098,-0.00043160,0.059913
 10,0.00018470,0.00004185,0.00032294,-0.00023378,-0.00394112,-0.0036974
 6,-0.00536230,-0.00054361,-0.00515542,0.00059119,-0.00002717,0.0005199
 5,0.00000298,0.00026400,-0.00001228,0.00001811,0.00006415,0.00006550,-
 0.00000216,0.00005350,-0.00005905,0.00011411,0.00008032,-0.00012767,-0
 .00012867,-0.00003409,0.00006167,-0.00183727,0.01247706,-0.01871601,0.
 00857019,-0.07044127,0.06426175,0.01466040,-0.01680444,0.02635395,-0.0
 0003945,-0.00011626,-0.00003319,0.00000333,-0.00004748,0.00003731,-0.0
 0002447,-0.00002581,0.00005052,0.00010147,0.00013626,0.00005928,0.0001
 0514,0.00115754,0.00072487,0.00096148,-0.00053880,0.00055604,-0.016752
 51,0.07798309,-0.00007033,0.00017970,-0.00018831,0.00202772,-0.0022371
 8,-0.00056514,-0.00388590,-0.00072979,-0.00249302,-0.00006518,0.000589
 01,0.00021388,-0.00011101,-0.00013819,-0.00002644,0.00005216,-0.000046
 61,-0.00001402,0.00004001,-0.00024355,0.00006343,-0.00014560,-0.000062
 93,0.00003222,0.00013231,0.00005432,-0.00003081,0.00124573,0.00780615,
 -0.01152206,-0.03547952,0.07229045,-0.29991792,0.00010512,-0.00165151,
 0.00650051,-0.00009566,0.00010089,0.00016429,-0.00000817,0.00009677,-0
 .00004658,0.00003816,0.00004232,-0.00002790,-0.00002033,-0.00009724,-0
 .00007220,-0.00019763,0.00012287,0.00119247,-0.00025567,-0.00076876,-0
 .00025755,0.03972977,-0.07788287,0.31582360,0.00054168,0.00005400,-0.0
 0006899,0.00020796,-0.00000088,0.00240788,0.00117097,0.00086441,-0.000
 05348,-0.00017408,0.00043415,-0.00026454,-0.00007788,-0.00023463,0.000
 02254,0.00003491,-0.00003302,-0.00003992,-0.00062292,0.00044396,0.0001
 6967,0.00066384,-0.00002868,0.00002741,-0.00012554,0.00014201,-0.00010
 274,-0.00912753,-0.00633499,0.00613632,-0.24003608,-0.07917945,0.08711
 462,-0.02524540,0.00694122,0.01154599,0.00020411,-0.00041991,-0.000417
 96,0.00008843,-0.00033330,0.00013654,-0.00015046,-0.00009996,0.0001258
 6,0.00000774,0.00043126,0.00002992,0.00033102,-0.00143065,-0.00149272,
 0.00096364,0.00017184,-0.00026312,0.00644981,0.00079329,-0.00182861,0.
 26711257,-0.00011114,-0.00001599,-0.00005239,-0.00000070,-0.00079270,-
 0.00202865,0.00102535,0.00236924,-0.00012840,0.00005182,-0.00015903,0.
 00037962,0.00003725,0.00016479,-0.00003240,-0.00001220,0.00001328,0.00
 001377,0.00011692,0.00014054,0.00047294,-0.00014621,-0.00045985,0.0010
 1051,0.00026655,0.00009762,-0.00027357,-0.02121154,-0.01182239,0.01155
 431,-0.08723116,-0.07857312,0.04117137,0.03476486,0.00054231,-0.015095
 34,0.00004325,-0.00002863,0.00022144,-0.00007929,-0.00011180,-0.000093
 85,0.00010925,0.00009277,-0.00027324,0.00040971,-0.00105002,-0.0003655
 6,-0.00216731,-0.00276190,-0.00373795,0.00037054,0.00092418,0.00039736
 ,-0.00713413,-0.00129131,0.00213997,0.07719637,0.09429980,0.00043110,-
 0.00025327,0.00030665,-0.00103013,0.00008273,-0.00043911,0.00202545,0.
 00022166,0.00162189,0.00009208,-0.00015660,0.00000224,0.00001856,0.000
 07467,0.00000411,-0.00001142,0.00003259,0.00001460,-0.00010264,0.00077
 022,-0.00095921,-0.00003323,0.00040718,-0.00010549,-0.00022632,-0.0002
 7334,0.00005308,-0.01710279,-0.00783832,0.00803125,0.09140808,0.037621
 74,-0.09818717,0.00023731,-0.00206102,0.00318950,-0.00022587,0.0004567
 4,-0.00173068,0.00003635,-0.00002618,0.00005477,-0.00006212,-0.0001111
 4,-0.00001167,-0.00002181,-0.00000189,0.00024094,-0.00201749,-0.002546
 39,-0.00134020,0.00052480,0.00096635,0.00097101,0.02545399,0.01027430,
 -0.00990671,-0.09917671,-0.03790491,0.09740344,0.00014833,0.00020188,-
 0.00018190,-0.00158200,0.00424732,0.00100831,0.00036909,-0.00061795,-0
 .00018210,-0.00974398,-0.01182705,-0.01658022,-0.11205073,0.02770442,-
 0.09872680,-0.01432862,0.00750096,-0.02222053,0.00000406,0.00002082,-0
 .00001577,-0.00004264,-0.00006570,0.00009080,0.00007564,0.00000118,-0.
 00004178,0.00001392,0.00015528,-0.00008253,0.00005732,-0.00007676,0.00
 011371,-0.00007166,0.00076590,0.00059341,-0.00000913,0.00000306,0.0000
 0089,0.00001802,-0.00000003,-0.00000911,0.00004098,-0.00002585,0.00000
 571,0.00007468,0.00005413,-0.00010499,0.00000644,-0.00001752,0.0000340
 5,0.00002189,-0.00002314,0.00003239,0.00001456,-0.00000097,0.00001191,
 -0.00000411,0.00000760,0.00000366,0.12661925,0.00035574,0.00024657,0.0
 0013306,-0.00260297,0.00533816,0.00153049,0.00089809,-0.00118899,-0.00
 048901,-0.02213224,-0.00868488,-0.03346543,0.02860996,-0.05815242,0.04
 799157,0.01287477,-0.00538101,0.02024975,-0.00004240,-0.00000875,-0.00
 007647,0.00003921,-0.00003148,-0.00010832,-0.00003624,0.00001147,0.000
 03838,-0.00038171,0.00024074,-0.00045423,0.00044766,-0.00027307,0.0001
[...]
 -0.00001216,-0.00000259,0.00000070,-0.00000926,-0.00000725,-0.00000167
 ,-0.00000021,0.00001150,0.00000151,-0.00000017,0.00001427,0.00001067,-
 0.00001441,0.00000008,-0.00000037,-0.00000082,-0.00000864,-0.00000390,
 0.00001132,-0.00000686,-0.00000351,0.00000162,0.00000057,-0.00000090,-
 0.00000077,0.02155461,-0.02484102,-0.00828040,-0.01582989,0.03892109,-
 0.05316933,-0.01054650,0.03103166,-0.00584777,0.00241629,-0.00018331,0
 .00256820,0.00003588,-0.00003608,0.00007894,-0.00312777,-0.00024746,-0
 .00490621,0.00076936,-0.00049765,0.00092078,-0.00045617,-0.00087825,-0
 .00025199,0.00720984,-0.03486074,0.06535678,-0.00068316,-0.00034305,0.
 00035368,0.00287856,0.00289331,-0.00313448,-0.00073619,0.00082082,0.00
 021273,0.00051732,-0.00122912,-0.00059985,0.00020101,0.00025514,0.0001
 4948,-0.00012581,0.00005856,0.00002612,0.00022410,-0.00011441,0.000040
 09,0.00004646,0.00003724,0.00002286,-0.00009465,-0.00001783,-0.0000111
 4,0.00018320,-0.00015575,0.00030861,0.00025685,-0.00017010,-0.00002363
 ,-0.00062218,-0.00007892,-0.00022349,0.00000567,0.00000880,-0.00002768
 ,-0.00006619,-0.00001100,0.00001603,-0.00000601,-0.00001074,0.00000320
 ,0.00001642,0.00001716,0.00001254,0.00001383,-0.00001341,-0.00004958,-
 0.00006871,0.00005328,-0.00002555,-0.00002859,0.00001305,-0.00003846,-
 0.00003907,0.00002052,0.00001584,-0.00002184,-0.00002635,-0.00003756,-
 0.00002974,-0.00006146,-0.00000855,0.00001281,0.00000306,-0.00001631,0
 .00000815,-0.00000736,0.00000729,0.00001969,-0.00012038,-0.00005316,-0
 .00000191,0.00001441,0.00001730,0.00001106,0.00000760,-0.00000301,0.00
 029340,0.00010668,0.00004202,-0.00010539,-0.00018579,0.00026260,0.0000
 2636,0.00031636,-0.00070918,0.00041822,-0.00016537,0.00131559,0.000028
 81,0.00002399,-0.00001485,0.00001086,-0.00002705,0.00008441,0.00001827
 ,0.00000688,0.00001266,-0.00000103,-0.00000585,0.00001758,0.00000552,-
 0.00000274,0.00001736,0.00001091,0.00000706,0.00000123,-0.00002288,-0.
 00001429,0.00000368,-0.00002999,-0.00002714,0.00002617,0.00000044,-0.0
 0000038,0.00000145,0.00001440,0.00001662,-0.00001205,0.00001608,0.0000
 0988,-0.00000026,-0.00000086,-0.00000091,0.00000076,-0.02741982,-0.008
 71459,0.01602959,-0.20254768,-0.12333960,-0.01690506,-0.01107486,-0.01
 065500,-0.00080360,-0.00119756,-0.00060334,-0.00304839,-0.00007421,0.0
 0004690,-0.00014322,0.00016487,0.00027866,0.00055297,0.00066091,0.0003
 2459,-0.00026243,-0.00021883,0.00026565,0.00002298,0.00872626,0.004910
 87,0.00029203,0.23042522,0.00021891,0.00005937,0.00001736,0.00061817,-
 0.00035471,-0.00095106,-0.00018379,-0.00003768,-0.00000924,-0.00084350
 ,0.00024496,0.00058664,0.00008679,0.00028621,0.00012107,0.00003506,0.0
 0006559,-0.00002347,-0.00001081,0.00005003,-0.00002475,0.00001019,-0.0
 0000667,-0.00001302,-0.00000331,0.00000172,0.00000765,0.00000263,-0.00
 001666,0.00001808,0.00005680,-0.00006156,0.00001075,-0.00017271,0.0000
 7096,0.00016704,-0.00000219,-0.00000684,-0.00000026,0.00001211,-0.0000
 0201,0.00000251,-0.00000039,-0.00000004,0.00000053,0.00000458,0.000002
 81,0.00000463,0.00002780,-0.00000369,-0.00000499,0.00000215,0.00000411
 ,0.00000829,0.00000178,0.00000562,-0.00000645,-0.00001475,0.00001012,0
 .00000221,0.00000410,0.00000559,-0.00002701,-0.00005148,-0.00007100,0.
 00000516,-0.00002792,-0.00000543,0.00000895,0.00000078,-0.00000869,0.0
 0000776,-0.00002021,-0.00006819,-0.00001346,0.00000398,0.00000927,0.00
 000879,-0.00000085,0.00000038,-0.00000052,0.00033486,-0.00004080,-0.00
 013535,-0.00001092,-0.00001348,0.00001332,-0.00001597,0.00001324,-0.00
 004854,-0.00002647,-0.00002819,0.00006119,0.,-0.00000007,-0.00000184,0
 .00000317,0.00000145,-0.00000024,0.00000165,0.00000108,-0.00000020,0.0
 0000022,-0.00000438,0.00000020,0.00000027,-0.00000054,0.00000147,0.000
 00115,0.00000125,-0.00000055,-0.00000696,0.00000146,0.00000247,0.00000
 032,-0.00000051,0.00001049,-0.00000020,0.00000028,0.00000008,0.0000035
 4,-0.00000203,-0.00000292,-0.00000133,-0.00000097,-0.00000310,-0.00000
 019,0.00000122,0.00000077,0.01033508,0.01033131,0.00034526,-0.12665289
 ,-0.15239244,-0.00938696,0.00358543,0.00093545,0.00160915,0.00000339,0
 .00147196,0.00002151,-0.00000615,-0.00001458,0.00001004,-0.00021518,0.
 00024592,-0.00061422,-0.00040804,0.00010973,-0.00054765,0.00044362,0.0
 0043248,0.00071908,-0.02270559,-0.01675705,-0.00353964,0.13558361,0.15
 553404,0.00083859,0.00047081,-0.00037847,-0.00219782,-0.00225135,0.001
 48207,0.00068982,-0.00083977,-0.00010487,-0.00013929,0.00105913,0.0005
 7232,-0.00024148,-0.00023770,-0.00021983,0.00011438,-0.00003416,-0.000
 00229,-0.00023360,0.00013823,-0.00006208,-0.00003091,-0.00003908,-0.00
 004132,0.00008095,0.00001555,0.00002183,-0.00018784,0.00013544,-0.0003
 1025,-0.00005237,-0.00007725,0.00006527,-0.00002281,0.00020794,0.00086
 455,0.00000108,-0.00001370,0.00002044,0.00007301,0.00000701,-0.0000112
 8,0.00000185,0.00000748,0.00000102,-0.00000758,-0.00000483,-0.00000529
 ,-0.00000288,-0.00000557,0.00005081,0.00006494,-0.00003920,0.00005115,
 0.00003946,-0.00000042,0.00001654,-0.00000646,0.00001925,-0.00000630,0
 .00005980,0.00006574,0.00004549,0.00005030,0.00006648,0.00002284,-0.00
 001542,0.00000620,0.00000455,-0.00000482,-0.00000103,-0.00000703,-0.00
 001368,0.00011385,0.00004547,0.00000036,-0.00000975,-0.00001676,-0.000
 01134,-0.00000690,0.00000218,0.00094442,-0.00017576,-0.00108481,0.0000
 5064,0.00012241,-0.00020014,-0.00005850,-0.00025366,0.00052496,-0.0003
 3656,0.00010789,-0.00094968,-0.00002504,-0.00002123,0.00001091,-0.0000
 0603,0.00002200,-0.00007013,-0.00001490,-0.00000515,-0.00000990,-0.000
 00381,0.00000896,-0.00002287,-0.00000449,0.00000216,-0.00001436,-0.000
 00919,-0.00000673,0.00000205,0.00001565,0.00000772,-0.00000583,0.00002
 491,0.00002932,-0.00003719,-0.00000021,0.00000002,-0.00000094,-0.00001
 262,-0.00001585,0.00003780,-0.00000585,-0.00000755,0.00000978,-0.00000
 083,-0.00000059,-0.00000132,0.03421765,0.01400644,-0.00965657,-0.01886
 642,-0.00892068,-0.04922287,-0.01937311,-0.01933097,0.00260437,-0.0072
 4190,-0.00160709,-0.00657583,0.00007952,-0.00005047,0.00016057,0.00047
 193,0.00085175,0.00089395,0.00080743,-0.00047987,0.00062146,-0.0000433
 8,0.00094706,0.00014490,0.00426183,0.00443564,0.00173830,0.00628415,0.
 01158339,0.05900103,-0.00007289,-0.00000460,-0.00005470,0.00010206,-0.
 00001542,0.00026254,-0.00004241,0.00005728,-0.00000734,0.00000885,-0.0
 0005969,-0.00003096,0.00001319,0.00002023,0.00000501,-0.00000535,0.000
 00475,0.00000184,0.00003480,-0.00000874,-0.00000751,0.00000234,0.00000
 532,0.00000364,-0.00001022,-0.00000194,-0.00000187,0.00000642,-0.00001
 479,0.00001567,0.00000793,-0.00000539,-0.00000562,-0.00002899,0.000001
 69,-0.00002796,-0.00000329,0.00000159,-0.00000160,-0.00000367,-0.00000
 125,0.00000358,-0.00000019,-0.00000080,0.,0.00000085,0.00000084,0.0000
 0100,-0.00000005,0.00000190,-0.00000412,-0.00000308,0.00000325,-0.0000
 0229,-0.00000194,0.00000033,-0.00000206,-0.00000126,0.00000046,0.00000
 089,-0.00000269,-0.00000366,-0.00000336,-0.00000196,-0.00000233,0.0000
 0031,0.00000044,-0.00000018,-0.00000054,0.00000050,-0.00000005,0.00000
 032,-0.00000021,-0.00000807,-0.00000348,0.00000011,0.00000092,0.000001
 13,0.00000113,0.00000053,-0.00000063,-0.00000348,0.00000210,0.00000956
 ,-0.00021965,-0.00018532,-0.00002049,0.00089649,0.00058354,-0.00046414
 ,-0.00053147,0.00013407,-0.00085679,0.00441949,0.00861863,-0.02288371,
 -0.00119141,-0.00431405,-0.00362922,-0.05418678,-0.01002108,0.00239838
 ,-0.00121564,-0.00022310,-0.00013608,0.00342176,-0.00872418,0.02344944
 ,-0.00138172,-0.00556587,-0.00014774,-0.00016550,0.00046424,0.00017047
 ,0.00094436,0.00004957,0.00081526,-0.00030739,0.00243077,0.00027035,-0
 .00058021,-0.00037489,0.00053172,-0.00016576,-0.00008309,-0.00009571,0
 .00001773,-0.00000025,-0.00000042,0.00004784,0.00002969,-0.00005548,-0
 .00002038,0.00000914,0.00001542,0.00000627,-0.00000325,0.00000062,0.00
 000079,-0.00000047,-0.00000792,0.00007561,0.00001019,0.00007829,-0.000
 00044,0.00000027,0.00000056,-0.00000040,-0.00000022,-0.00000330,-0.000
 00004,0.00000094,0.00000362,0.00000148,-0.00000206,-0.00000219,0.00000
 429,0.,-0.00000365,0.05046154,-0.00000282,-0.00000350,0.00000050,0.000
 01681,-0.00000193,0.00003354,-0.00000245,0.00000306,-0.00000048,0.0000
 0274,-0.00001414,-0.00000744,0.00000227,0.00000421,0.00000004,-0.00000
 212,0.00000063,-0.00000104,0.00000041,-0.00000036,-0.00000030,0.000000
 02,0.00000113,0.,-0.00000019,-0.00000101,-0.00000024,0.00000037,-0.000
 00069,0.00000224,0.00000121,-0.00000090,-0.00000051,-0.00000681,-0.000
 00137,-0.00000763,0.00000020,-0.00000019,0.00000020,-0.00000006,0.0000
 0040,0.00000017,-0.00000012,-0.00000055,0.00000001,0.00000013,0.,-0.00
 000001,0.,0.00000017,-0.00000028,-0.00000008,0.00000030,-0.00000023,-0
 .00000041,0.00000029,-0.00000025,-0.00000023,0.00000019,0.00000006,-0.
 00000034,-0.00000089,-0.00000005,-0.00000072,-0.00000064,-0.00000003,0
 .00000018,0.00000011,-0.00000006,0.00000028,-0.00000042,0.00000026,0.0
 0000086,-0.00000119,0.00000028,-0.00000014,0.00000013,0.,-0.00000001,0
 .00000053,0.00000011,-0.00000147,0.00000054,0.00000228,-0.00002117,0.0
 0004885,0.00006320,0.00001218,0.00035708,-0.00028334,-0.00001532,-0.00
 016362,-0.00027664,-0.00041285,0.00660577,-0.00819821,-0.00410316,0.00
 491065,0.00045971,-0.01004955,-0.08212775,0.09950277,-0.00021455,-0.00
 074112,-0.00051350,0.00032599,-0.00235371,0.01755954,-0.00576926,0.003
 14989,0.00193060,0.00046272,-0.00062786,-0.00020194,0.00064345,0.00057
 519,0.00062420,0.00222902,-0.00235698,-0.00145306,-0.00029959,-0.00060
 259,0.00035864,-0.00021434,-0.00008848,-0.00007245,0.00000933,0.000021
 48,0.00000654,0.00001027,0.00000425,-0.00000979,-0.00000417,0.00000275
 ,0.00000330,0.00000076,-0.00000064,-0.00000039,0.00000086,-0.00000016,
 -0.00000117,-0.00000205,0.00000738,0.00000111,0.00000009,-0.00000005,0
 .00000025,-0.00000001,-0.00000002,-0.00000058,-0.00000015,0.00000026,0
 .00000041,0.00000026,-0.00000093,-0.00000082,0.00000086,0.00000018,-0.
 00000093,0.01513182,0.07603604,-0.00011184,-0.00000350,-0.00010155,0.0
 0013810,-0.00002541,0.00036760,-0.00005123,0.00006799,-0.00001352,0.00
 001193,-0.00008300,-0.00004706,0.00001689,0.00002951,0.00000649,-0.000
 00783,0.00000719,0.00000157,0.00005327,-0.00001244,-0.00001138,0.00000
 347,0.00000881,0.00000603,-0.00001542,-0.00000397,-0.00000375,0.000008
 48,-0.00001937,0.00002070,0.00000937,-0.00000540,-0.00000616,-0.000032
 97,0.00000090,-0.00003634,-0.00000532,0.00000239,-0.00000213,-0.000004
 49,-0.00000126,0.00000529,-0.00000041,-0.00000158,0.00000005,0.0000010
 6,0.00000105,0.00000118,-0.00000009,0.00000249,-0.00000504,-0.00000374
 ,0.00000404,-0.00000260,-0.00000243,0.00000036,-0.00000294,-0.00000135
 ,0.00000042,0.00000126,-0.00000367,-0.00000550,-0.00000451,-0.00000286
 ,-0.00000286,0.00000056,0.00000077,-0.00000027,-0.00000078,0.00000073,
 -0.00000032,0.00000065,0.00000046,-0.00001136,-0.00000448,-0.00000009,
 0.00000137,0.00000156,0.00000181,0.00000137,-0.00000049,-0.00000522,0.
 00000296,0.00001277,-0.00048286,-0.00022360,-0.00013658,0.00109805,0.0
 0070307,0.00023199,-0.00044522,-0.00001395,-0.00100481,0.00208977,0.00
 758965,-0.01343979,-0.00418173,0.00010812,0.00004321,0.00249531,0.0995
 7915,-0.31100237,-0.00016420,-0.00053357,0.00039646,-0.00154644,0.0017
 2892,-0.00370285,0.00040746,0.00228267,0.00189910,0.00017418,-0.000199
 45,-0.00013948,-0.00081286,-0.00040525,0.00009961,0.00081870,-0.001103
 85,0.00019602,0.00030788,0.00021420,-0.00034313,0.00026415,0.00015531,
 0.00005351,-0.00002658,-0.00000996,-0.00000061,0.00005942,0.00003554,-
 0.00007500,-0.00002732,0.00001338,0.00002140,0.00000839,-0.00000387,0.
 00000117,0.00000085,-0.00000136,-0.00001106,0.00012803,0.00002135,0.00
 014694,-0.00000042,0.00000025,0.00000081,-0.00000044,-0.00000032,-0.00
 000448,-0.00000018,0.00000148,0.00000503,0.00000199,-0.00000308,-0.000
 00295,0.00000539,0.00000004,-0.00000417,-0.00100569,-0.10867029,0.3261
 4211,0.00007364,-0.00000605,0.00006807,-0.00004924,-0.00001994,-0.0001
 8352,0.00002457,-0.00003459,0.00001075,-0.00001016,0.00004443,0.000016
 72,-0.00000734,-0.00001368,-0.00000252,0.00000533,-0.00000257,0.000001
 67,-0.00002746,0.00000518,0.00000675,-0.00000174,-0.00000582,-0.000003
 40,0.00000808,0.00000291,0.00000294,-0.00000439,0.00001086,-0.00001073
 ,-0.00000386,0.00000231,0.00000315,0.00001251,-0.00000004,0.00001802,0
 .00000320,-0.00000094,0.00000115,0.00000095,0.00000065,-0.00000264,0.0
 0000033,0.00000105,-0.00000025,-0.00000023,-0.00000061,-0.00000029,-0.
 00000003,-0.00000139,0.00000281,0.00000177,-0.00000169,0.00000112,0.00
 000097,0.,0.00000156,0.00000034,-0.00000025,-0.00000079,0.00000145,0.0
 0000254,0.00000144,0.00000177,0.00000121,0.00000019,-0.00000063,0.0000
 0003,0.00000028,-0.00000090,0.00000089,-0.00000033,-0.00000154,0.00000
 437,0.00000071,0.00000025,-0.00000053,-0.00000049,-0.00000104,-0.00000
 109,-0.00000022,0.00000339,-0.00000216,-0.00000627,-0.00016717,0.00036
 522,-0.00188628,-0.00239139,0.00101336,0.00032102,0.00036487,-0.000140
 56,0.00051275,-0.22004350,-0.13477479,0.06225808,0.00383204,-0.0010883
 7,0.00035122,-0.01031178,-0.01298807,0.00756770,0.00252602,-0.00193613
 ,-0.00140138,0.00002883,-0.00346245,-0.00413593,0.00007374,0.00068061,
 -0.00061093,0.00016792,0.00009375,-0.00013525,-0.00049061,0.00042052,0
 .00015655,-0.00062966,-0.00029894,0.00051991,0.00006187,-0.00007876,-0
 .00000045,0.00000753,-0.00007561,0.00006186,0.00000377,0.00001566,0.00
 002292,-0.00002619,-0.00001509,0.00003977,0.00001421,-0.00000681,-0.00
 001162,-0.00000378,0.00000239,-0.00000037,-0.00000123,0.00000072,0.000
 00502,-0.00007723,0.00002231,-0.00009555,0.00000007,-0.00000004,-0.000
 00059,0.00000037,0.00000002,0.00000230,0.00000016,-0.00000083,-0.00000
 208,-0.00000117,0.00000200,0.00000179,-0.00000281,-0.00000034,0.000002
 13,-0.00032779,0.00227108,0.00083699,0.22736294,-0.00006758,0.00001770
 ,-0.00008677,-0.00005461,0.00002555,0.00005665,0.00000093,0.00000357,-
 0.00001147,0.00000895,-0.00001223,0.00000152,0.00000158,0.00000359,0.0
 0000131,-0.00000195,0.00000069,-0.00000257,0.00002110,-0.00000179,-0.0
 0000967,0.00000065,0.00000638,0.00000314,-0.00000598,-0.00000388,-0.00
 000290,0.00000183,-0.00000364,0.00000417,-0.00000111,0.00000108,0.0000
 0066,0.00000766,-0.00000122,-0.00000101,-0.00000337,0.00000059,0.00000
 007,0.00000027,0.00000110,0.00000154,-0.00000042,-0.00000168,-0.000000
 14,-0.00000026,-0.00000018,-0.00000023,-0.00000002,0.00000059,-0.00000
 124,-0.00000012,-0.00000006,0.00000004,0.00000041,-0.00000052,-0.00000
 072,0.00000072,0.,0.00000064,0.00000004,-0.00000058,0.00000036,-0.0000
 0095,0.00000080,-0.00000014,0.00000025,-0.00000004,0.00000006,0.000000
 65,-0.00000074,0.00000008,0.00000102,-0.00000064,0.00000115,-0.0000001
 6,0.00000004,-0.00000017,0.00000084,0.00000175,0.00000036,-0.00000182,
 0.00000130,0.00000113,-0.00007420,0.00076647,-0.00148375,0.00017716,-0
 .00373341,-0.00102315,0.00015255,0.00038076,0.00004703,-0.13437651,-0.
 14759191,0.05364533,-0.00908168,-0.00156012,0.00317996,-0.00439725,0.0
 0194001,0.00313281,-0.00185271,0.00405151,0.00319347,-0.00335900,0.005
 43425,0.00077923,0.00066539,-0.00014063,-0.00025558,-0.00036863,-0.000
 13711,-0.00001282,0.00045127,-0.00086106,-0.00026186,0.00011876,-0.000
 39233,0.00004953,-0.00012310,0.00010409,0.00001224,-0.00007318,0.00003
 414,0.00002971,0.00001711,-0.00002150,-0.00000535,0.00000983,0.0000024
 6,-0.00000887,-0.00000315,0.00000205,0.00000218,0.00000049,-0.00000048
 ,-0.00000039,0.00000122,-0.00000062,-0.00000034,0.00015170,-0.00000104
 ,0.00011678,0.00000021,-0.00000016,0.00000040,-0.00000016,0.00000004,-
 0.00000054,-0.00000006,0.00000037,-0.00000008,0.00000038,-0.00000098,-
 0.00000069,0.00000036,0.00000042,-0.00000067,0.00206063,-0.00263976,-0
 .00121920,0.14999402,0.14432703,0.00032356,-0.00004719,0.00042220,-0.0
 0008242,0.00010608,-0.00045238,0.00005396,-0.00008828,0.00001883,-0.00
 002037,0.00008160,0.00006066,-0.00001572,-0.00003125,-0.00001192,0.000
 00693,-0.00001009,-0.00000453,-0.00013454,0.00002916,0.00004356,-0.000
 00563,-0.00002145,-0.00001670,0.00003852,0.00000822,0.00001043,-0.0000
 1005,0.00002425,-0.00002458,-0.00001030,0.00000705,0.00000576,0.000023
 05,-0.00000603,0.00004043,0.00001836,-0.00000650,0.00000435,0.00000725
 ,0.00000299,-0.00001376,0.00000018,0.00000202,-0.00000029,-0.00000117,
 -0.00000198,-0.00000218,-0.00000018,-0.00000369,0.00000703,0.00000469,
 -0.00000495,0.00000273,0.00000245,-0.00000068,0.00000391,0.00000017,0.
 00000011,-0.00000224,0.00000401,0.00000510,0.00000638,0.00000175,-0.00
 000128,-0.00000111,-0.00000161,0.00000083,0.00000231,0.00000023,0.0000
 0007,-0.00000099,-0.00000028,0.00001359,0.00000765,0.00000031,-0.00000
 192,-0.00000255,-0.00000450,-0.00000213,0.00000125,0.00000865,-0.00000
 414,-0.00001575,-0.00081688,-0.00079761,0.00099264,0.00257746,0.000489
 17,-0.00089782,-0.00025067,-0.00050589,0.00122088,0.06115735,0.0530023
 7,-0.08201512,0.02252471,0.01713609,-0.00263437,-0.01612860,-0.0118904
 3,0.01044460,-0.00162336,0.00306964,-0.00490077,-0.00439770,0.00062297
 ,-0.00155272,-0.00054623,-0.00021964,-0.00101738,0.00115113,0.00079455
 ,-0.00010798,0.00005609,-0.00032759,-0.00024288,-0.00064495,-0.0006869
 9,0.00032499,0.00012626,0.00009547,0.00014553,0.00005367,0.00002445,0.
 00011769,0.00001904,-0.00000760,0.00002064,-0.00007533,-0.00004815,0.0
 0009302,0.00003121,-0.00001431,-0.00002434,-0.00000851,0.00000605,-0.0
 0000016,-0.00000354,-0.00000051,0.00001342,-0.00052265,-0.00007407,-0.
 00056463,0.00000058,-0.00000044,-0.00000080,0.00000031,0.00000034,0.00
 000498,0.00000049,-0.00000097,-0.00000625,-0.00000172,0.00000351,0.000
 00322,-0.00000690,-0.00000043,0.00000577,0.00142693,-0.00084829,0.0004
 4694,-0.06430545,-0.05987123,0.08004236\\-0.00000567,-0.00000636,-0.00
 001064,-0.00000936,0.00000416,-0.00000722,-0.00000489,0.00000171,0.000
 01605,0.00000858,0.00000416,0.00001375,-0.00001216,-0.00001267,-0.0000
 1903,0.00000406,0.00000750,-0.00000129,-0.00000798,-0.00000052,-0.0000
 0182,0.00000421,-0.00000176,0.00000725,-0.00000119,-0.00000280,-0.0000
 0185,-0.00000659,-0.00000430,-0.00001248,0.00001464,-0.00000701,0.0000
 0481,-0.00000943,-0.00000283,0.00001029,-0.00000068,-0.00000523,-0.000
 00060,0.00000022,0.00000338,0.00000094,0.00000054,-0.00000190,-0.00000
 230,0.00000233,0.00000155,-0.00000377,0.00000111,-0.00000106,-0.000000
 19,0.00000126,0.00000151,0.00000177,-0.00000502,0.00000150,-0.00000100
 ,-0.00000259,0.00000115,-0.00000220,0.00000436,0.00000216,-0.00000044,
 0.00000532,0.00000154,0.00000122,0.00000065,0.00000198,-0.00000098,0.0
 0000139,-0.00000016,-0.00000180,-0.00000043,-0.00000112,-0.00000211,0.
 00000318,0.00000046,-0.00000138,0.00000214,-0.00000214,-0.00000143,0.0
 0000370,0.00000476,-0.00000494,0.00000192,0.00000057,0.00000422,0.0000
 0157,-0.00000615,0.00000529,0.00000702,0.00000666,-0.00000322,-0.00000
 080,-0.00000180,0.00000069,-0.00000593,0.00000084,-0.00000334,-0.00000
 140,-0.00000284,0.00000303,0.00000309,0.00000098,0.00000102,0.00000119
 ,0.00000167,-0.00000232,-0.00000488,-0.00000199,0.00000209,-0.00000084
 ,0.00000091,0.00000032,0.00000616,0.00000141,0.00000164,-0.00000089,-0
 .00000062,0.00000049,-0.00000289,0.00000131,0.00000187,-0.00000359,0.0
 0000110,-0.00000231,-0.00000214,0.00000184,0.00000300,-0.00000142,0.00
 000552,0.00001608,0.00001020,0.00000181,-0.00001959,0.00000180,0.00000
 186,-0.00000125,0.00000342,-0.00000322,0.00000798,0.00000752,-0.000005
 51,0.00000396,-0.00000006,0.00000325,0.00000063,-0.00000210,0.00000159
 ,0.,-0.00000209,0.00000141,-0.00000244,-0.00000328,0.00000175,0.000000
 81,-0.00000278,0.00000100,0.00000377,-0.00000064,-0.00000021,-0.000001
 03,0.00000012,-0.00000080,0.\\\@


 IT'S WHAT YOU LEARN AFTER YOU KNOW IT ALL
 THAT COUNTS.
 Job cpu time:       3 days 12 hours  0 minutes  4.5 seconds.
 Elapsed time:       0 days  2 hours 20 minutes  6.8 seconds.
 File lengths (MBytes):  RWF=   5551 Int=      0 D2E=      0 Chk=     93 Scr=      1
 Normal termination of Gaussian 16 at Thu Aug 29 18:13:33 2019.
