 Entering Gaussian System, Link 0=g16
 Initial command:
 /nopt/nrel/apps/gaussian/g16B/g16/l1.exe "/dev/shm/Gau-222106.inp" -scrdir="/dev/shm/"
 Default is to use a total of  36 processors:
                               36 via shared-memory
                                1 via Linda
 Entering Link 1 = /nopt/nrel/apps/gaussian/g16B/g16/l1.exe PID=    222108.
  
 Copyright (c) 1988-2017, Gaussian, Inc.  All Rights Reserved.
...
 ******************************************
 Gaussian 16:  ES64L-G16RevB.01 20-Dec-2017
                 6-Apr-2020 
 ******************************************
 %RWF=/dev/shm/,5GB,/scratch/hmayes/tieg5pdc2tsc_ts_ircr_opt_2841707/,-1
 %NoSave
 %OldChk=tieg5pdc2tsc_ts_ircr_opt.chk
 %Chk=/dev/shm/tieg5pdc2tsc_ts_ircr_opt.chk
 %CPU=0-35
 SetSPE:  set environment variable "MP_BIND" = "yes"
 SetSPE:  set environment variable "MP_BLIST" = "0,1,2,3,4,5,6,7,8,9,10,11,12,13,14,15,16,17,18,19,20,21,22,23,24,25,26,27,28,29,30,31,32,33,34,35"
 Will use up to   36 processors via shared memory.
 %Mem=72983493KB
 Copying data from "tieg5pdc2tsc_ts_ircr_opt.chk" to current chk file "/dev/shm/tieg5pdc2tsc_ts_ircr_opt.chk"
 IOpt=  2 FromEx=T IUOpen= 4 IOptOp= 5 NList=   0 IFRang= 0 IUIn= 4 IUOut= 2.
 Default route: CacheSize=180224 MaxDisk=256GB
 ----------------------------------------------------------------------
 # m062x/Def2TZVP nosymm scf=xqc opt=ReadFC freq=NoRaman CPHF=Grid=Fine
  SCRF=(Solvent=1,2-EthaneDiol,Read) guess=read geom=allcheck
 ----------------------------------------------------------------------
 1/4=180224,10=3,18=20,19=15,26=3,29=7,38=1,40=2/1,3;
 2/4=180224,9=110,12=2,15=1,40=1/2;
 3/4=180224,5=44,7=101,11=2,14=-4,25=1,30=1,70=2203,71=1,72=30,74=-55,116=-2/1,2,3;
 4/4=180224,5=1/1;
 5/4=180224,5=2,8=3,13=1,38=6,53=30/2,8;
 6/4=180224,7=2,8=2,9=2,10=2,28=1/1;
 7/4=180224,30=1/1,2,3,16;
 1/4=180224,18=20,19=15,26=3/3(2);
 2/4=180224,9=110,15=1/2;
 99/4=180224/99;
 2/4=180224,9=110,15=1/2;
 3/4=180224,5=44,7=101,11=2,14=-2,25=1,30=1,70=2205,71=1,72=30,74=-55/1,2,3;
 4/4=180224,5=5,16=3,69=1/1;
 5/4=180224,5=2,8=3,13=1,38=5,53=30/2,8;
 7/4=180224,30=1/1,2,3,16;
 1/4=180224,18=20,19=15,26=3/3(-5);
 2/4=180224,9=110,15=1/2;
 6/4=180224,7=2,8=2,9=2,10=2,19=2,28=1/1;
 99/4=180224,9=1/99;
 Structure from the checkpoint file:  "/dev/shm/tieg5pdc2tsc_ts_ircr_opt.chk"
 ----------------------------
 based on tieg5pdc2tsa_ts.log
 ----------------------------
 Charge =  0 Multiplicity = 1
 Redundant internal coordinates found in file.  (old form).
 O,0,2.0450575769,0.8260639812,0.406830563
 Ti,0,0.6916791528,-0.5490455234,1.243273783
 O,0,0.9866299028,-1.3658591001,-2.9119672897
 O,0,2.1752006798,-1.7531464209,1.4313192902
 O,0,-0.4506094208,0.8632061115,1.2736753693
 C,0,-0.4662981887,2.259906482,1.2718308239
 C,0,-1.8849935114,2.7440209664,1.0161409573
 C,0,3.4310392834,0.9828554626,0.6402330763
 C,0,3.6432604111,2.1148713756,1.6314244003
 O,0,5.0020295808,2.22064162,2.0143006149
 C,0,2.4984309643,-2.1133886149,2.7522118722
 C,0,2.5560131423,-0.8313818974,3.5677969044
 O,0,1.4456141787,-0.0149562183,3.1450050542
 C,0,2.3926511872,-1.5864347878,-3.0186338704
 C,0,3.0715856492,-1.9514087751,-1.7096434174
 O,0,2.3383435055,-2.9778913112,-1.0450080482
 H,0,3.853197889,0.0546018734,1.035876148
 H,0,3.9345104227,1.210589122,-0.3052184974
 H,0,3.2707553707,3.0517325657,1.2062832446
 H,0,3.0720797829,1.9086223665,2.5377926996
 H,0,3.1421125304,-1.077745053,-1.0591478015
 H,0,1.7274586302,-2.7776088669,3.1612631304
 H,0,3.4608944527,-2.6298149353,2.7932022378
 H,0,2.4977312666,-1.0071068564,4.6409294155
 H,0,3.4601772777,-0.2655570994,3.3431294889
 H,0,-0.1145484249,2.6360666995,2.2414533358
 H,0,0.2053109246,2.6486858923,0.4997168929
 H,0,-2.5561292643,2.3272137168,1.7744535881
 H,0,-2.2146635495,2.3855324552,0.0395246909
 O,0,-1.9566300533,4.1569752295,0.9792828352
 H,0,2.5019481797,-2.867027567,-0.0892052997
 H,0,-1.7860078325,4.4979535152,1.8633797141
 H,0,5.5135896483,2.5330937289,1.260828533
 H,0,0.6694138723,-0.067338001,3.7653068098
 O,0,1.3348564105,0.6575145108,-1.8880855188
 H,0,0.8929565748,-2.0258950401,-0.8583992573
 C,0,0.572429703,-0.3914544595,-2.0045110967
 O,0,0.4562807043,-1.1497734326,-0.700229095
 O,0,-0.9156782141,0.5599725322,-3.5712657655
 C,0,-0.8672321681,-0.0385377059,-2.3678863355
 O,0,-2.0019450413,1.5571655037,-5.2142792622
 C,0,-2.0715078449,1.0530507488,-4.1233404231
 C,0,-1.9584068258,-0.1969852288,-1.6040840929
 C,0,-3.2635333743,0.9099647739,-3.3135352085
 C,0,-3.1978845119,0.3101240445,-2.1088589556
 H,0,-1.8946668171,-0.6755519542,-0.6418328665
 C,0,-4.4615383059,0.2014102353,-1.3049736441
 H,0,-4.1883333714,1.3004113576,-3.7110709305
 O,0,-5.5405641261,0.5429437256,-1.7049016174
 O,0,-4.2442798382,-0.3106052387,-0.0950111649
 H,0,-5.088507588,-0.3565742273,0.3808119172
 H,0,2.8844926655,-0.7041687174,-3.4309544289
 H,0,4.0851020262,-2.2905889586,-1.9378440497
 H,0,2.4777748602,-2.4071120921,-3.7289808912
 O,0,-0.5196816856,-1.6949458202,1.9544793579
 C,0,-1.7576009873,-1.5374420638,2.5914012514
 C,0,-1.5727015867,-1.36994888,4.0852246124
 O,0,-0.855364044,-0.1743716307,4.4074136284
 H,0,1.7787232068,0.8266873779,-0.6546343655
 H,0,-0.974625593,-2.1900574806,4.4817002401
 H,0,-2.5436315652,-1.3654520374,4.5846462879
 H,0,-1.3723554143,0.5893250108,4.1206753201
 H,0,-2.2777268614,-0.6614205653,2.1828728478
 H,0,-2.3759123931,-2.421550398,2.4111404421
 Recover connectivity data from disk.

 GradGradGradGradGradGradGradGradGradGradGradGradGradGradGradGradGradGrad
 Berny optimization.
 Initialization pass.
 Force constant matrix read from checkpoint file:
 "/dev/shm/tieg5pdc2tsc_ts_ircr_opt.chk"
                           ----------------------------
                           !    Initial Parameters    !
                           ! (Angstroms and Degrees)  !
 --------------------------                            --------------------------
 ! Name  Definition              Value          Derivative Info.                !
 --------------------------------------------------------------------------------
 ! R1    R(1,2)                  2.1029         D2E/DX2 =    0.1203             !
 ! R2    R(1,8)                  1.4142         D2E/DX2 =    0.3689             !
 ! R3    R(1,59)                 1.0944         D2E/DX2 =    0.092              !
 ! R4    R(2,4)                  1.9199         D2E/DX2 =    0.135              !
 ! R5    R(2,5)                  1.8166         D2E/DX2 =    0.2439             !
 ! R6    R(2,13)                 2.1143         D2E/DX2 =    0.0821             !
 ! R7    R(2,38)                 2.0478         D2E/DX2 =    0.2101             !
 ! R8    R(2,55)                 1.8128         D2E/DX2 =    0.2642             !
 ! R9    R(3,14)                 1.4272         D2E/DX2 =    0.3579             !
 ! R10   R(3,36)                 2.1591         D2E/DX2 =    0.0482             !
 ! R11   R(3,37)                 1.3945         D2E/DX2 =    0.2603             !
 ! R12   R(4,11)                 1.4068         D2E/DX2 =    0.2987             !
 ! R13   R(5,6)                  1.3968         D2E/DX2 =    0.3789             !
 ! R14   R(6,7)                  1.5207         D2E/DX2 =    0.2909             !
 ! R15   R(6,26)                 1.0979         D2E/DX2 =    0.3253             !
 ! R16   R(6,27)                 1.0947         D2E/DX2 =    0.333              !
 ! R17   R(7,28)                 1.0951         D2E/DX2 =    0.3311             !
 ! R18   R(7,29)                 1.0913         D2E/DX2 =    0.341              !
 ! R19   R(7,30)                 1.4152         D2E/DX2 =    0.3661             !
 ! R20   R(8,9)                  1.5195         D2E/DX2 =    0.2916             !
 ! R21   R(8,17)                 1.0938         D2E/DX2 =    0.3369             !
 ! R22   R(8,18)                 1.0951         D2E/DX2 =    0.3317             !
 ! R23   R(9,10)                 1.4156         D2E/DX2 =    0.3663             !
 ! R24   R(9,19)                 1.0942         D2E/DX2 =    0.333              !
 ! R25   R(9,20)                 1.091          D2E/DX2 =    0.344              !
 ! R26   R(10,33)                0.9628         D2E/DX2 =    0.5342             !
 ! R27   R(11,12)                1.5205         D2E/DX2 =    0.2285             !
 ! R28   R(11,22)                1.0968         D2E/DX2 =    0.3273             !
 ! R29   R(11,23)                1.093          D2E/DX2 =    0.3362             !
 ! R30   R(12,13)                1.4416         D2E/DX2 =    0.279              !
 ! R31   R(12,24)                1.089          D2E/DX2 =    0.3476             !
 ! R32   R(12,25)                1.09           D2E/DX2 =    0.3441             !
 ! R33   R(13,34)                0.995          D2E/DX2 =    0.3562             !
 ! R34   R(14,15)                1.5191         D2E/DX2 =    0.3089             !
 ! R35   R(14,52)                1.091          D2E/DX2 =    0.3426             !
 ! R36   R(14,54)                1.0887         D2E/DX2 =    0.3476             !
 ! R37   R(15,16)                1.4259         D2E/DX2 =    0.3532             !
 ! R38   R(15,21)                1.0915         D2E/DX2 =    0.3449             !
 ! R39   R(15,53)                1.0929         D2E/DX2 =    0.3364             !
 ! R40   R(16,31)                0.976          D2E/DX2 =    0.4696             !
 ! R41   R(30,32)                0.9628         D2E/DX2 =    0.534              !
 ! R42   R(35,37)                1.302          D2E/DX2 =    0.5025             !
 ! R43   R(36,38)                0.9916         D2E/DX2 =    0.3212             !
 ! R44   R(37,38)                1.5132         D2E/DX2 =    0.1791             !
 ! R45   R(37,40)                1.5262         D2E/DX2 =    0.2945             !
 ! R46   R(39,40)                1.3449         D2E/DX2 =    0.3687             !
 ! R47   R(39,42)                1.3725         D2E/DX2 =    0.3002             !
 ! R48   R(40,43)                1.3413         D2E/DX2 =    0.5116             !
 ! R49   R(41,42)                1.2038         D2E/DX2 =    0.8427             !
 ! R50   R(42,44)                1.4482         D2E/DX2 =    0.3138             !
 ! R51   R(43,45)                1.4312         D2E/DX2 =    0.3447             !
 ! R52   R(43,46)                1.0766         D2E/DX2 =    0.3813             !
 ! R53   R(44,45)                1.3474         D2E/DX2 =    0.5096             !
 ! R54   R(44,48)                1.0797         D2E/DX2 =    0.3737             !
 ! R55   R(45,47)                1.5016         D2E/DX2 =    0.313              !
 ! R56   R(47,49)                1.2004         D2E/DX2 =    0.8766             !
 ! R57   R(47,50)                1.3317         D2E/DX2 =    0.4427             !
 ! R58   R(50,51)                0.9702         D2E/DX2 =    0.5135             !
 ! R59   R(55,56)                1.401          D2E/DX2 =    0.3937             !
 ! R60   R(56,57)                1.5145         D2E/DX2 =    0.299              !
 ! R61   R(56,63)                1.0977         D2E/DX2 =    0.3265             !
 ! R62   R(56,64)                1.0938         D2E/DX2 =    0.3355             !
 ! R63   R(57,58)                1.431          D2E/DX2 =    0.34               !
 ! R64   R(57,60)                1.0897         D2E/DX2 =    0.3458             !
 ! R65   R(57,61)                1.0919         D2E/DX2 =    0.34               !
 ! R66   R(58,62)                0.9658         D2E/DX2 =    0.5263             !
 ! A1    A(2,1,8)              129.6116         D2E/DX2 =    0.1159             !
 ! A2    A(2,1,59)             103.2702         D2E/DX2 =    0.1238             !
 ! A3    A(8,1,59)             113.486          D2E/DX2 =    0.0701             !
 ! A4    A(1,2,4)               87.2358         D2E/DX2 =    0.0217             !
 ! A5    A(1,2,5)               84.4326         D2E/DX2 =    0.0236             !
 ! A6    A(1,2,13)              87.8848         D2E/DX2 =    0.0678             !
 ! A7    A(1,2,38)              83.5872         D2E/DX2 =    0.1906             !
 ! A8    A(4,2,5)              166.357          D2E/DX2 =    0.0129             !
 ! A9    A(4,2,13)              78.1583         D2E/DX2 =    0.0182             !
 ! A10   A(4,2,38)              89.8739         D2E/DX2 =    0.0251             !
 ! A11   A(4,2,55)              94.6732         D2E/DX2 =    0.0144             !
 ! A12   A(5,2,13)              90.7329         D2E/DX2 =    0.0164             !
 ! A13   A(5,2,38)              99.8839         D2E/DX2 =    0.0222             !
 ! A14   A(5,2,55)              93.7076         D2E/DX2 =    0.0188             !
 ! A15   A(13,2,55)             92.5837         D2E/DX2 =    0.038              !
 ! A16   A(38,2,55)             96.3208         D2E/DX2 =    0.0774             !
 ! A17   A(14,3,36)             93.8176         D2E/DX2 =    0.0758             !
 ! A18   A(14,3,37)            116.696          D2E/DX2 =    0.1601             !
 ! A19   A(36,3,37)             65.2769         D2E/DX2 =    0.0247             !
 ! A20   A(2,4,11)             115.4746         D2E/DX2 =    0.041              !
 ! A21   A(2,5,6)              141.6639         D2E/DX2 =    0.0804             !
 ! A22   A(5,6,7)              109.2103         D2E/DX2 =    0.1555             !
 ! A23   A(5,6,26)             109.7447         D2E/DX2 =    0.0599             !
 ! A24   A(5,6,27)             110.4362         D2E/DX2 =    0.0609             !
 ! A25   A(7,6,26)             109.7746         D2E/DX2 =    0.0718             !
 ! A26   A(7,6,27)             109.9202         D2E/DX2 =    0.0703             !
 ! A27   A(26,6,27)            107.7384         D2E/DX2 =    0.0277             !
 ! A28   A(6,7,28)             109.5215         D2E/DX2 =    0.0729             !
 ! A29   A(6,7,29)             109.1304         D2E/DX2 =    0.0707             !
 ! A30   A(6,7,30)             111.6812         D2E/DX2 =    0.153              !
 ! A31   A(28,7,29)            108.0306         D2E/DX2 =    0.0276             !
 ! A32   A(28,7,30)            111.5317         D2E/DX2 =    0.0645             !
 ! A33   A(29,7,30)            106.8197         D2E/DX2 =    0.0596             !
 ! A34   A(1,8,9)              109.0944         D2E/DX2 =    0.1543             !
 ! A35   A(1,8,17)             110.1121         D2E/DX2 =    0.0568             !
 ! A36   A(1,8,18)             109.3381         D2E/DX2 =    0.0576             !
 ! A37   A(9,8,17)             110.0216         D2E/DX2 =    0.0547             !
 ! A38   A(9,8,18)             110.1228         D2E/DX2 =    0.0564             !
 ! A39   A(17,8,18)            108.1392         D2E/DX2 =    0.022              !
 ! A40   A(8,9,10)             111.4776         D2E/DX2 =    0.1514             !
 ! A41   A(8,9,19)             109.6864         D2E/DX2 =    0.0718             !
 ! A42   A(8,9,20)             109.1448         D2E/DX2 =    0.0719             !
 ! A43   A(10,9,19)            111.5851         D2E/DX2 =    0.0642             !
 ! A44   A(10,9,20)            106.9741         D2E/DX2 =    0.0592             !
 ! A45   A(19,9,20)            107.8439         D2E/DX2 =    0.028              !
 ! A46   A(9,10,33)            108.8177         D2E/DX2 =    0.1796             !
 ! A47   A(4,11,12)            107.2433         D2E/DX2 =    0.0637             !
 ! A48   A(4,11,22)            110.1061         D2E/DX2 =    0.0392             !
 ! A49   A(4,11,23)            111.0095         D2E/DX2 =    0.0423             !
 ! A50   A(12,11,22)           109.7053         D2E/DX2 =    0.0559             !
 ! A51   A(12,11,23)           110.1753         D2E/DX2 =    0.0581             !
 ! A52   A(22,11,23)           108.5937         D2E/DX2 =    0.0266             !
 ! A53   A(11,12,13)           106.9182         D2E/DX2 =    0.07               !
 ! A54   A(11,12,24)           112.9851         D2E/DX2 =    0.041              !
 ! A55   A(11,12,25)           111.0094         D2E/DX2 =    0.0354             !
 ! A56   A(13,12,24)           109.8261         D2E/DX2 =    0.0401             !
 ! A57   A(13,12,25)           106.5281         D2E/DX2 =    0.0398             !
 ! A58   A(24,12,25)           109.3459         D2E/DX2 =    0.0198             !
 ! A59   A(2,13,12)            113.2903         D2E/DX2 =    0.0517             !
 ! A60   A(2,13,34)            105.6209         D2E/DX2 =    0.0291             !
 ! A61   A(12,13,34)           112.8439         D2E/DX2 =    0.0234             !
 ! A62   A(3,14,15)            114.3955         D2E/DX2 =    0.4264             !
 ! A63   A(3,14,52)            110.3274         D2E/DX2 =    0.0988             !
 ! A64   A(3,14,54)            104.0215         D2E/DX2 =    0.0804             !
 ! A65   A(15,14,52)           108.5699         D2E/DX2 =    0.0822             !
 ! A66   A(15,14,54)           110.253          D2E/DX2 =    0.0886             !
 ! A67   A(52,14,54)           109.1316         D2E/DX2 =    0.0245             !
 ! A68   A(14,15,16)           110.1692         D2E/DX2 =    0.2602             !
 ! A69   A(14,15,21)           110.4938         D2E/DX2 =    0.0738             !
 ! A70   A(14,15,53)           108.0065         D2E/DX2 =    0.0828             !
 ! A71   A(16,15,21)           109.3694         D2E/DX2 =    0.0775             !
 ! A72   A(16,15,53)           110.5373         D2E/DX2 =    0.0736             !
 ! A73   A(21,15,53)           108.2363         D2E/DX2 =    0.0284             !
 ! A74   A(15,16,31)           106.7684         D2E/DX2 =    0.2131             !
 ! A75   A(7,30,32)            108.7047         D2E/DX2 =    0.1801             !
 ! A76   A(3,36,38)             84.3023         D2E/DX2 =    0.0491             !
 ! A77   A(3,37,35)            116.566          D2E/DX2 =    0.059              !
 ! A78   A(3,37,38)            103.5055         D2E/DX2 =    0.0439             !
 ! A79   A(3,37,40)            106.6688         D2E/DX2 =    0.0619             !
 ! A80   A(35,37,38)           111.816          D2E/DX2 =    0.0717             !
 ! A81   A(35,37,40)           112.7913         D2E/DX2 =    0.0449             !
 ! A82   A(38,37,40)           104.4009         D2E/DX2 =    0.0695             !
 ! A83   A(2,38,36)            111.0971         D2E/DX2 =    0.1632             !
 ! A84   A(2,38,37)            131.4691         D2E/DX2 =    0.4278             !
 ! A85   A(36,38,37)           105.7528         D2E/DX2 =    0.06               !
 ! A86   A(40,39,42)           123.3754         D2E/DX2 =    0.1125             !
 ! A87   A(37,40,39)           110.4834         D2E/DX2 =    0.1534             !
 ! A88   A(37,40,43)           127.1922         D2E/DX2 =    0.1518             !
 ! A89   A(39,40,43)           122.1943         D2E/DX2 =    0.1016             !
 ! A90   A(39,42,41)           117.7944         D2E/DX2 =    0.1731             !
 ! A91   A(39,42,44)           115.642          D2E/DX2 =    0.0976             !
 ! A92   A(41,42,44)           126.5634         D2E/DX2 =    0.1407             !
 ! A93   A(40,43,45)           117.5061         D2E/DX2 =    0.0817             !
 ! A94   A(40,43,46)           120.8848         D2E/DX2 =    0.0785             !
 ! A95   A(45,43,46)           121.603          D2E/DX2 =    0.0792             !
 ! A96   A(42,44,45)           120.2557         D2E/DX2 =    0.0864             !
 ! A97   A(42,44,48)           117.608          D2E/DX2 =    0.0774             !
 ! A98   A(45,44,48)           122.1362         D2E/DX2 =    0.0765             !
 ! A99   A(43,45,44)           121.0172         D2E/DX2 =    0.0834             !
 ! A100  A(43,45,47)           120.9533         D2E/DX2 =    0.1369             !
 ! A101  A(44,45,47)           118.0267         D2E/DX2 =    0.1357             !
 ! A102  A(45,47,49)           123.8829         D2E/DX2 =    0.1722             !
 ! A103  A(45,47,50)           112.1454         D2E/DX2 =    0.1926             !
 ! A104  A(49,47,50)           123.9707         D2E/DX2 =    0.2022             !
 ! A105  A(47,50,51)           108.7763         D2E/DX2 =    0.1682             !
 ! A106  A(2,55,56)            134.2436         D2E/DX2 =    0.318              !
 ! A107  A(55,56,57)           110.6683         D2E/DX2 =    0.3567             !
 ! A108  A(55,56,63)           109.8285         D2E/DX2 =    0.0744             !
 ! A109  A(55,56,64)           109.4921         D2E/DX2 =    0.0933             !
 ! A110  A(57,56,63)           109.6752         D2E/DX2 =    0.0865             !
 ! A111  A(57,56,64)           108.7202         D2E/DX2 =    0.0959             !
 ! A112  A(63,56,64)           108.4139         D2E/DX2 =    0.0286             !
 ! A113  A(56,57,58)           112.0657         D2E/DX2 =    0.2116             !
 ! A114  A(56,57,60)           110.0378         D2E/DX2 =    0.0704             !
 ! A115  A(56,57,61)           110.0628         D2E/DX2 =    0.0718             !
 ! A116  A(58,57,60)           105.7676         D2E/DX2 =    0.0672             !
 ! A117  A(58,57,61)           109.8366         D2E/DX2 =    0.0795             !
 ! A118  A(60,57,61)           108.9494         D2E/DX2 =    0.028              !
 ! A119  A(57,58,62)           108.9943         D2E/DX2 =    0.1815             !
 ! A120  L(1,2,55,4,-1)        181.909          D2E/DX2 =    0.018              !
 ! A121  L(13,2,38,1,-1)       171.472          D2E/DX2 =    0.0612             !
 ! A122  L(1,2,55,4,-2)        180.0826         D2E/DX2 =    0.0494             !
 ! A123  L(13,2,38,1,-2)       168.4244         D2E/DX2 =    0.02               !
 ! D1    D(8,1,2,4)            -28.9766         D2E/DX2 =    0.0091             !
 ! D2    D(8,1,2,5)            140.207          D2E/DX2 =    0.0078             !
 ! D3    D(8,1,2,13)            49.2639         D2E/DX2 =    0.0116             !
 ! D4    D(8,1,2,38)          -119.1605         D2E/DX2 =    0.0143             !
 ! D5    D(59,1,2,4)           107.6325         D2E/DX2 =    0.0108             !
 ! D6    D(59,1,2,5)           -83.1839         D2E/DX2 =    0.0094             !
 ! D7    D(59,1,2,13)         -174.127          D2E/DX2 =    0.0138             !
 ! D8    D(59,1,2,38)           17.4486         D2E/DX2 =    0.0225             !
 ! D9    D(2,1,8,9)            -98.6116         D2E/DX2 =    0.0202             !
 ! D10   D(2,1,8,17)            22.2256         D2E/DX2 =    0.0197             !
 ! D11   D(2,1,8,18)           140.903          D2E/DX2 =    0.0198             !
 ! D12   D(59,1,8,9)           128.1929         D2E/DX2 =    0.0181             !
 ! D13   D(59,1,8,17)         -110.9698         D2E/DX2 =    0.019              !
 ! D14   D(59,1,8,18)            7.7076         D2E/DX2 =    0.0171             !
 ! D15   D(8,1,55,56)          127.0427         D2E/DX2 =    0.0195             !
 ! D16   D(59,1,55,56)         -95.8215         D2E/DX2 =    0.0147             !
 ! D17   D(1,2,4,11)           117.3157         D2E/DX2 =    0.053              !
 ! D18   D(5,2,4,11)            64.9563         D2E/DX2 =    0.0035             !
 ! D19   D(13,2,4,11)           28.8991         D2E/DX2 =    0.0105             !
 ! D20   D(38,2,4,11)         -159.0985         D2E/DX2 =    0.0564             !
 ! D21   D(55,2,4,11)          -62.7669         D2E/DX2 =    0.0236             !
 ! D22   D(1,2,5,6)            -22.3265         D2E/DX2 =    0.0485             !
 ! D23   D(4,2,5,6)             30.299          D2E/DX2 =    0.0044             !
 ! D24   D(13,2,5,6)            65.4767         D2E/DX2 =    0.0108             !
 ! D25   D(38,2,5,6)          -104.8051         D2E/DX2 =    0.053              !
 ! D26   D(55,2,5,6)           158.1135         D2E/DX2 =    0.0132             !
 ! D27   D(1,2,13,12)          -90.3658         D2E/DX2 =    0.0149             !
 ! D28   D(1,2,13,34)          145.6315         D2E/DX2 =    0.0144             !
 ! D29   D(4,2,13,12)           -2.748          D2E/DX2 =    0.0045             !
 ! D30   D(4,2,13,34)         -126.7506         D2E/DX2 =    0.0075             !
 ! D31   D(5,2,13,12)         -174.767          D2E/DX2 =    0.007              !
 ! D32   D(5,2,13,34)           61.2303         D2E/DX2 =    0.0092             !
 ! D33   D(55,2,13,12)          91.4882         D2E/DX2 =    0.0107             !
 ! D34   D(55,2,13,34)         -32.5145         D2E/DX2 =    0.0133             !
 ! D35   D(12,13,38,36)         15.7839         D2E/DX2 =    0.0049             !
 ! D36   D(12,13,38,37)       -112.8342         D2E/DX2 =    0.0093             !
 ! D37   D(34,13,38,36)       -108.959          D2E/DX2 =    0.0112             !
 ! D38   D(34,13,38,37)        122.4229         D2E/DX2 =    0.013              !
 ! D39   D(1,2,38,36)          107.0019         D2E/DX2 =    0.0195             !
 ! D40   D(1,2,38,37)          -29.8267         D2E/DX2 =    0.0328             !
 ! D41   D(4,2,38,36)           19.7694         D2E/DX2 =    0.0067             !
 ! D42   D(4,2,38,37)         -117.0592         D2E/DX2 =    0.0132             !
 ! D43   D(5,2,38,36)         -169.8141         D2E/DX2 =    0.0078             !
 ! D44   D(5,2,38,37)           53.3573         D2E/DX2 =    0.0109             !
 ! D45   D(55,2,38,36)         -74.9185         D2E/DX2 =    0.0085             !
 ! D46   D(55,2,38,37)         148.2529         D2E/DX2 =    0.0153             !
 ! D47   D(4,2,55,56)          155.9216         D2E/DX2 =    0.0167             !
 ! D48   D(5,2,55,56)          -13.303          D2E/DX2 =    0.0157             !
 ! D49   D(13,2,55,56)          77.5997         D2E/DX2 =    0.0216             !
 ! D50   D(38,2,55,56)        -113.6869         D2E/DX2 =    0.0185             !
 ! D51   D(36,3,14,15)          -7.3885         D2E/DX2 =    0.0499             !
 ! D52   D(36,3,14,52)        -130.1346         D2E/DX2 =    0.0262             !
 ! D53   D(36,3,14,54)         112.9451         D2E/DX2 =    0.0264             !
 ! D54   D(37,3,14,15)          56.7868         D2E/DX2 =    0.0433             !
 ! D55   D(37,3,14,52)         -65.9593         D2E/DX2 =    0.0197             !
 ! D56   D(37,3,14,54)         177.1203         D2E/DX2 =    0.0274             !
 ! D57   D(14,3,36,38)         126.3812         D2E/DX2 =    0.1134             !
 ! D58   D(37,3,36,38)           8.6732         D2E/DX2 =    0.0068             !
 ! D59   D(14,3,37,35)          35.9823         D2E/DX2 =    0.0403             !
 ! D60   D(14,3,37,38)         -87.2069         D2E/DX2 =    0.0371             !
 ! D61   D(14,3,37,40)         162.9825         D2E/DX2 =    0.0334             !
 ! D62   D(36,3,37,35)         117.385          D2E/DX2 =    0.0633             !
 ! D63   D(36,3,37,38)          -5.8042         D2E/DX2 =    0.0036             !
 ! D64   D(36,3,37,40)        -115.6148         D2E/DX2 =    0.0463             !
 ! D65   D(2,4,11,12)          -48.2183         D2E/DX2 =    0.0165             !
 ! D66   D(2,4,11,22)           71.0949         D2E/DX2 =    0.0326             !
 ! D67   D(2,4,11,23)         -168.6189         D2E/DX2 =    0.0305             !
 ! D68   D(2,5,6,7)            168.1284         D2E/DX2 =    0.0213             !
 ! D69   D(2,5,6,26)           -71.4927         D2E/DX2 =    0.0238             !
 ! D70   D(2,5,6,27)            47.1397         D2E/DX2 =    0.0236             !
 ! D71   D(5,6,7,28)            57.013          D2E/DX2 =    0.0182             !
 ! D72   D(5,6,7,29)           -61.059          D2E/DX2 =    0.018              !
 ! D73   D(5,6,7,30)          -178.9312         D2E/DX2 =    0.0196             !
 ! D74   D(26,6,7,28)          -63.3475         D2E/DX2 =    0.0178             !
 ! D75   D(26,6,7,29)          178.5804         D2E/DX2 =    0.0161             !
 ! D76   D(26,6,7,30)           60.7083         D2E/DX2 =    0.0182             !
 ! D77   D(27,6,7,28)          178.3155         D2E/DX2 =    0.0159             !
 ! D78   D(27,6,7,29)           60.2434         D2E/DX2 =    0.0177             !
 ! D79   D(27,6,7,30)          -57.6287         D2E/DX2 =    0.018              !
 ! D80   D(6,7,30,32)          -68.299          D2E/DX2 =    0.0169             !
 ! D81   D(28,7,30,32)          54.6191         D2E/DX2 =    0.0226             !
 ! D82   D(29,7,30,32)         172.4515         D2E/DX2 =    0.0232             !
 ! D83   D(1,8,9,10)           173.5596         D2E/DX2 =    0.0189             !
 ! D84   D(1,8,9,19)           -62.3397         D2E/DX2 =    0.0175             !
 ! D85   D(1,8,9,20)            55.6107         D2E/DX2 =    0.0178             !
 ! D86   D(17,8,9,10)           52.6671         D2E/DX2 =    0.0179             !
 ! D87   D(17,8,9,19)          176.7677         D2E/DX2 =    0.016              !
 ! D88   D(17,8,9,20)          -65.2818         D2E/DX2 =    0.0181             !
 ! D89   D(18,8,9,10)          -66.4378         D2E/DX2 =    0.0179             !
 ! D90   D(18,8,9,19)           57.6629         D2E/DX2 =    0.0179             !
 ! D91   D(18,8,9,20)          175.6134         D2E/DX2 =    0.0163             !
 ! D92   D(8,9,10,33)           69.2125         D2E/DX2 =    0.0168             !
 ! D93   D(19,9,10,33)         -53.8104         D2E/DX2 =    0.0224             !
 ! D94   D(20,9,10,33)        -171.5402         D2E/DX2 =    0.0237             !
 ! D95   D(4,11,12,13)          41.5666         D2E/DX2 =    0.0141             !
 ! D96   D(4,11,12,24)         162.5041         D2E/DX2 =    0.0184             !
 ! D97   D(4,11,12,25)         -74.2408         D2E/DX2 =    0.0209             !
 ! D98   D(22,11,12,13)        -78.0037         D2E/DX2 =    0.0182             !
 ! D99   D(22,11,12,24)         42.9338         D2E/DX2 =    0.0179             !
 ! D100  D(22,11,12,25)        166.1889         D2E/DX2 =    0.0192             !
 ! D101  D(23,11,12,13)        162.4959         D2E/DX2 =    0.0173             !
 ! D102  D(23,11,12,24)        -76.5666         D2E/DX2 =    0.0164             !
 ! D103  D(23,11,12,25)         46.6885         D2E/DX2 =    0.0175             !
 ! D104  D(11,12,13,2)         -20.3339         D2E/DX2 =    0.0108             !
 ! D105  D(11,12,13,34)         99.6297         D2E/DX2 =    0.0155             !
 ! D106  D(24,12,13,2)        -143.2588         D2E/DX2 =    0.018              !
 ! D107  D(24,12,13,34)        -23.2952         D2E/DX2 =    0.0151             !
 ! D108  D(25,12,13,2)          98.4268         D2E/DX2 =    0.0194             !
 ! D109  D(25,12,13,34)       -141.6096         D2E/DX2 =    0.0182             !
 ! D110  D(3,14,15,16)          47.9476         D2E/DX2 =    0.0311             !
 ! D111  D(3,14,15,21)         -73.0155         D2E/DX2 =    0.0198             !
 ! D112  D(3,14,15,53)         168.7699         D2E/DX2 =    0.019              !
 ! D113  D(52,14,15,16)        171.6414         D2E/DX2 =    0.0331             !
 ! D114  D(52,14,15,21)         50.6783         D2E/DX2 =    0.0191             !
 ! D115  D(52,14,15,53)        -67.5363         D2E/DX2 =    0.0189             !
 ! D116  D(54,14,15,16)        -68.8546         D2E/DX2 =    0.0244             !
 ! D117  D(54,14,15,21)        170.1823         D2E/DX2 =    0.0233             !
 ! D118  D(54,14,15,53)         51.9677         D2E/DX2 =    0.0184             !
 ! D119  D(14,15,16,31)       -151.7887         D2E/DX2 =    0.0309             !
 ! D120  D(21,15,16,31)        -30.155          D2E/DX2 =    0.0244             !
 ! D121  D(53,15,16,31)         88.9182         D2E/DX2 =    0.0341             !
 ! D122  D(3,36,38,2)         -155.3501         D2E/DX2 =    0.1753             !
 ! D123  D(3,36,38,37)          -7.5364         D2E/DX2 =    0.0051             !
 ! D124  D(3,37,38,2)          150.4474         D2E/DX2 =    0.0328             !
 ! D125  D(3,37,38,36)          11.9943         D2E/DX2 =    0.0135             !
 ! D126  D(35,37,38,2)          24.1788         D2E/DX2 =    0.0239             !
 ! D127  D(35,37,38,36)       -114.2743         D2E/DX2 =    0.0262             !
 ! D128  D(40,37,38,2)         -98.0689         D2E/DX2 =    0.0297             !
 ! D129  D(40,37,38,36)        123.478          D2E/DX2 =    0.0265             !
 ! D130  D(3,37,40,39)         -66.2803         D2E/DX2 =    0.0171             !
 ! D131  D(3,37,40,43)         117.83           D2E/DX2 =    0.0158             !
 ! D132  D(35,37,40,39)         62.9319         D2E/DX2 =    0.0317             !
 ! D133  D(35,37,40,43)       -112.9578         D2E/DX2 =    0.0305             !
 ! D134  D(38,37,40,39)       -175.4625         D2E/DX2 =    0.0187             !
 ! D135  D(38,37,40,43)          8.6477         D2E/DX2 =    0.0175             !
 ! D136  D(42,39,40,37)       -176.3629         D2E/DX2 =    0.0059             !
 ! D137  D(42,39,40,43)         -0.2317         D2E/DX2 =    0.0057             !
 ! D138  D(40,39,42,41)       -179.2096         D2E/DX2 =    0.0123             !
 ! D139  D(40,39,42,44)          0.9179         D2E/DX2 =    0.0077             !
 ! D140  D(37,40,43,45)        174.8332         D2E/DX2 =    0.0085             !
 ! D141  D(37,40,43,46)         -4.2793         D2E/DX2 =    0.0082             !
 ! D142  D(39,40,43,45)         -0.6159         D2E/DX2 =    0.0077             !
 ! D143  D(39,40,43,46)       -179.7285         D2E/DX2 =    0.0078             !
 ! D144  D(39,42,44,45)         -0.7658         D2E/DX2 =    0.0101             !
 ! D145  D(39,42,44,48)        179.1048         D2E/DX2 =    0.0099             !
 ! D146  D(41,42,44,45)        179.3747         D2E/DX2 =    0.0147             !
 ! D147  D(41,42,44,48)         -0.7548         D2E/DX2 =    0.018              !
 ! D148  D(40,43,45,44)          0.7314         D2E/DX2 =    0.0069             !
 ! D149  D(40,43,45,47)       -178.6537         D2E/DX2 =    0.0062             !
 ! D150  D(46,43,45,44)        179.8372         D2E/DX2 =    0.0064             !
 ! D151  D(46,43,45,47)          0.4521         D2E/DX2 =    0.0067             !
 ! D152  D(42,44,45,43)         -0.0297         D2E/DX2 =    0.0075             !
 ! D153  D(42,44,45,47)        179.3729         D2E/DX2 =    0.0074             !
 ! D154  D(48,44,45,43)       -179.8943         D2E/DX2 =    0.0086             !
 ! D155  D(48,44,45,47)         -0.4916         D2E/DX2 =    0.009              !
 ! D156  D(43,45,47,49)       -175.8574         D2E/DX2 =    0.0132             !
 ! D157  D(43,45,47,50)          4.4979         D2E/DX2 =    0.0139             !
 ! D158  D(44,45,47,49)          4.7395         D2E/DX2 =    0.0142             !
 ! D159  D(44,45,47,50)       -174.9051         D2E/DX2 =    0.0126             !
 ! D160  D(45,47,50,51)        179.8535         D2E/DX2 =    0.0213             !
 ! D161  D(49,47,50,51)          0.2092         D2E/DX2 =    0.0198             !
 ! D162  D(2,55,56,57)         -89.0779         D2E/DX2 =    0.0629             !
 ! D163  D(2,55,56,63)          32.1573         D2E/DX2 =    0.0409             !
 ! D164  D(2,55,56,64)         151.0934         D2E/DX2 =    0.0412             !
 ! D165  D(55,56,57,58)         64.0647         D2E/DX2 =    0.0411             !
 ! D166  D(55,56,57,60)        -53.319          D2E/DX2 =    0.0223             !
 ! D167  D(55,56,57,61)       -173.3976         D2E/DX2 =    0.0248             !
 ! D168  D(63,56,57,58)        -57.2611         D2E/DX2 =    0.0221             !
 ! D169  D(63,56,57,60)       -174.6448         D2E/DX2 =    0.0215             !
 ! D170  D(63,56,57,61)         65.2766         D2E/DX2 =    0.0188             !
 ! D171  D(64,56,57,58)       -175.6447         D2E/DX2 =    0.0302             !
 ! D172  D(64,56,57,60)         66.9716         D2E/DX2 =    0.0185             !
 ! D173  D(64,56,57,61)        -53.107          D2E/DX2 =    0.0185             !
 ! D174  D(56,57,58,62)         63.3527         D2E/DX2 =    0.0173             !
 ! D175  D(60,57,58,62)       -176.7376         D2E/DX2 =    0.0239             !
 ! D176  D(61,57,58,62)        -59.3134         D2E/DX2 =    0.0234             !
 --------------------------------------------------------------------------------
 Trust Radius=3.00D-01 FncErr=1.00D-07 GrdErr=1.00D-06 EigMax=2.50D+02 EigMin=1.00D-04
 Number of steps in this run=    375 maximum allowed number of steps=    384.
 GradGradGradGradGradGradGradGradGradGradGradGradGradGradGradGradGradGrad

 Symmetry turned off by external request.
 Stoichiometry    C17H30O16Ti
 Framework group  C1[X(C17H30O16Ti)]
 Deg. of freedom   186
 Full point group                 C1      NOp   1
                          Input orientation:                          
 ---------------------------------------------------------------------
 Center     Atomic      Atomic             Coordinates (Angstroms)
 Number     Number       Type             X           Y           Z
 ---------------------------------------------------------------------
      1          8           0        2.045058    0.826064    0.406831
      2         22           0        0.691679   -0.549046    1.243274
      3          8           0        0.986630   -1.365859   -2.911967
      4          8           0        2.175201   -1.753146    1.431319
      5          8           0       -0.450609    0.863206    1.273675
      6          6           0       -0.466298    2.259906    1.271831
      7          6           0       -1.884994    2.744021    1.016141
      8          6           0        3.431039    0.982855    0.640233
      9          6           0        3.643260    2.114871    1.631424
     10          8           0        5.002030    2.220642    2.014301
     11          6           0        2.498431   -2.113389    2.752212
     12          6           0        2.556013   -0.831382    3.567797
     13          8           0        1.445614   -0.014956    3.145005
     14          6           0        2.392651   -1.586435   -3.018634
     15          6           0        3.071586   -1.951409   -1.709643
     16          8           0        2.338344   -2.977891   -1.045008
     17          1           0        3.853198    0.054602    1.035876
     18          1           0        3.934510    1.210589   -0.305218
     19          1           0        3.270755    3.051733    1.206283
     20          1           0        3.072080    1.908622    2.537793
     21          1           0        3.142113   -1.077745   -1.059148
     22          1           0        1.727459   -2.777609    3.161263
     23          1           0        3.460894   -2.629815    2.793202
     24          1           0        2.497731   -1.007107    4.640929
     25          1           0        3.460177   -0.265557    3.343129
     26          1           0       -0.114548    2.636067    2.241453
     27          1           0        0.205311    2.648686    0.499717
     28          1           0       -2.556129    2.327214    1.774454
     29          1           0       -2.214664    2.385532    0.039525
     30          8           0       -1.956630    4.156975    0.979283
     31          1           0        2.501948   -2.867028   -0.089205
     32          1           0       -1.786008    4.497954    1.863380
     33          1           0        5.513590    2.533094    1.260829
     34          1           0        0.669414   -0.067338    3.765307
     35          8           0        1.334856    0.657515   -1.888086
     36          1           0        0.892957   -2.025895   -0.858399
     37          6           0        0.572430   -0.391454   -2.004511
     38          8           0        0.456281   -1.149773   -0.700229
     39          8           0       -0.915678    0.559973   -3.571266
     40          6           0       -0.867232   -0.038538   -2.367886
     41          8           0       -2.001945    1.557166   -5.214279
     42          6           0       -2.071508    1.053051   -4.123340
     43          6           0       -1.958407   -0.196985   -1.604084
     44          6           0       -3.263533    0.909965   -3.313535
     45          6           0       -3.197885    0.310124   -2.108859
     46          1           0       -1.894667   -0.675552   -0.641833
     47          6           0       -4.461538    0.201410   -1.304974
     48          1           0       -4.188333    1.300411   -3.711071
     49          8           0       -5.540564    0.542944   -1.704902
     50          8           0       -4.244280   -0.310605   -0.095011
     51          1           0       -5.088508   -0.356574    0.380812
     52          1           0        2.884493   -0.704169   -3.430954
     53          1           0        4.085102   -2.290589   -1.937844
     54          1           0        2.477775   -2.407112   -3.728981
     55          8           0       -0.519682   -1.694946    1.954479
     56          6           0       -1.757601   -1.537442    2.591401
     57          6           0       -1.572702   -1.369949    4.085225
     58          8           0       -0.855364   -0.174372    4.407414
     59          1           0        1.778723    0.826687   -0.654634
     60          1           0       -0.974626   -2.190057    4.481700
     61          1           0       -2.543632   -1.365452    4.584646
     62          1           0       -1.372355    0.589325    4.120675
     63          1           0       -2.277727   -0.661421    2.182873
     64          1           0       -2.375912   -2.421550    2.411140
 ---------------------------------------------------------------------
 Rotational constants (GHZ):           0.1417684           0.0942919           0.0778426
 Standard basis: def2TZVP (5D, 7F)
  1248 basis functions,  2025 primitive gaussians,  1420 cartesian basis functions
   141 alpha electrons      141 beta electrons
       nuclear repulsion energy      4983.2497398003 Hartrees.
 NAtoms=   64 NActive=   64 NUniq=   64 SFac= 1.00D+00 NAtFMM=   60 NAOKFM=T Big=T
 Integral buffers will be    131072 words long.
 Raffenetti 2 integral format.
 Two-electron integral symmetry is turned off.
 Using the following non-standard input for PCM:
 PDENS=7.0
 --- end of non-standard input.
 ------------------------------------------------------------------------------
 Polarizable Continuum Model (PCM)
 =================================
 Model                : PCM.
 Atomic radii         : UFF (Universal Force Field).
 Polarization charges : Total charges.
 Charge compensation  : None.
 Solution method      : On-the-fly selection.
 Cavity type          : Scaled VdW (van der Waals Surface) (Alpha=1.100).
 Cavity algorithm     : GePol (No added spheres)
                        Default sphere list used, NSphG=   64.
                        Lebedev-Laikov grids with approx.  7.0 points / Ang**2.
                        Smoothing algorithm: York/Karplus (Gamma=1.0000).
                        Polarization charges: spherical gaussians, with
                                              point-specific exponents (IZeta= 3).
                        Self-potential: point-specific (ISelfS= 7).
                        Self-field    : sphere-specific E.n sum rule (ISelfD= 2).
 1st derivatives      : Analytical E(r).r(x)/FMM algorithm (CHGder, D1EAlg=3).
                        Cavity 1st derivative terms included.
 Solvent              : 1,2-EthaneDiol, Eps=  40.245000 Eps(inf)=   2.050051
 ------------------------------------------------------------------------------
 One-electron integrals computed using PRISM.
   1 Symmetry operations used in ECPInt.
 ECPInt:  NShTT=  124251 NPrTT=  385001 LenC2=  100079 LenP2D=  205882.
 LDataN:  DoStor=T MaxTD1= 6 Len=  172
 NBasis=  1248 RedAO= T EigKep=  1.38D-05  NBF=  1248
 NBsUse=  1248 1.00D-06 EigRej= -1.00D+00 NBFU=  1248
 Initial guess from the checkpoint file:  "/dev/shm/tieg5pdc2tsc_ts_ircr_opt.chk"
 B after Tr=     0.000000    0.000000    0.000000
         Rot=    1.000000    0.000000    0.000000    0.000000 Ang=   0.00 deg.
 Requested convergence on RMS density matrix=1.00D-08 within  32 cycles.
 Requested convergence on MAX density matrix=1.00D-06.
 Requested convergence on             energy=1.00D-06.
 No special actions if energy rises.
 Inv3:  Mode=1 IEnd=   121998387.
 Iteration    1 A*A^-1 deviation from unit magnitude is 4.00D-15 for   3041.
 Iteration    1 A*A^-1 deviation from orthogonality  is 2.34D-15 for   3601   2922.
 Iteration    1 A^-1*A deviation from unit magnitude is 4.22D-15 for   3041.
 Iteration    1 A^-1*A deviation from orthogonality  is 2.30D-15 for   5335   4956.
 Error on total polarization charges =  0.01580
 SCF Done:  E(RM062X) =  -2719.14367208     A.U. after    3 cycles
            NFock=  3  Conv=0.35D-09     -V/T= 2.0034
 QCSCF skips out because SCF is already converged.

 **********************************************************************

            Population analysis using the SCF Density.

 **********************************************************************

 Alpha  occ. eigenvalues -- -180.50939 -20.50969 -19.71612 -19.69387 -19.67311
 Alpha  occ. eigenvalues --  -19.67160 -19.66088 -19.65072 -19.64157 -19.64144
 Alpha  occ. eigenvalues --  -19.63318 -19.63261 -19.63140 -19.62647 -19.62574
 Alpha  occ. eigenvalues --  -19.62460 -19.60875 -19.59062 -17.20381 -17.20322
 Alpha  occ. eigenvalues --  -17.20239 -10.71698 -10.70353 -10.69416 -10.63880
 Alpha  occ. eigenvalues --  -10.60206 -10.60024 -10.59539 -10.59159 -10.58965
 Alpha  occ. eigenvalues --  -10.58952 -10.58555 -10.58546 -10.58217 -10.58207
 Alpha  occ. eigenvalues --  -10.58150 -10.57701 -10.56300  -2.64925  -1.71461
 Alpha  occ. eigenvalues --   -1.71375  -1.71036  -1.27599  -1.26344  -1.24016
 Alpha  occ. eigenvalues --   -1.19318  -1.17379  -1.17309  -1.16798  -1.16194
 Alpha  occ. eigenvalues --   -1.15808  -1.15319  -1.15075  -1.14530  -1.11712
 Alpha  occ. eigenvalues --   -1.11119  -1.10521  -1.09895  -0.96819  -0.90577
 Alpha  occ. eigenvalues --   -0.85857  -0.84484  -0.83872  -0.83620  -0.82346
 Alpha  occ. eigenvalues --   -0.81208  -0.78795  -0.75624  -0.72081  -0.71778
 Alpha  occ. eigenvalues --   -0.71525  -0.71217  -0.70593  -0.69306  -0.64641
 Alpha  occ. eigenvalues --   -0.64022  -0.63437  -0.62122  -0.61949  -0.61391
 Alpha  occ. eigenvalues --   -0.60359  -0.60174  -0.59851  -0.59755  -0.59053
 Alpha  occ. eigenvalues --   -0.58527  -0.58495  -0.57905  -0.57356  -0.56608
 Alpha  occ. eigenvalues --   -0.56349  -0.56107  -0.55998  -0.55520  -0.55071
 Alpha  occ. eigenvalues --   -0.54343  -0.54154  -0.53876  -0.53028  -0.52365
 Alpha  occ. eigenvalues --   -0.51725  -0.51438  -0.50608  -0.50543  -0.50294
 Alpha  occ. eigenvalues --   -0.49886  -0.49293  -0.49131  -0.48277  -0.47775
 Alpha  occ. eigenvalues --   -0.47611  -0.46468  -0.46286  -0.45785  -0.45337
 Alpha  occ. eigenvalues --   -0.44477  -0.44146  -0.43073  -0.42817  -0.42268
 Alpha  occ. eigenvalues --   -0.42005  -0.41227  -0.40881  -0.40759  -0.40166
 Alpha  occ. eigenvalues --   -0.39955  -0.39224  -0.38952  -0.38312  -0.37869
 Alpha  occ. eigenvalues --   -0.37604  -0.37011  -0.36707  -0.36204  -0.35662
 Alpha  occ. eigenvalues --   -0.35180  -0.34964  -0.34729  -0.34107  -0.33815
 Alpha  occ. eigenvalues --   -0.30563
 Alpha virt. eigenvalues --   -0.06472  -0.02965  -0.02335  -0.01073   0.01999
 Alpha virt. eigenvalues --    0.02981   0.03957   0.05247   0.05751   0.06297
 Alpha virt. eigenvalues --    0.06832   0.07092   0.07705   0.08222   0.08414
 Alpha virt. eigenvalues --    0.08592   0.08820   0.09292   0.10396   0.10875
 Alpha virt. eigenvalues --    0.11014   0.11650   0.12154   0.12456   0.12649
 Alpha virt. eigenvalues --    0.12887   0.13244   0.13830   0.13956   0.14661
 Alpha virt. eigenvalues --    0.14800   0.14892   0.15389   0.15672   0.16289
 Alpha virt. eigenvalues --    0.16619   0.16978   0.17526   0.17653   0.17936
 Alpha virt. eigenvalues --    0.18395   0.18649   0.19247   0.19310   0.19826
 Alpha virt. eigenvalues --    0.19983   0.20392   0.20572   0.20878   0.21238
 Alpha virt. eigenvalues --    0.21375   0.22151   0.22445   0.22943   0.23077
 Alpha virt. eigenvalues --    0.23578   0.23954   0.24043   0.24439   0.24650
 Alpha virt. eigenvalues --    0.24737   0.24973   0.25518   0.25737   0.26108
 Alpha virt. eigenvalues --    0.26602   0.27205   0.27666   0.28221   0.28593
 Alpha virt. eigenvalues --    0.28812   0.29064   0.29123   0.29866   0.30067
 Alpha virt. eigenvalues --    0.30797   0.30942   0.31341   0.31610   0.31904
 Alpha virt. eigenvalues --    0.32587   0.32719   0.32860   0.33661   0.34105
 Alpha virt. eigenvalues --    0.34482   0.34754   0.34874   0.35339   0.35643
 Alpha virt. eigenvalues --    0.36047   0.36388   0.37072   0.37697   0.37785
 Alpha virt. eigenvalues --    0.38116   0.38381   0.38715   0.38961   0.38982
 Alpha virt. eigenvalues --    0.39425   0.39756   0.39951   0.40177   0.41060
 Alpha virt. eigenvalues --    0.41082   0.41455   0.41635   0.42126   0.42224
 Alpha virt. eigenvalues --    0.42975   0.43016   0.43541   0.43645   0.44092
 Alpha virt. eigenvalues --    0.44319   0.44391   0.44764   0.44885   0.45368
 Alpha virt. eigenvalues --    0.45482   0.45859   0.45960   0.46140   0.46715
 Alpha virt. eigenvalues --    0.46857   0.47095   0.47415   0.47724   0.48159
 Alpha virt. eigenvalues --    0.48413   0.48684   0.48893   0.49183   0.49413
 Alpha virt. eigenvalues --    0.49565   0.50057   0.50262   0.50535   0.50631
 Alpha virt. eigenvalues --    0.50879   0.51286   0.51560   0.52075   0.52550
 Alpha virt. eigenvalues --    0.52790   0.52950   0.53561   0.53957   0.54167
 Alpha virt. eigenvalues --    0.54411   0.54773   0.55235   0.55694   0.55917
 Alpha virt. eigenvalues --    0.56294   0.56391   0.56712   0.57226   0.57450
 Alpha virt. eigenvalues --    0.58138   0.58809   0.58981   0.59478   0.59574
 Alpha virt. eigenvalues --    0.59901   0.60666   0.60860   0.61119   0.61530
 Alpha virt. eigenvalues --    0.62204   0.62645   0.63109   0.63816   0.64003
 Alpha virt. eigenvalues --    0.64368   0.64851   0.65123   0.65399   0.65528
 Alpha virt. eigenvalues --    0.66138   0.66473   0.66611   0.67564   0.67831
 Alpha virt. eigenvalues --    0.68178   0.68628   0.69071   0.69294   0.69621
 Alpha virt. eigenvalues --    0.70091   0.70566   0.71153   0.71655   0.72020
 Alpha virt. eigenvalues --    0.72540   0.72661   0.73086   0.73501   0.74201
 Alpha virt. eigenvalues --    0.74654   0.75314   0.76164   0.76455   0.76559
 Alpha virt. eigenvalues --    0.76926   0.77493   0.77778   0.78329   0.78547
 Alpha virt. eigenvalues --    0.78889   0.79080   0.79420   0.80217   0.80834
 Alpha virt. eigenvalues --    0.81873   0.82037   0.82466   0.82837   0.83198
 Alpha virt. eigenvalues --    0.83568   0.84125   0.84200   0.84585   0.85104
 Alpha virt. eigenvalues --    0.85960   0.86764   0.87159   0.87516   0.88225
 Alpha virt. eigenvalues --    0.88606   0.88830   0.89769   0.90311   0.90525
 Alpha virt. eigenvalues --    0.90953   0.91555   0.91620   0.92159   0.92448
 Alpha virt. eigenvalues --    0.92773   0.93335   0.93636   0.93854   0.94621
 Alpha virt. eigenvalues --    0.94868   0.95285   0.95566   0.96418   0.97012
 Alpha virt. eigenvalues --    0.97587   0.98053   0.98334   0.99126   0.99582
 Alpha virt. eigenvalues --    1.00229   1.00751   1.00999   1.01173   1.01732
 Alpha virt. eigenvalues --    1.01997   1.02991   1.03498   1.03857   1.04442
 Alpha virt. eigenvalues --    1.04759   1.04974   1.05586   1.06102   1.06611
 Alpha virt. eigenvalues --    1.07949   1.08084   1.08714   1.09367   1.09909
 Alpha virt. eigenvalues --    1.10531   1.10971   1.12116   1.12587   1.12924
 Alpha virt. eigenvalues --    1.13586   1.14281   1.14756   1.15273   1.15888
 Alpha virt. eigenvalues --    1.16464   1.16852   1.17515   1.17839   1.18334
 Alpha virt. eigenvalues --    1.18778   1.19735   1.19964   1.20744   1.21523
 Alpha virt. eigenvalues --    1.21821   1.22439   1.23005   1.23304   1.24224
 Alpha virt. eigenvalues --    1.24696   1.24940   1.25442   1.26069   1.26626
 Alpha virt. eigenvalues --    1.28124   1.28720   1.28957   1.29133   1.29635
 Alpha virt. eigenvalues --    1.30351   1.31020   1.31272   1.32022   1.32750
 Alpha virt. eigenvalues --    1.33272   1.34536   1.35658   1.36208   1.36714
 Alpha virt. eigenvalues --    1.37654   1.38176   1.38639   1.40393   1.40653
 Alpha virt. eigenvalues --    1.41064   1.42032   1.42319   1.42762   1.43320
 Alpha virt. eigenvalues --    1.44115   1.44635   1.45218   1.46142   1.46802
 Alpha virt. eigenvalues --    1.47216   1.47507   1.48348   1.49247   1.49597
 Alpha virt. eigenvalues --    1.50489   1.50659   1.50851   1.51855   1.52041
 Alpha virt. eigenvalues --    1.52420   1.53305   1.53992   1.54724   1.55079
 Alpha virt. eigenvalues --    1.55432   1.56206   1.56476   1.56772   1.57534
 Alpha virt. eigenvalues --    1.57968   1.58414   1.58493   1.59307   1.59514
 Alpha virt. eigenvalues --    1.59911   1.60135   1.60757   1.61050   1.61786
 Alpha virt. eigenvalues --    1.62213   1.62691   1.63069   1.63358   1.63920
 Alpha virt. eigenvalues --    1.64187   1.64501   1.64827   1.65496   1.65802
 Alpha virt. eigenvalues --    1.66119   1.66505   1.66941   1.67148   1.67661
 Alpha virt. eigenvalues --    1.68129   1.69349   1.69883   1.70210   1.71325
 Alpha virt. eigenvalues --    1.71535   1.72059   1.72102   1.73515   1.73908
 Alpha virt. eigenvalues --    1.74250   1.74889   1.75357   1.75765   1.76098
 Alpha virt. eigenvalues --    1.76551   1.76937   1.77780   1.78406   1.79074
 Alpha virt. eigenvalues --    1.79749   1.79863   1.80112   1.80883   1.81020
 Alpha virt. eigenvalues --    1.81510   1.81814   1.82606   1.83045   1.83890
 Alpha virt. eigenvalues --    1.84412   1.85489   1.85706   1.85948   1.86054
 Alpha virt. eigenvalues --    1.86866   1.87342   1.87880   1.88193   1.88283
 Alpha virt. eigenvalues --    1.88544   1.88953   1.89337   1.90122   1.90431
 Alpha virt. eigenvalues --    1.90582   1.91576   1.91970   1.92835   1.93248
 Alpha virt. eigenvalues --    1.93553   1.93747   1.94360   1.95330   1.95357
 Alpha virt. eigenvalues --    1.95742   1.96318   1.97050   1.97507   1.98700
 Alpha virt. eigenvalues --    1.98897   1.99205   1.99561   1.99763   2.00863
 Alpha virt. eigenvalues --    2.01207   2.01338   2.02150   2.02677   2.03507
 Alpha virt. eigenvalues --    2.03930   2.04164   2.04920   2.05364   2.05539
 Alpha virt. eigenvalues --    2.06215   2.06779   2.07467   2.08133   2.08471
 Alpha virt. eigenvalues --    2.08627   2.09111   2.09383   2.09702   2.10106
 Alpha virt. eigenvalues --    2.11113   2.11240   2.11380   2.12241   2.13147
 Alpha virt. eigenvalues --    2.14123   2.14562   2.14930   2.15772   2.16773
 Alpha virt. eigenvalues --    2.17211   2.17335   2.17723   2.18063   2.19017
 Alpha virt. eigenvalues --    2.19627   2.20010   2.21168   2.22003   2.22431
 Alpha virt. eigenvalues --    2.22966   2.23290   2.23519   2.24041   2.24447
 Alpha virt. eigenvalues --    2.25047   2.25807   2.26165   2.27211   2.27423
 Alpha virt. eigenvalues --    2.27799   2.28693   2.29214   2.29628   2.29806
 Alpha virt. eigenvalues --    2.30483   2.31006   2.31037   2.31810   2.32726
 Alpha virt. eigenvalues --    2.33152   2.33907   2.33962   2.34528   2.34793
 Alpha virt. eigenvalues --    2.35482   2.36524   2.37102   2.37702   2.37901
 Alpha virt. eigenvalues --    2.38696   2.39319   2.39548   2.40363   2.41297
 Alpha virt. eigenvalues --    2.41647   2.42218   2.42390   2.42930   2.43115
 Alpha virt. eigenvalues --    2.43518   2.44308   2.44888   2.45140   2.46462
 Alpha virt. eigenvalues --    2.46882   2.47515   2.48199   2.48350   2.48684
 Alpha virt. eigenvalues --    2.49319   2.49639   2.50236   2.50609   2.51499
 Alpha virt. eigenvalues --    2.52000   2.52610   2.53083   2.53686   2.53943
 Alpha virt. eigenvalues --    2.54463   2.54522   2.54870   2.55685   2.55797
 Alpha virt. eigenvalues --    2.56673   2.57074   2.57722   2.58184   2.58513
 Alpha virt. eigenvalues --    2.59011   2.59769   2.59855   2.60343   2.60888
 Alpha virt. eigenvalues --    2.61488   2.62009   2.62458   2.63170   2.63422
 Alpha virt. eigenvalues --    2.64137   2.64333   2.64980   2.65437   2.65711
 Alpha virt. eigenvalues --    2.65912   2.66935   2.67179   2.67439   2.67895
 Alpha virt. eigenvalues --    2.68104   2.68375   2.68501   2.68918   2.69286
 Alpha virt. eigenvalues --    2.69807   2.70294   2.70628   2.71182   2.71453
 Alpha virt. eigenvalues --    2.71867   2.72239   2.73423   2.73584   2.74949
 Alpha virt. eigenvalues --    2.75009   2.75198   2.75893   2.76506   2.76789
 Alpha virt. eigenvalues --    2.77346   2.77777   2.78197   2.78736   2.79574
 Alpha virt. eigenvalues --    2.80085   2.80279   2.80867   2.81636   2.82246
 Alpha virt. eigenvalues --    2.82687   2.83186   2.83549   2.83735   2.84761
 Alpha virt. eigenvalues --    2.84895   2.85228   2.86049   2.86629   2.87148
 Alpha virt. eigenvalues --    2.87502   2.88342   2.89254   2.89837   2.90393
 Alpha virt. eigenvalues --    2.91192   2.91567   2.92208   2.92480   2.92596
 Alpha virt. eigenvalues --    2.94374   2.94465   2.94783   2.95562   2.95873
 Alpha virt. eigenvalues --    2.96439   2.96851   2.98054   2.99366   3.00435
 Alpha virt. eigenvalues --    3.00823   3.01060   3.01370   3.02149   3.02709
 Alpha virt. eigenvalues --    3.03048   3.04742   3.04811   3.05019   3.05939
 Alpha virt. eigenvalues --    3.06295   3.07079   3.07511   3.07865   3.08524
 Alpha virt. eigenvalues --    3.08658   3.09430   3.10367   3.10675   3.10871
 Alpha virt. eigenvalues --    3.11922   3.12008   3.12686   3.12871   3.13309
 Alpha virt. eigenvalues --    3.13845   3.14252   3.14853   3.15393   3.15611
 Alpha virt. eigenvalues --    3.16199   3.16511   3.17055   3.17377   3.17987
 Alpha virt. eigenvalues --    3.18500   3.18966   3.19570   3.20062   3.20678
 Alpha virt. eigenvalues --    3.20785   3.21213   3.22039   3.22583   3.22723
 Alpha virt. eigenvalues --    3.23165   3.23424   3.24534   3.24688   3.25025
 Alpha virt. eigenvalues --    3.25453   3.25521   3.26236   3.26836   3.27321
 Alpha virt. eigenvalues --    3.27451   3.27864   3.29029   3.29252   3.29524
 Alpha virt. eigenvalues --    3.29890   3.30845   3.30999   3.31233   3.31351
 Alpha virt. eigenvalues --    3.32425   3.32926   3.33353   3.33549   3.34159
 Alpha virt. eigenvalues --    3.34406   3.35105   3.35600   3.35801   3.36190
 Alpha virt. eigenvalues --    3.36453   3.37057   3.37674   3.37837   3.38024
 Alpha virt. eigenvalues --    3.38647   3.38838   3.39678   3.39926   3.40597
 Alpha virt. eigenvalues --    3.40761   3.41511   3.42011   3.42534   3.42723
 Alpha virt. eigenvalues --    3.43173   3.43407   3.43734   3.44271   3.45298
 Alpha virt. eigenvalues --    3.45348   3.45885   3.46288   3.47230   3.47815
 Alpha virt. eigenvalues --    3.48226   3.48484   3.49920   3.50509   3.50632
 Alpha virt. eigenvalues --    3.51186   3.52521   3.52557   3.53293   3.53574
 Alpha virt. eigenvalues --    3.53915   3.53922   3.54468   3.55503   3.56857
 Alpha virt. eigenvalues --    3.57842   3.58757   3.59386   3.60674   3.60905
 Alpha virt. eigenvalues --    3.61529   3.61565   3.62589   3.63320   3.63841
 Alpha virt. eigenvalues --    3.64368   3.66216   3.66962   3.67771   3.68244
 Alpha virt. eigenvalues --    3.68413   3.68894   3.69496   3.71202   3.73127
 Alpha virt. eigenvalues --    3.74816   3.75710   3.76548   3.77437   3.77912
 Alpha virt. eigenvalues --    3.78033   3.78686   3.79099   3.79588   3.80187
 Alpha virt. eigenvalues --    3.80786   3.82178   3.82788   3.84461   3.86135
 Alpha virt. eigenvalues --    3.86185   3.87568   3.88024   3.88346   3.90410
 Alpha virt. eigenvalues --    3.90678   3.91209   3.91373   3.91999   3.92912
 Alpha virt. eigenvalues --    3.93592   3.93705   3.94614   3.95091   3.95381
 Alpha virt. eigenvalues --    3.96601   3.96976   3.98504   3.99068   4.00369
 Alpha virt. eigenvalues --    4.02506   4.02892   4.03085   4.03927   4.04356
 Alpha virt. eigenvalues --    4.04793   4.05798   4.08446   4.09086   4.09342
 Alpha virt. eigenvalues --    4.10636   4.11069   4.13244   4.15877   4.17224
 Alpha virt. eigenvalues --    4.18471   4.22000   4.23832   4.24828   4.25918
 Alpha virt. eigenvalues --    4.27141   4.27454   4.28146   4.29026   4.29604
 Alpha virt. eigenvalues --    4.32337   4.32411   4.34588   4.37242   4.38057
 Alpha virt. eigenvalues --    4.38332   4.39602   4.40176   4.40769   4.41325
 Alpha virt. eigenvalues --    4.42580   4.42985   4.45139   4.45664   4.47717
 Alpha virt. eigenvalues --    4.49357   4.49429   4.50142   4.51766   4.52666
 Alpha virt. eigenvalues --    4.54585   4.54888   4.57543   4.59788   4.60780
 Alpha virt. eigenvalues --    4.62135   4.64893   4.65763   4.65985   4.66787
 Alpha virt. eigenvalues --    4.67277   4.69490   4.70389   4.71510   4.72792
 Alpha virt. eigenvalues --    4.73569   4.74870   4.76316   4.76693   4.77266
 Alpha virt. eigenvalues --    4.78159   4.82387   4.84591   4.85614   4.88091
 Alpha virt. eigenvalues --    4.93919   4.98972   5.01192   5.06157   5.13060
 Alpha virt. eigenvalues --    5.14590   5.18278   5.19576   5.19707   5.20759
 Alpha virt. eigenvalues --    5.21144   5.21301   5.21662   5.22173   5.22342
 Alpha virt. eigenvalues --    5.23304   5.24157   5.25295   5.26095   5.26294
 Alpha virt. eigenvalues --    5.26588   5.26880   5.27264   5.27751   5.28093
 Alpha virt. eigenvalues --    5.28679   5.29318   5.30274   5.32215   5.32912
 Alpha virt. eigenvalues --    5.34634   5.34803   5.35663   5.36049   5.37402
 Alpha virt. eigenvalues --    5.38296   5.38632   5.39905   5.41381   5.43107
 Alpha virt. eigenvalues --    5.43739   5.44461   5.45132   5.45938   5.46343
 Alpha virt. eigenvalues --    5.47099   5.47287   5.47865   5.48059   5.49579
 Alpha virt. eigenvalues --    5.49878   5.50721   5.51915   5.52625   5.53246
 Alpha virt. eigenvalues --    5.54126   5.57750   5.59110   5.62453   5.63992
 Alpha virt. eigenvalues --    5.67544   5.70199   5.70869   5.71578   5.71880
 Alpha virt. eigenvalues --    5.71983   5.72546   5.73050   5.76178   5.76462
 Alpha virt. eigenvalues --    5.76968   5.77641   5.79316   5.80614   5.81931
 Alpha virt. eigenvalues --    5.82421   5.82484   5.83734   5.84163   5.84884
 Alpha virt. eigenvalues --    5.84995   5.86245   5.87108   5.87585   5.87635
 Alpha virt. eigenvalues --    5.88618   5.90024   5.90507   5.90736   5.92940
 Alpha virt. eigenvalues --    5.96353   5.97894   5.99960   6.01474   6.02380
 Alpha virt. eigenvalues --    6.04666   6.05995   6.07633   6.10219   6.13153
 Alpha virt. eigenvalues --    6.15198   6.15869   6.17106   6.18720   6.19625
 Alpha virt. eigenvalues --    6.21641   6.25798   6.26201   6.26437   6.27016
 Alpha virt. eigenvalues --    6.28302   6.30166   6.30697   6.36605   6.36834
 Alpha virt. eigenvalues --    6.39188   6.39985   6.42701   6.43257   6.44377
 Alpha virt. eigenvalues --    6.44584   6.44914   6.45863   6.47123   6.48812
 Alpha virt. eigenvalues --    6.49589   6.49939   6.51666   6.53676   6.54212
 Alpha virt. eigenvalues --    6.54411   6.56372   6.59086   6.59885   6.62436
 Alpha virt. eigenvalues --    6.63744   6.64484   6.65603   6.65778   6.66818
 Alpha virt. eigenvalues --    6.68880   6.68962   6.69930   6.71107   6.71763
 Alpha virt. eigenvalues --    6.73816   6.75863   6.76543   6.76987   6.78084
 Alpha virt. eigenvalues --    6.78853   6.79594   6.80016   6.80850   6.81791
 Alpha virt. eigenvalues --    6.82781   6.83350   6.83670   6.85345   6.86361
 Alpha virt. eigenvalues --    6.86940   6.89161   6.90458   6.90910   6.92978
 Alpha virt. eigenvalues --    6.94576   6.95031   6.95520   6.98322   6.99113
 Alpha virt. eigenvalues --    7.00315   7.02132   7.03342   7.04429   7.05922
 Alpha virt. eigenvalues --    7.07617   7.08389   7.09611   7.10888   7.11616
 Alpha virt. eigenvalues --    7.12403   7.12846   7.13840   7.14830   7.15218
 Alpha virt. eigenvalues --    7.16220   7.16576   7.20147   7.22268   7.24570
 Alpha virt. eigenvalues --    7.26728   7.26858   7.29415   7.33308   7.34587
 Alpha virt. eigenvalues --    7.38725   7.41199   7.42010   7.50542  22.52673
 Alpha virt. eigenvalues --   22.54608  22.55984  22.58470  22.59692  22.61113
 Alpha virt. eigenvalues --   22.63492  22.65900  22.67386  22.68862  22.70497
 Alpha virt. eigenvalues --   22.84049  23.15322  23.19849  23.29254  23.50856
 Alpha virt. eigenvalues --   23.56242  43.95286  43.97715  43.98819  44.00568
 Alpha virt. eigenvalues --   44.04558  44.06533  44.09991  44.14045  44.22687
 Alpha virt. eigenvalues --   44.27182  44.33973  44.37258  44.39832  44.51649
 Alpha virt. eigenvalues --   44.54613  44.60821
          Condensed to atoms (all electrons):
 Mulliken charges:
               1
     1  O   -0.542088
     2  Ti   1.066268
     3  O   -0.332042
     4  O   -0.639726
     5  O   -0.521384
     6  C   -0.155397
     7  C   -0.044464
     8  C   -0.159767
     9  C   -0.102780
    10  O   -0.522383
    11  C   -0.037146
    12  C   -0.159002
    13  O   -0.444783
    14  C   -0.092294
    15  C   -0.123461
    16  O   -0.555441
    17  H    0.183343
    18  H    0.176689
    19  H    0.148858
    20  H    0.162920
    21  H    0.129044
    22  H    0.153088
    23  H    0.152191
    24  H    0.182926
    25  H    0.176844
    26  H    0.158171
    27  H    0.153146
    28  H    0.139397
    29  H    0.136615
    30  O   -0.524503
    31  H    0.385835
    32  H    0.342653
    33  H    0.344100
    34  H    0.446532
    35  O   -0.617778
    36  H    0.422880
    37  C    0.401057
    38  O   -0.546138
    39  O   -0.190806
    40  C    0.232993
    41  O   -0.374305
    42  C    0.299415
    43  C   -0.207626
    44  C   -0.204463
    45  C    0.044456
    46  H    0.237940
    47  C    0.358017
    48  H    0.189939
    49  O   -0.349762
    50  O   -0.405900
    51  H    0.374039
    52  H    0.155296
    53  H    0.156732
    54  H    0.161287
    55  O   -0.505486
    56  C   -0.103538
    57  C   -0.111116
    58  O   -0.530736
    59  H    0.414945
    60  H    0.169551
    61  H    0.164645
    62  H    0.370683
    63  H    0.157358
    64  H    0.154463
 Sum of Mulliken charges =  -0.00000
 Mulliken charges with hydrogens summed into heavy atoms:
               1
     1  O   -0.127143
     2  Ti   1.066268
     3  O   -0.332042
     4  O   -0.639726
     5  O   -0.521384
     6  C    0.155920
     7  C    0.231548
     8  C    0.200265
     9  C    0.208998
    10  O   -0.178283
    11  C    0.268133
    12  C    0.200768
    13  O    0.001749
    14  C    0.224289
    15  C    0.162315
    16  O   -0.169607
    30  O   -0.181850
    35  O   -0.617778
    37  C    0.401057
    38  O   -0.123258
    39  O   -0.190806
    40  C    0.232993
    41  O   -0.374305
    42  C    0.299415
    43  C    0.030314
    44  C   -0.014524
    45  C    0.044456
    47  C    0.358017
    49  O   -0.349762
    50  O   -0.031861
    55  O   -0.505486
    56  C    0.208283
    57  C    0.223079
    58  O   -0.160053
 Electronic spatial extent (au):  <R**2>=          15243.4142
 Charge=              0.0000 electrons
 Dipole moment (field-independent basis, Debye):
    X=              1.7100    Y=             -3.7158    Z=             16.6179  Tot=             17.1139
 Quadrupole moment (field-independent basis, Debye-Ang):
   XX=           -194.8230   YY=           -220.0883   ZZ=           -227.4763
   XY=              8.8262   XZ=            -33.6153   YZ=             10.1627
 Traceless Quadrupole moment (field-independent basis, Debye-Ang):
   XX=             19.3062   YY=             -5.9591   ZZ=            -13.3471
   XY=              8.8262   XZ=            -33.6153   YZ=             10.1627
 Octapole moment (field-independent basis, Debye-Ang**2):
  XXX=             95.9857  YYY=            -16.3628  ZZZ=            314.5657  XYY=             25.2515
  XXY=            -66.3410  XXZ=             51.2404  XZZ=             29.0223  YZZ=           -104.9858
  YYZ=             71.2866  XYZ=            -53.0079
 Hexadecapole moment (field-independent basis, Debye-Ang**3):
 XXXX=          -8241.4040 YYYY=          -3511.4738 ZZZZ=          -8745.7504 XXXY=            735.3961
 XXXZ=          -1828.6533 YYYX=            654.6782 YYYZ=            268.3689 ZZZX=          -1544.0669
 ZZZY=            480.2008 XXYY=          -1862.0709 XXZZ=          -2682.2447 YYZZ=          -1807.8096
 XXYZ=            -21.5859 YYXZ=           -471.8138 ZZXY=             85.4083
 N-N= 4.983249739800D+03 E-N=-1.636484208392D+04  KE= 2.709835751994D+03
   1 Symmetry operations used in ECPInt.
 ECPInt:  NShTT=  124251 NPrTT=  385001 LenC2=  100079 LenP2D=  205882.
 LDataN:  DoStor=T MaxTD1= 7 Len=  274
 D1PCM: PCM CHGder 1st derivatives, ID1Alg=3 FixD1E=F DoIter=F DoCFld=F I1PDM=0.
 Calling FoFJK, ICntrl=      2127 FMM=T ISym2X=0 I1Cent= 0 IOpClX= 0 NMat=1 NMatS=1 NMatT=0.
 -------------------------------------------------------------------
 Center     Atomic                   Forces (Hartrees/Bohr)
 Number     Number              X              Y              Z
 -------------------------------------------------------------------
      1        8          -0.000002251   -0.000000642   -0.000001768
      2       22          -0.000009518   -0.000002739    0.000005098
      3        8          -0.000001148    0.000001235   -0.000002076
      4        8          -0.000000663    0.000001231   -0.000008859
      5        8           0.000005217    0.000003689   -0.000008472
      6        6          -0.000002426   -0.000004773    0.000003776
      7        6           0.000000400   -0.000000494    0.000001628
      8        6           0.000000996    0.000001159   -0.000001614
      9        6          -0.000000699   -0.000000628   -0.000001100
     10        8           0.000000562    0.000000351    0.000000228
     11        6           0.000002189   -0.000003049    0.000004004
     12        6           0.000001816   -0.000002435   -0.000000788
     13        8          -0.000004766    0.000000496    0.000003812
     14        6           0.000003710    0.000001033    0.000000657
     15        6          -0.000005287    0.000000651    0.000001843
     16        8           0.000000775   -0.000000932   -0.000004858
     17        1           0.000000269   -0.000000075   -0.000000211
     18        1          -0.000000230    0.000000606   -0.000000489
     19        1           0.000000188   -0.000000002    0.000000653
     20        1           0.000000373   -0.000000174    0.000000011
     21        1           0.000000880    0.000001394   -0.000001093
     22        1           0.000000626   -0.000000136   -0.000001845
     23        1           0.000000265    0.000000175   -0.000002113
     24        1           0.000000591   -0.000000761   -0.000000844
     25        1           0.000000163   -0.000000577   -0.000001019
     26        1           0.000001570    0.000000060    0.000000193
     27        1          -0.000000930    0.000000786   -0.000000517
     28        1          -0.000000228   -0.000000411    0.000000834
     29        1          -0.000000271   -0.000001196    0.000000369
     30        8          -0.000000217    0.000000361    0.000001742
     31        1           0.000000793    0.000001846    0.000000283
     32        1           0.000000516   -0.000000598    0.000001370
     33        1           0.000000088   -0.000000659   -0.000000711
     34        1           0.000003274   -0.000003946   -0.000001256
     35        8          -0.000002079   -0.000002593    0.000003931
     36        1          -0.000000263    0.000004413   -0.000002883
     37        6           0.000002506    0.000010347   -0.000009653
     38        8           0.000000679   -0.000005341    0.000008010
     39        8           0.000001273    0.000001255    0.000001628
     40        6           0.000000808   -0.000002217    0.000001457
     41        8          -0.000000950    0.000000781    0.000002035
     42        6          -0.000002870    0.000002578   -0.000000670
     43        6          -0.000002452    0.000000496    0.000001191
     44        6           0.000000275    0.000000793   -0.000000227
     45        6           0.000000130    0.000000389    0.000000987
     46        1           0.000000276    0.000000710   -0.000000210
     47        6          -0.000000890    0.000001958    0.000002962
     48        1          -0.000001389    0.000000186    0.000001679
     49        8          -0.000000331   -0.000000191    0.000000952
     50        8          -0.000000345   -0.000000108   -0.000000061
     51        1           0.000000139   -0.000000174    0.000000980
     52        1          -0.000003040    0.000000118   -0.000000985
     53        1          -0.000001040    0.000000310   -0.000001514
     54        1          -0.000001682   -0.000000583   -0.000000262
     55        8           0.000007536    0.000000965    0.000010009
     56        6          -0.000002964   -0.000000137   -0.000004730
     57        6          -0.000000171   -0.000004915   -0.000001919
     58        8           0.000006015    0.000002314   -0.000002203
     59        1           0.000002247    0.000000460    0.000002203
     60        1           0.000001265    0.000000004   -0.000000665
     61        1           0.000000299   -0.000001556    0.000000370
     62        1           0.000000039   -0.000000204    0.000000454
     63        1           0.000001580   -0.000000421   -0.000000099
     64        1          -0.000001229   -0.000000486    0.000000367
 -------------------------------------------------------------------
 Cartesian Forces:  Max     0.000010347 RMS     0.000002619

 GradGradGradGradGradGradGradGradGradGradGradGradGradGradGradGradGradGrad
 Berny optimization.
 FormGI is forming the generalized inverse of G from B-inverse, IUseBI=4.
 Internal  Forces:  Max     0.000017891 RMS     0.000002012
 Search for a local minimum.
 Step number   1 out of a maximum of  375
 All quantities printed in internal units (Hartrees-Bohrs-Radians)
 Mixed Optimization -- En-DIIS/RFO-DIIS
 Second derivative matrix not updated -- first step.
 ITU=  0
     Eigenvalues ---    0.00074   0.00121   0.00138   0.00206   0.00226
     Eigenvalues ---    0.00248   0.00273   0.00284   0.00289   0.00314
     Eigenvalues ---    0.00369   0.00399   0.00421   0.00437   0.00460
     Eigenvalues ---    0.00535   0.00617   0.00728   0.00747   0.00767
     Eigenvalues ---    0.00867   0.00994   0.01149   0.01280   0.01471
     Eigenvalues ---    0.01618   0.01811   0.01961   0.02037   0.02074
     Eigenvalues ---    0.02149   0.02384   0.02439   0.02662   0.02839
     Eigenvalues ---    0.03124   0.03560   0.04015   0.04018   0.04237
     Eigenvalues ---    0.04339   0.04428   0.04539   0.04681   0.04719
     Eigenvalues ---    0.04798   0.04805   0.04881   0.04952   0.05039
     Eigenvalues ---    0.05069   0.05286   0.05534   0.05713   0.05835
     Eigenvalues ---    0.06090   0.06166   0.06241   0.06310   0.06438
     Eigenvalues ---    0.06565   0.06704   0.06914   0.07021   0.07432
     Eigenvalues ---    0.07726   0.07905   0.08072   0.08293   0.08557
     Eigenvalues ---    0.08807   0.09228   0.09355   0.09681   0.09976
     Eigenvalues ---    0.10037   0.10072   0.10131   0.10213   0.10325
     Eigenvalues ---    0.10334   0.10573   0.10870   0.11000   0.11244
     Eigenvalues ---    0.11571   0.11697   0.12130   0.12139   0.12283
     Eigenvalues ---    0.12495   0.12686   0.12842   0.14314   0.14560
     Eigenvalues ---    0.14725   0.14872   0.14924   0.15033   0.15319
     Eigenvalues ---    0.15684   0.16748   0.16915   0.17035   0.17186
     Eigenvalues ---    0.17755   0.17836   0.18177   0.19313   0.19565
     Eigenvalues ---    0.20477   0.20594   0.21118   0.22868   0.23125
     Eigenvalues ---    0.23859   0.24130   0.24376   0.25068   0.25676
     Eigenvalues ---    0.25811   0.26076   0.26471   0.26651   0.26851
     Eigenvalues ---    0.28136   0.28541   0.29542   0.29728   0.30088
     Eigenvalues ---    0.30355   0.31258   0.31542   0.32171   0.32380
     Eigenvalues ---    0.32402   0.32659   0.32941   0.32979   0.33046
     Eigenvalues ---    0.33186   0.33231   0.33333   0.33364   0.33427
     Eigenvalues ---    0.33571   0.33609   0.34078   0.34194   0.34302
     Eigenvalues ---    0.34326   0.34352   0.34442   0.34609   0.35057
     Eigenvalues ---    0.35431   0.35918   0.36458   0.36731   0.36828
     Eigenvalues ---    0.37253   0.37880   0.38456   0.38737   0.38808
     Eigenvalues ---    0.38866   0.39233   0.39958   0.41833   0.41995
     Eigenvalues ---    0.42088   0.44953   0.46965   0.51967   0.52788
     Eigenvalues ---    0.52975   0.53497   0.53516   0.54857   0.56339
     Eigenvalues ---    0.57734   0.87720   0.90969   0.91144   0.93022
     Eigenvalues ---    1.56620
 RFO step:  Lambda=-6.95214422D-08 EMin= 7.35538298D-04
 Linear search not attempted -- first point.
 Iteration  1 RMS(Cart)=  0.00168439 RMS(Int)=  0.00000217
 Iteration  2 RMS(Cart)=  0.00000303 RMS(Int)=  0.00000018
 Iteration  3 RMS(Cart)=  0.00000000 RMS(Int)=  0.00000018
 Variable       Old X    -DE/DX   Delta X   Delta X   Delta X     New X
                                 (Linear)    (Quad)   (Total)
    R1        3.97391   0.00000   0.00000   0.00055   0.00055   3.97446
    R2        2.67248   0.00000   0.00000   0.00004   0.00004   2.67252
    R3        2.06806  -0.00000   0.00000  -0.00066  -0.00066   2.06740
    R4        3.62810  -0.00000   0.00000   0.00011   0.00011   3.62821
    R5        3.43296  -0.00000   0.00000  -0.00010  -0.00010   3.43286
    R6        3.99544   0.00000   0.00000  -0.00005  -0.00005   3.99539
    R7        3.86978  -0.00000   0.00000  -0.00023  -0.00023   3.86956
    R8        3.42572  -0.00001   0.00000  -0.00012  -0.00012   3.42561
    R9        2.69704  -0.00000   0.00000  -0.00000  -0.00000   2.69703
   R10        4.08004  -0.00000   0.00000  -0.00006  -0.00006   4.07998
   R11        2.63514   0.00000   0.00000   0.00001   0.00001   2.63514
   R12        2.65842   0.00000   0.00000   0.00004   0.00004   2.65845
   R13        2.63955  -0.00000   0.00000  -0.00002  -0.00002   2.63953
   R14        2.87365  -0.00000   0.00000  -0.00001  -0.00001   2.87364
   R15        2.07474   0.00000   0.00000  -0.00001  -0.00001   2.07472
   R16        2.06868   0.00000   0.00000   0.00000   0.00000   2.06869
   R17        2.06939   0.00000   0.00000  -0.00000  -0.00000   2.06939
   R18        2.06229   0.00000   0.00000   0.00000   0.00000   2.06230
   R19        2.67443   0.00000   0.00000  -0.00001  -0.00001   2.67442
   R20        2.87149  -0.00000   0.00000  -0.00000  -0.00000   2.87148
   R21        2.06699   0.00000   0.00000  -0.00001  -0.00001   2.06698
   R22        2.06942   0.00000   0.00000  -0.00001  -0.00001   2.06942
   R23        2.67517   0.00000   0.00000  -0.00001  -0.00001   2.67516
   R24        2.06769  -0.00000   0.00000   0.00000   0.00000   2.06769
   R25        2.06170   0.00000   0.00000  -0.00000  -0.00000   2.06169
   R26        1.81948   0.00000   0.00000   0.00000   0.00000   1.81948
   R27        2.87340  -0.00000   0.00000   0.00001   0.00001   2.87341
   R28        2.07260  -0.00000   0.00000  -0.00001  -0.00001   2.07259
   R29        2.06553  -0.00000   0.00000  -0.00000  -0.00000   2.06552
   R30        2.72428   0.00000   0.00000   0.00003   0.00003   2.72431
   R31        2.05788  -0.00000   0.00000  -0.00000  -0.00000   2.05788
   R32        2.05984  -0.00000   0.00000  -0.00001  -0.00001   2.05984
   R33        1.88026  -0.00000   0.00000   0.00000   0.00000   1.88026
   R34        2.87065  -0.00000   0.00000  -0.00001  -0.00001   2.87064
   R35        2.06172  -0.00000   0.00000  -0.00000  -0.00000   2.06171
   R36        2.05742   0.00000   0.00000   0.00000   0.00000   2.05742
   R37        2.69447  -0.00000   0.00000  -0.00003  -0.00003   2.69444
   R38        2.06267   0.00000   0.00000  -0.00000  -0.00000   2.06266
[...]
 0.00002610,-0.00000361,-0.00001210,0.00001823,0.00000717,-0.00002450,-
 0.00004284,0.00003057,0.00006054,0.00001092,-0.00000217,-0.00001467,-0
 .00002095,-0.00001356,0.00000865,-0.00000760,-0.00001311,0.00001103,0.
 00000213,0.00003279,0.00001307,0.00001115,0.00000088,-0.00000608,0.000
 02096,-0.00001287,-0.00001033,-0.00002902,0.00004234,0.00001841,0.0000
 5315,0.00003016,-0.00006602,-0.00012455,0.00006348,-0.00002423,-0.0004
 3576,-0.00051156,-0.00004020,-0.00003255,-0.00013707,-0.00011272,0.000
 46957,-0.00040259,0.00037300,0.00000361,0.00004191,-0.00005746,0.00005
 427,0.00007379,-0.00004276,0.00002553,-0.00005743,-0.00006960,-0.00000
 655,-0.00002893,0.00000855,0.00000253,0.00000677,-0.00000100,0.0042519
 1,0.00135855,-0.00223078,0.00001082,-0.00004668,0.00009803,0.00003951,
 -0.00006636,-0.00002380,0.00001252,0.00011643,-0.00022999,-0.00001682,
 -0.00000425,0.00038191,0.00002894,-0.00002130,0.00002933,-0.00002337,0
 .00000914,0.00000337,-0.00000165,-0.00001766,0.00003501,-0.00000204,0.
 00002363,-0.00004451,0.00003110,0.00000757,-0.00000842,-0.00000247,-0.
 00001213,0.00002234,-0.00002588,0.00000823,-0.00000831,-0.00001566,-0.
 00000235,-0.00003925,-0.00001959,0.00002472,-0.00003490,-0.00000029,-0
 .00000008,0.00000176,0.00002760,-0.00001347,0.00001342,0.00001161,-0.0
 0001925,0.00003697,-0.00000502,0.00000454,0.00000014,-0.00000381,-0.00
 000208,0.00000099,-0.00000682,0.00000249,0.00000564,-0.00000227,0.0000
 0228,0.00000358,-0.00085159,-0.00043394,0.00080924,0.00147378,0.001780
 53,-0.00103873,0.01788031,-0.03196445,0.01086211,0.18055193,-0.3251599
 1,0.10246859,-0.00005706,0.00001304,-0.00013684,-0.00438084,-0.0030129
 9,-0.00172011,0.00052343,0.00179395,0.00084672,-0.19748783,0.35651063,
 -0.00056235,-0.00021584,0.00021734,0.00346502,-0.00223173,-0.00148835,
 -0.00007283,0.00007131,0.00016190,-0.00076386,0.00056845,-0.00009122,-
 0.00191710,0.00013248,0.00238837,0.00035606,0.00167129,-0.00090748,-0.
 00001141,0.00040805,-0.00028912,0.00023976,0.00003310,0.00008338,0.000
 02955,0.00005290,0.00003019,-0.00007763,-0.00004450,-0.00003048,-0.000
 01142,-0.00007028,0.00023674,0.00020170,-0.00016815,0.00011281,0.00061
 436,0.00090243,-0.00150380,0.00005612,-0.00000865,-0.00002221,0.000025
 17,0.00001050,-0.00003214,-0.00009611,0.00007412,0.00009083,-0.0000165
 8,0.00000221,-0.00001864,-0.00005868,-0.00002077,0.00000683,-0.0000046
 2,-0.00001082,0.00000179,0.00000230,0.00001772,0.00000980,0.00001815,0
 .00000104,-0.00000689,0.00000930,0.00000957,-0.00003321,-0.00003589,0.
 00004269,-0.00002854,-0.00003666,0.00001016,-0.00003066,-0.00005887,0.
 00003033,0.00001618,0.00018001,0.00014732,-0.00025656,-0.00003889,-0.0
 0014402,0.00015783,-0.00040564,0.00037759,-0.00086243,0.00000073,-0.00
 003933,0.00008058,0.00008680,-0.00047834,0.00006549,0.00004154,-0.0000
 9746,-0.00010493,-0.00001923,0.00007692,0.00004291,0.00000848,0.000011
 27,-0.00000103,0.00035130,-0.00233723,0.00163769,-0.00000356,-0.000041
 05,0.00021380,0.00007890,-0.00017538,-0.00002251,0.00005897,0.00013259
 ,-0.00044784,-0.00007231,0.00015927,0.00059226,0.00006803,-0.00005736,
 0.00007826,-0.00003470,0.00002697,-0.00002396,-0.00000516,-0.00004328,
 0.00009663,-0.00000395,0.00005524,-0.00012547,0.00007569,0.00003723,0.
 00000794,-0.00001035,-0.00002550,0.00005748,-0.00007042,0.00002488,-0.
 00002806,-0.00003814,-0.00003220,-0.00005203,-0.00006534,0.00003351,-0
 .00007057,-0.00000157,-0.00000267,0.00000292,0.00006483,-0.00002209,0.
 00002441,0.00003685,-0.00001134,0.00006855,-0.00001192,-0.00000590,0.0
 0000413,-0.00000629,-0.00000313,0.00000342,-0.00001286,0.00000824,0.00
 000942,-0.00000545,0.00000569,0.00000707,-0.00074213,0.00072062,-0.000
 11712,0.00189741,-0.00305478,0.00155813,0.00455802,-0.00994006,0.00179
 871,-0.09344183,0.12414245,-0.05505029,-0.00002526,0.00000435,-0.00026
 902,-0.00039091,-0.00126578,0.00013024,-0.00068548,0.00049212,-0.00011
 796,0.08816606,-0.11137721,0.05295692,-0.00009413,-0.00028178,0.000165
 73,0.00119911,0.00848243,-0.00278509,-0.00001251,0.00001931,0.00011444
 ,-0.00169273,0.00013260,-0.00004198,0.00252110,-0.00050099,-0.00063815
 ,0.00019206,-0.00061791,-0.00003783,-0.00009776,-0.00012081,0.00009053
 ,0.00006725,0.00000545,-0.00001431,0.00001350,0.00002081,0.00002385,-0
 .00003484,-0.00002182,-0.00001257,0.00021604,-0.00008801,0.00063200,0.
 00010309,0.00004809,0.00002460,0.00000609,-0.00041532,-0.00046410,0.00
 001741,-0.00000354,-0.00001502,0.00003169,0.00001911,-0.00003323,-0.00
 005018,0.00003900,0.00012011,0.00002608,-0.00000655,-0.00000222,-0.000
 01192,-0.00001583,0.00000922,-0.00000264,-0.00001214,-0.00000037,0.000
 00120,0.00001092,0.00000397,0.00001245,0.00000704,-0.00001352,0.000137
 54,-0.00004244,0.00001484,-0.00007900,-0.00000907,-0.00003005,0.000000
 60,-0.00002220,-0.00003758,-0.00000702,-0.00001218,0.00000424,-0.00000
 641,0.00002452,0.00004843,0.00004473,0.00016309,-0.00004253,0.00000984
 ,-0.00003620,-0.00005835,-0.00000010,-0.00002561,0.00000035,0.00001183
 ,0.00011590,-0.00002551,0.00004587,-0.00011484,-0.00015314,0.00000271,
 -0.00001469,-0.00000846,0.00000414,0.00000442,-0.00000010,-0.00051479,
 0.00010421,0.00024072,0.00002674,-0.00009258,0.00009718,0.00005135,-0.
 00005790,-0.00009410,-0.00005381,0.00023281,-0.00032952,0.00004911,-0.
 00014875,0.00061460,0.00002245,0.00002054,-0.00003093,-0.00007730,-0.0
 0001053,0.00003662,-0.00000307,0.00000350,-0.00000794,0.00001710,-0.00
 000957,0.00001447,0.00001407,-0.00002246,-0.00001090,-0.00002162,0.000
 00651,-0.00000327,0.00003574,-0.00001353,-0.00000267,-0.00003463,-0.00
 002550,0.00025940,-0.00000049,0.00014492,-0.00029910,0.00000167,0.0000
 0432,-0.00000498,0.00006629,-0.00004752,0.00008353,0.00008775,-0.00003
 094,0.00017647,-0.00005662,-0.00001109,0.00004343,-0.00000201,-0.00000
 270,0.00000466,-0.00001022,0.00000330,0.00000940,0.00000042,0.00000208
 ,0.00000541,-0.03520707,0.02101816,0.00223306,-0.09318156,0.08452817,-
 0.04482128,-0.00057928,0.00329186,-0.00414020,0.00049881,0.00025953,0.
 00122801,-0.00006749,0.00001899,-0.00013241,0.00096310,0.00046339,-0.0
 0029307,0.00003749,-0.00046022,-0.00051710,0.00000596,-0.00036149,-0.0
 0062625,0.11628278,0.00035309,0.00018705,-0.00018535,-0.00268961,-0.00
 186976,0.00132675,0.00000116,-0.00001997,-0.00008090,0.00014692,-0.000
 03824,0.00000874,-0.00124090,0.00080411,0.00058950,0.00006552,-0.00050
 603,-0.00016442,0.00004251,-0.00004453,0.00009925,-0.00009257,0.000053
 86,-0.00005861,-0.00000494,-0.00002267,-0.00001576,0.00003293,0.000020
 36,0.00001476,-0.00006240,-0.00000810,-0.00003168,-0.00010176,0.000026
 14,-0.00002696,0.00017746,0.00007865,0.00017154,-0.00001438,0.00000477
 ,0.00000944,-0.00001351,-0.00000550,0.00001819,0.00003849,-0.00002676,
 -0.00004216,-0.00000453,-0.00000594,0.00000714,0.00003461,0.00001358,0
 .00000017,0.00000236,0.00000488,-0.00000015,-0.00000147,-0.00000778,-0
 .00000309,-0.00000692,-0.00000018,0.00000301,0.00000530,0.00003540,-0.
 00002648,0.00002811,-0.00000076,0.00000520,0.00001181,-0.00000287,0.00
 001143,0.00001371,0.00000257,-0.00000010,-0.00000245,0.00006454,0.0000
 3128,-0.00000245,0.00012111,0.00000466,-0.00002627,0.00014612,-0.00012
 311,0.00001956,0.00007377,0.00000130,-0.00005028,0.00014056,0.00000157
 ,-0.00002231,0.00003808,0.00004420,0.00001164,-0.00001362,-0.00001497,
 -0.00000423,-0.00000557,0.00000096,-0.00000372,-0.00006614,-0.00007788
 ,-0.00004398,0.00003147,-0.00011408,-0.00004301,0.00006374,0.00003880,
 0.00007242,-0.00012658,0.00025670,0.00001952,0.00004830,-0.00044955,-0
 .00003606,-0.00001976,0.00005087,0.00006776,-0.00000097,-0.00002521,-0
 .00001230,-0.00001701,0.00003950,0.00002090,0.00002110,-0.00005242,-0.
 00005363,-0.00001135,-0.00000103,-0.00002636,-0.00000062,0.00001493,-0
 .00001019,-0.00000800,0.00001914,0.00016161,0.00007003,-0.00042462,-0.
 00001222,0.00017762,-0.00039735,0.00000104,-0.00000045,0.00000078,0.00
 016119,-0.00010982,0.00017493,0.00010015,-0.00013476,0.00060711,-0.000
 05953,0.00000286,-0.00006754,0.00000179,0.00000096,-0.00000192,0.00000
 482,-0.00000257,-0.00000546,0.00000021,-0.00000171,-0.00000258,0.01131
 422,0.00108206,-0.00471816,0.08793535,-0.21293149,0.07877390,-0.003265
 69,0.00190109,-0.00307570,-0.00010369,0.00287330,-0.00003319,0.0000481
 5,-0.00000833,0.00013297,-0.00092756,0.00069701,-0.00138790,0.00010049
 ,0.00012045,0.00092940,0.00058294,0.00004795,0.00076836,-0.10301103,0.
 22616779,0.00014523,0.00022830,-0.00009575,-0.00088857,-0.00345750,0.0
 0181167,-0.00001542,-0.00000527,-0.00005665,0.00128483,-0.00021688,0.0
 0012313,-0.00017622,-0.00007927,-0.00074464,-0.00019599,0.00002072,0.0
 0000793,-0.00001346,-0.00000046,0.00007003,-0.00007087,-0.00002818,-0.
 00000393,-0.00001557,-0.00001826,-0.00001944,0.00003183,0.00001697,0.0
 0001175,-0.00009909,0.00009712,-0.00044979,-0.00008195,-0.00000296,-0.
 00001859,0.00006898,0.00009312,0.00013868,0.00000296,0.00000162,0.0000
 0710,-0.00002039,-0.00001044,0.00002334,0.00002317,-0.00002306,-0.0000
 8041,-0.00000995,0.00000534,0.00000127,0.00001556,0.00001134,-0.000006
 84,0.00000136,0.00000825,0.00000019,-0.00000075,-0.00000747,-0.0000038
 2,-0.00000819,-0.00000465,0.00001081,-0.00009563,-0.00000494,0.0000164
 1,0.00003868,-0.00001042,0.00002959,0.00000506,0.00001347,0.00002629,0
 .00001156,0.00000043,-0.00000262,-0.00001323,-0.00002887,-0.00001435,-
 0.00000249,-0.00002099,-0.00000735,-0.00004989,-0.00011641,-0.00002369
 ,0.00000142,-0.00002926,-0.00003288,-0.00000084,0.00003387,-0.00002568
 ,-0.00002849,0.00007964,0.00010856,-0.00000950,-0.00000981,0.00000163,
 -0.00000400,-0.00000391,0.00000006,-0.00003715,-0.00000414,-0.00006083
 ,-0.00006120,0.00001082,-0.00009601,-0.00000366,0.00002480,0.00005167,
 0.00007814,-0.00010710,0.00017273,-0.00010105,0.00007649,-0.00030506,-
 0.00001777,-0.00004612,0.00007747,0.00009013,0.00001615,-0.00002253,-0
 .00000819,-0.00002753,0.00006220,0.00000247,0.00003868,-0.00008227,-0.
 00006958,0.00010394,-0.00006842,-0.00001523,-0.00001460,0.00003044,-0.
 00003160,-0.00000445,0.00003468,0.00002823,-0.00012519,-0.00005901,-0.
 00006307,0.00020841,-0.00043567,-0.00000016,-0.00000130,0.00000334,0.0
 0015065,-0.00008752,0.00013807,0.00008409,-0.00004236,0.00018536,-0.00
 002247,-0.00002146,0.00013046,-0.00000042,0.00000131,-0.00000352,0.000
 00559,-0.00000197,-0.00000769,-0.00000257,-0.00000035,-0.00000350,0.01
 704824,-0.01135780,0.00411555,-0.04796202,0.07835136,-0.08792859,-0.01
 595806,0.02893474,-0.01611191,0.00176497,0.00047985,0.00363614,0.00003
 827,-0.00000568,0.00014940,-0.00085537,-0.00156907,-0.00582307,0.00050
 097,-0.00034629,0.00101552,-0.00010344,-0.00104888,-0.00071294,0.04280
 804,-0.08385612,0.09726725,-0.00117059,-0.00087314,0.00040606,0.003215
 18,0.00429651,-0.00203443,-0.00008027,0.00008920,0.00024320,-0.0008951
 0,0.00078142,-0.00006893,0.00149149,-0.00134108,-0.00024901,0.00004043
 ,0.00039077,0.00006316,-0.00018066,-0.00001975,0.00000270,0.00036973,-
 0.00011808,0.00015307,0.00000509,0.00008034,0.00006051,-0.00010714,-0.
 00006620,-0.00005284,0.00012310,-0.00008646,0.00039328,0.00028368,-0.0
 0007772,0.00004003,-0.00030834,-0.00037457,-0.00074300,0.00006923,-0.0
 0001319,-0.00002851,0.00003249,0.00000333,-0.00004410,-0.00011171,0.00
 010224,0.00012542,-0.00000166,0.00002074,-0.00002532,-0.00010045,-0.00
 003556,0.00000039,-0.00000399,-0.00001701,0.00000400,0.00000255,0.0000
 1932,0.00000692,0.00002519,0.00000146,-0.00001193,0.00002214,-0.000017
 81,-0.00003902,-0.00007042,0.00002746,-0.00005843,-0.00003144,0.000003
 29,-0.00004309,-0.00003390,0.00000616,0.00000738,0.00000513,-0.0000940
 8,-0.00002185,0.00001656,-0.00007251,0.00000273,0.00002699,0.00000088,
 -0.00001977,0.00000407,0.00000561,0.00000738,0.00009571,-0.00011474,-0
 .00000562,0.00005269,-0.00013747,-0.00014778,-0.00001333,0.00001543,0.
 00001172,0.00001439,0.00001483,-0.00000166,-0.00033263,0.00017509,0.00
 036669,0.00005687,-0.00009225,0.00029947,0.00011437,-0.00021491,-0.000
 05221,-0.00001472,0.00028402,-0.00064177,-0.00003427,0.00001530,0.0010
 8014,0.00007696,-0.00003723,0.00005063,-0.00008431,0.00001125,0.000013
 96,-0.00000082,-0.00003090,0.00006869,-0.00000767,0.00003932,-0.000087
 21,0.00008938,0.00000879,-0.00000566,-0.00000219,-0.00002113,0.0000446
 4,-0.00004817,0.00001804,-0.00002351,-0.00006487,-0.00002517,0.0000097
 2,-0.00003178,0.00000275,-0.00000993,-0.00000079,-0.00000150,0.0000018
 8,0.00003424,-0.00000634,0.00000625,0.00003740,-0.00004489,0.00007173,
 -0.00000522,-0.00000224,0.00000497,-0.00000893,-0.00000337,0.00000408,
 -0.00001561,0.00001173,0.00001311,-0.00000594,0.00000677,0.00001028,-0
 .03710338,-0.02429249,0.00694686,-0.11696628,-0.11065065,-0.02777243,-
 0.00248675,-0.00467727,-0.00282760,0.00148023,-0.00009562,-0.00010224,
 -0.00012521,0.00003522,-0.00041788,-0.00005049,-0.00005345,0.00038015,
 0.00030357,0.00043398,-0.00030618,-0.00018374,-0.00024913,-0.00024946,
 0.00907403,0.01037219,0.00288309,0.14351989,0.00005253,-0.00000055,0.0
 0014074,0.00160974,0.00042243,-0.00121680,-0.00001948,0.00002238,0.000
 05675,-0.00037559,0.00008361,-0.00004930,-0.00075669,-0.00018983,0.000
 24287,-0.00007156,0.00040316,0.00004593,-0.00000295,0.00007056,-0.0000
 5969,0.00004595,0.00005038,-0.00000868,0.00001847,0.00000959,0.0000023
 9,-0.00002059,-0.00000894,-0.00000199,0.00001869,-0.00003810,0.0001068
 6,0.00012929,-0.00006778,0.00005088,-0.00038218,-0.00001871,0.00006796
 ,0.00001531,-0.00000243,-0.00000719,0.00001017,0.00000252,-0.00001109,
 -0.00002962,0.00002827,0.00003520,-0.00000316,-0.00000674,-0.00000506,
 -0.00000461,-0.00000426,0.00000541,-0.00000172,-0.00000397,0.00000101,
 0.00000027,0.00000731,0.00000481,0.00000450,0.00000130,-0.00000120,0.0
 0003598,-0.00000045,-0.00000433,-0.00001562,0.00001209,-0.00000354,-0.
 00000099,0.00000459,-0.00001721,-0.00002723,0.00000999,-0.00000356,0.0
 0000504,-0.00003390,-0.00003186,-0.00002016,-0.00009806,0.00002035,-0.
 00002524,-0.00000072,0.00002067,0.00000102,0.00000549,0.00000530,0.000
 02062,-0.00010597,0.00001222,0.00001660,-0.00003744,-0.00004314,-0.000
 00442,0.00001426,0.00000841,0.00000173,0.00000283,-0.00000056,0.000504
 19,0.00008540,-0.00005982,-0.00000692,-0.00003060,0.00006199,0.0000267
 3,-0.00005784,-0.00003080,0.00000670,0.00006498,-0.00017961,-0.0000371
 3,-0.00001027,0.00025222,0.00002202,-0.00001845,0.00002157,-0.00001018
 ,0.00000910,-0.00000172,0.00000119,-0.00000963,0.00002360,-0.00000744,
 0.00001273,-0.00003088,0.00002308,0.00001411,0.00000301,0.00000482,-0.
 00000798,0.00001645,-0.00002394,0.00000788,-0.00001077,-0.00003516,-0.
 00004888,-0.00001914,-0.00001760,-0.00001546,0.00005942,-0.00000095,-0
 .00000238,0.00000119,-0.00000288,0.00000655,-0.00002165,0.00001985,0.0
 0005721,-0.00005974,0.00000551,-0.00002642,0.00001320,-0.00000175,-0.0
 0000076,0.00000092,-0.00000410,0.00000270,0.00000273,-0.00000194,0.000
 00184,0.00000272,0.00107953,0.00972991,0.00394636,-0.11449204,-0.22884
 048,-0.03993076,-0.00075032,-0.00382626,0.00164804,-0.00062351,0.00073
 635,-0.00161661,-0.00001433,-0.00001084,-0.00005324,-0.00006618,0.0003
 7732,-0.00041511,0.00000943,0.00006714,-0.00055383,0.00001203,0.000705
 90,0.00066189,-0.01252723,-0.01910344,-0.00610980,0.12668444,0.2395976
 4,0.00062546,0.00056438,-0.00024876,-0.00117714,-0.00157210,0.00026949
 ,0.00002806,-0.00003714,-0.00008824,0.00048012,-0.00040947,0.00011303,
 -0.00009652,0.00063371,0.00010821,0.00000468,-0.00031263,-0.00007408,0
 .00005807,-0.00001430,0.00003420,-0.00018814,0.00005300,-0.00009132,0.
 00000544,-0.00003703,-0.00003894,0.00004635,0.00002932,0.00003014,-0.0
 0006431,0.00003260,-0.00021515,0.00001497,-0.00009263,0.00007032,-0.00
 043077,0.00017403,0.00066689,-0.00002215,0.00000429,0.00001068,-0.0000
 1281,-0.00000003,0.00001834,0.00004300,-0.00004117,-0.00005421,0.00000
 861,-0.00001075,0.00001019,0.00005294,0.00001671,0.00000265,0.00000008
 ,0.00000613,0.00000004,-0.00000092,-0.00000236,0.00000087,-0.00001096,
 -0.00000049,0.00000669,-0.00001089,-0.00000174,0.00002689,0.00002660,-
 0.00000370,0.00004428,0.00002304,0.00000723,0.00000875,-0.00002021,0.0
 0001717,-0.00000929,-0.00000115,0.00006263,0.00001902,0.00000689,0.000
 07552,-0.00000883,0.00000346,-0.00000404,-0.00000691,-0.00000208,-0.00
 000825,-0.00000367,-0.00003955,0.00009693,-0.00000758,-0.00002118,0.00
 005849,0.00006557,0.00000513,-0.00001193,-0.00000989,-0.00000749,-0.00
 000704,0.00000036,0.00123685,0.00002387,-0.00065854,-0.00004645,0.0000
 0297,-0.00014259,-0.00001878,0.00008763,0.00001137,-0.00000072,-0.0000
 7393,0.00021476,-0.00002229,-0.00007047,-0.00033225,-0.00003292,0.0000
 1442,-0.00001375,0.00003769,-0.00000750,-0.00000286,-0.00000118,0.0000
 0945,-0.00002234,0.00000547,-0.00001146,0.00002824,-0.00004814,-0.0000
 0847,-0.00002402,-0.00000205,0.00000772,-0.00001657,0.00001927,-0.0000
 0825,0.00001891,0.00002565,0.00001204,0.00004100,0.00001713,0.00002009
 ,-0.00006190,0.00000071,0.00000142,-0.00000028,0.00000811,-0.00001035,
 0.00002429,0.00001920,-0.00007570,0.00009475,-0.00000527,0.00000823,0.
 00000455,0.00000287,0.00000124,-0.00000212,0.00000608,-0.00000520,-0.0
 0000615,0.00000185,-0.00000252,-0.00000457,0.01936712,0.01451876,0.000
 97280,-0.02989736,-0.03894764,-0.05999285,-0.01559872,-0.02660264,-0.0
 0094687,-0.00385319,-0.00436667,-0.00838410,0.00006353,-0.00000799,0.0
 0022189,-0.00009232,0.00098435,0.00116119,0.00090746,0.00008316,0.0008
 8112,-0.00035380,0.00083453,-0.00020550,0.00662050,0.01130798,0.003848
 75,0.02230707,0.04301557,0.06264390\\0.00000017,-0.00000013,-0.0000000
 7,-0.00000025,0.00000027,0.00000014,0.00000063,-0.00000080,0.00000045,
 -0.00000016,0.00000011,0.00000085,-0.00000018,0.00000028,-0.00000034,-
 0.00000007,0.00000006,-0.00000077,0.00000007,0.00000006,-0.00000066,-0
 .00000010,-0.00000008,0.00000039,-0.00000004,0.00000011,0.00000018,-0.
 00000029,0.00000030,0.00000042,-0.00000054,0.00000049,0.00000095,-0.00
 000060,0.00000070,0.00000064,-0.00000061,0.00000057,0.00000013,0.00000
 062,-0.00000084,0.00000080,0.00000038,-0.00000055,0.00000101,0.0000002
 4,-0.00000040,0.00000109,-0.00000011,0.00000011,0.00000069,0.00000020,
 -0.00000024,0.00000044,-0.00000011,0.00000015,-0.00000014,-0.00000040,
 0.00000043,0.00000010,0.00000027,-0.00000043,0.00000082,-0.00000060,0.
 00000062,0.00000094,-0.00000052,0.00000048,0.00000124,-0.00000084,0.00
 000093,0.00000067,-0.00000058,0.00000061,0.00000071,-0.00000028,0.0000
 0057,-0.00000053,-0.00000018,0.00000048,0.00000004,-0.00000012,0.00000
 036,-0.00000103,-0.00000033,-0.00000044,-0.00000132,-0.00000019,0.0000
 0024,-0.00000148,0.00000004,-0.00000016,0.00000111,-0.00000007,0.00000
 053,-0.00000160,-0.00000010,0.00000008,0.00000044,-0.00000066,0.000000
 77,0.00000012,0.00000045,-0.00000102,-0.00000059,0.00000017,-0.0000002
 8,0.00000060,0.00000050,-0.00000063,0.00000019,0.00000023,-0.00000028,
 0.00000027,0.00000078,-0.00000091,-0.00000037,0.00000052,-0.00000067,-
 0.00000017,0.00000114,-0.00000126,-0.00000083,0.00000093,-0.00000103,-
 0.00000068,0.00000039,-0.00000042,-0.00000042,0.00000075,-0.00000079,-
 0.00000090,0.00000049,-0.00000064,-0.00000083,0.00000020,-0.00000018,-
 0.00000029,0.00000052,-0.00000006,-0.00000089,0.00000084,-0.00000087,-
 0.00000118,0.00000043,-0.00000038,-0.00000126,0.00000026,0.00000021,-0
 .00000075,0.,0.00000010,-0.00000096,0.00000074,-0.00000097,0.00000069,
 0.00000041,-0.00000063,0.00000129,0.00000077,-0.00000102,0.00000100,-0
 .00000029,0.00000044,0.00000028,-0.00000048,0.00000052,0.00000003,-0.0
 0000073,0.00000095,-0.00000003,-0.00000076,0.00000093,-0.00000017,0.00
 000029,-0.00000026,0.00000043,-0.00000085,0.00000096,0.00000027,-0.000
 00084,0.00000103,-0.00000024,-0.00000073,0.00000094,-0.00000064,-0.000
 00036,0.00000049,-0.00000036,-0.00000045,0.00000052,0.00000004\\\@


 I WANT IT ALL - RICH, THIN, AND CHOCOLATE.
 Job cpu time:       7 days  2 hours 23 minutes 26.1 seconds.
 Elapsed time:       0 days  4 hours 44 minutes 11.9 seconds.
 File lengths (MBytes):  RWF=   7966 Int=      0 D2E=      0 Chk=    154 Scr=      1
 Normal termination of Gaussian 16 at Mon Apr  6 17:24:12 2020.
