 Entering Gaussian System, Link 0=g16
 Initial command:
 /nopt/nrel/apps/gaussian/g16B/g16/l1.exe "/dev/shm/Gau-28392.inp" -scrdir="/dev/shm/"
 Default is to use a total of  36 processors:
                               36 via shared-memory
                                1 via Linda
 Entering Link 1 = /nopt/nrel/apps/gaussian/g16B/g16/l1.exe PID=     28393.
  
 Copyright (c) 1988-2017, Gaussian, Inc.  All Rights Reserved.
  
...
 
 ******************************************
 Gaussian 16:  ES64L-G16RevB.01 20-Dec-2017
                 3-Sep-2019 
 ******************************************
 %RWF=/dev/shm/,5GB,/tmp/scratch/1303454/,-1
 %NoSave
 %Chk=/dev/shm/tieg5ipatse_ts_noeg_reacta.chk
 Default route: CacheSize=180224 MaxDisk=256GB
 ----------------------------------------------------------------------
 # m062x/Def2TZVP nosymm scf=xqc opt freq=noraman CPHF=Grid=Fine SCRF=(
 Solvent=1,2-EthaneDiol,Read)
 ----------------------------------------------------------------------
 1/4=180224,18=20,19=15,26=3,38=1,40=2/1,3;
 2/4=180224,9=110,12=2,15=1,17=6,18=5,40=1/2;
 3/4=180224,5=44,7=101,11=2,25=1,30=1,70=2203,71=1,72=30,74=-55/1,2,3;
 4/4=180224/1;
 5/4=180224,5=2,8=3,13=1,38=5,53=30/2,8;
 6/4=180224,7=2,8=2,9=2,10=2,28=1/1;
 7/4=180224,30=1/1,2,3,16;
 1/4=180224,18=20,19=15,26=3/3(2);
 2/4=180224,9=110,15=1/2;
 99/4=180224/99;
 2/4=180224,9=110,15=1/2;
 3/4=180224,5=44,7=101,11=2,25=1,30=1,70=2205,71=1,72=30,74=-55/1,2,3;
 4/4=180224,5=5,16=3,69=1/1;
 5/4=180224,5=2,8=3,13=1,38=5,53=30/2,8;
 7/4=180224,30=1/1,2,3,16;
 1/4=180224,18=20,19=15,26=3/3(-5);
 2/4=180224,9=110,15=1/2;
 6/4=180224,7=2,8=2,9=2,10=2,19=2,28=1/1;
 99/4=180224,9=1/99;
 ----------------------------------------
 rotated tieg5ipatse_ts_ircf_opt_noeg.log
 ----------------------------------------
 Symbolic Z-matrix:
 Charge =  0 Multiplicity = 1
 8                     1.81266   1.23364   0.01112 
 22                    0.332     0.08573   1.15213 
 8                     1.46046  -1.38292   0.86692 
 8                    -0.17159   1.74133   1.77382 
 6                     0.45573   2.91149   2.19972 
 6                    -0.5897    3.97775   2.4891 
 6                     3.21382   0.99716  -0.06885 
 6                     3.91557   1.89864   0.93146 
 8                     5.28901   1.57289   1.03695 
 6                     2.04668  -2.0056    1.9765 
 6                     2.66059  -0.90884   2.83428 
 8                     1.74654   0.19762   2.79614 
 1                     3.41966  -0.0511    0.15539 
 1                     3.55954   1.20882  -1.08311 
 1                     3.77127   2.94669   0.65258 
 1                     3.47456   1.74946   1.91796 
 1                     1.28288  -2.54232   2.55355 
 1                     2.81254  -2.72121   1.66456 
 1                     2.82933  -1.22155   3.8643 
 1                     3.60105  -0.55567   2.40977 
 1                     1.04293   2.72324   3.11024 
 1                     1.15119   3.27708   1.43586 
 1                    -1.30109   3.60268   3.23253 
 1                    -1.14372   4.20169   1.57709 
 8                     0.00641   5.19133   2.91187 
 1                     0.42044   5.04798   3.7692 
 1                     5.73217   1.82136   0.21906 
 1                     1.18007   0.24107   3.60896 
 8                     0.37563   1.24911  -2.11955 
 6                    -0.53981   0.51273  -1.7455 
 8                    -0.62496   0.00936  -0.56438 
 6                    -1.61972   0.64104  -3.99223 
 6                    -1.64446   0.15277  -2.68803 
 6                    -2.63642   0.31728  -4.87705 
 6                    -2.68932  -0.65921  -2.27167 
 6                    -3.68298  -0.49476  -4.46346 
 6                    -3.70842  -0.98238  -3.1593 
 1                    -2.71473  -1.04111  -1.26056 
 6                    -4.8108   -1.85391  -2.67162 
 1                    -4.47919  -0.75045  -5.1485 
 8                    -5.74796  -2.20369  -3.34334 
 8                    -4.66268  -2.22095  -1.39423 
 1                    -5.41427  -2.78311  -1.15226 
 8                    -0.87724  -0.81875   2.15921 
 6                    -1.76356  -0.46689   3.18364 
 6                    -1.10933  -0.60534   4.54221 
 8                    -0.05207   0.34064   4.73223 
 1                     1.39594   1.34699  -0.89114 
 1                    -0.64873  -1.58864   4.63596 
 1                    -1.85541  -0.48701   5.33082 
 1                    -0.42732   1.23002   4.72757 
 1                    -2.10569   0.56697   3.04931 
 1                    -2.63697  -1.12513   3.14947 
 1                    -2.61534   0.69685  -5.88939 
 1                    -0.79801   1.27332  -4.30026 
 

 GradGradGradGradGradGradGradGradGradGradGradGradGradGradGradGradGradGrad
 Berny optimization.
 Initialization pass.
                           ----------------------------
                           !    Initial Parameters    !
                           ! (Angstroms and Degrees)  !
 --------------------------                            --------------------------
 ! Name  Definition              Value          Derivative Info.                !
 --------------------------------------------------------------------------------
 ! R1    R(1,2)                  2.1936         estimate D2E/DX2                !
 ! R2    R(1,7)                  1.4232         estimate D2E/DX2                !
 ! R3    R(1,48)                 1.0003         estimate D2E/DX2                !
 ! R4    R(2,3)                  1.8739         estimate D2E/DX2                !
 ! R5    R(2,4)                  1.8388         estimate D2E/DX2                !
 ! R6    R(2,12)                 2.1717         estimate D2E/DX2                !
 ! R7    R(2,31)                 1.9667         estimate D2E/DX2                !
 ! R8    R(2,44)                 1.8151         estimate D2E/DX2                !
 ! R9    R(3,10)                 1.4009         estimate D2E/DX2                !
 ! R10   R(4,5)                  1.3943         estimate D2E/DX2                !
 ! R11   R(5,6)                  1.521          estimate D2E/DX2                !
 ! R12   R(5,21)                 1.0997         estimate D2E/DX2                !
 ! R13   R(5,22)                 1.0958         estimate D2E/DX2                !
 ! R14   R(6,23)                 1.0952         estimate D2E/DX2                !
 ! R15   R(6,24)                 1.0903         estimate D2E/DX2                !
 ! R16   R(6,25)                 1.4166         estimate D2E/DX2                !
 ! R17   R(7,8)                  1.5185         estimate D2E/DX2                !
 ! R18   R(7,13)                 1.0916         estimate D2E/DX2                !
 ! R19   R(7,14)                 1.0923         estimate D2E/DX2                !
 ! R20   R(8,9)                  1.4155         estimate D2E/DX2                !
 ! R21   R(8,15)                 1.0941         estimate D2E/DX2                !
 ! R22   R(8,16)                 1.0908         estimate D2E/DX2                !
 ! R23   R(9,27)                 0.9629         estimate D2E/DX2                !
 ! R24   R(10,11)                1.5217         estimate D2E/DX2                !
 ! R25   R(10,17)                1.0975         estimate D2E/DX2                !
 ! R26   R(10,18)                1.0936         estimate D2E/DX2                !
 ! R27   R(11,12)                1.4357         estimate D2E/DX2                !
 ! R28   R(11,19)                1.0896         estimate D2E/DX2                !
 ! R29   R(11,20)                1.0906         estimate D2E/DX2                !
 ! R30   R(12,28)                0.9917         estimate D2E/DX2                !
 ! R31   R(25,26)                0.9628         estimate D2E/DX2                !
 ! R32   R(29,30)                1.233          estimate D2E/DX2                !
 ! R33   R(30,31)                1.2867         estimate D2E/DX2                !
 ! R34   R(30,33)                1.4961         estimate D2E/DX2                !
 ! R35   R(32,33)                1.3928         estimate D2E/DX2                !
 ! R36   R(32,34)                1.3861         estimate D2E/DX2                !
 ! R37   R(32,55)                1.0816         estimate D2E/DX2                !
 ! R38   R(33,35)                1.3872         estimate D2E/DX2                !
 ! R39   R(34,36)                1.3877         estimate D2E/DX2                !
 ! R40   R(34,54)                1.0814         estimate D2E/DX2                !
 ! R41   R(35,37)                1.3896         estimate D2E/DX2                !
 ! R42   R(35,38)                1.0811         estimate D2E/DX2                !
 ! R43   R(36,37)                1.3926         estimate D2E/DX2                !
 ! R44   R(36,40)                1.081          estimate D2E/DX2                !
 ! R45   R(37,39)                1.4875         estimate D2E/DX2                !
 ! R46   R(39,41)                1.2049         estimate D2E/DX2                !
 ! R47   R(39,42)                1.3373         estimate D2E/DX2                !
 ! R48   R(42,43)                0.9693         estimate D2E/DX2                !
 ! R49   R(44,45)                1.3996         estimate D2E/DX2                !
 ! R50   R(45,46)                1.5142         estimate D2E/DX2                !
 ! R51   R(45,52)                1.0973         estimate D2E/DX2                !
 ! R52   R(45,53)                1.0942         estimate D2E/DX2                !
 ! R53   R(46,47)                1.4314         estimate D2E/DX2                !
 ! R54   R(46,49)                1.0899         estimate D2E/DX2                !
 ! R55   R(46,50)                1.092          estimate D2E/DX2                !
 ! R56   R(47,51)                0.9653         estimate D2E/DX2                !
 ! A1    A(2,1,7)              127.3586         estimate D2E/DX2                !
 ! A2    A(2,1,48)             104.3168         estimate D2E/DX2                !
 ! A3    A(7,1,48)             112.2273         estimate D2E/DX2                !
 ! A4    A(1,2,3)               85.6693         estimate D2E/DX2                !
 ! A5    A(1,2,4)               83.6592         estimate D2E/DX2                !
 ! A6    A(1,2,12)              85.8223         estimate D2E/DX2                !
 ! A7    A(1,2,31)              83.96           estimate D2E/DX2                !
 ! A8    A(3,2,4)              157.2237         estimate D2E/DX2                !
 ! A9    A(3,2,12)              76.3119         estimate D2E/DX2                !
 ! A10   A(3,2,31)              97.4545         estimate D2E/DX2                !
 ! A11   A(3,2,44)              95.4568         estimate D2E/DX2                !
 ! A12   A(4,2,12)              82.88           estimate D2E/DX2                !
 ! A13   A(4,2,31)             101.349          estimate D2E/DX2                !
 ! A14   A(4,2,44)              94.5092         estimate D2E/DX2                !
 ! A15   A(12,2,44)             92.2691         estimate D2E/DX2                !
 ! A16   A(31,2,44)             98.0903         estimate D2E/DX2                !
 ! A17   A(2,3,10)             118.6719         estimate D2E/DX2                !
 ! A18   A(2,4,5)              137.3639         estimate D2E/DX2                !
 ! A19   A(4,5,6)              109.7056         estimate D2E/DX2                !
 ! A20   A(4,5,21)             110.456          estimate D2E/DX2                !
 ! A21   A(4,5,22)             110.6461         estimate D2E/DX2                !
 ! A22   A(6,5,21)             109.2377         estimate D2E/DX2                !
 ! A23   A(6,5,22)             109.5693         estimate D2E/DX2                !
 ! A24   A(21,5,22)            107.1806         estimate D2E/DX2                !
 ! A25   A(5,6,23)             109.6042         estimate D2E/DX2                !
 ! A26   A(5,6,24)             109.5163         estimate D2E/DX2                !
 ! A27   A(5,6,25)             111.5976         estimate D2E/DX2                !
 ! A28   A(23,6,24)            107.9434         estimate D2E/DX2                !
 ! A29   A(23,6,25)            111.3541         estimate D2E/DX2                !
 ! A30   A(24,6,25)            106.7075         estimate D2E/DX2                !
 ! A31   A(1,7,8)              108.6218         estimate D2E/DX2                !
 ! A32   A(1,7,13)             109.4917         estimate D2E/DX2                !
 ! A33   A(1,7,14)             109.3653         estimate D2E/DX2                !
 ! A34   A(8,7,13)             110.3432         estimate D2E/DX2                !
 ! A35   A(8,7,14)             110.5118         estimate D2E/DX2                !
 ! A36   A(13,7,14)            108.492          estimate D2E/DX2                !
 ! A37   A(7,8,9)              111.1549         estimate D2E/DX2                !
 ! A38   A(7,8,15)             109.8662         estimate D2E/DX2                !
 ! A39   A(7,8,16)             109.1311         estimate D2E/DX2                !
 ! A40   A(9,8,15)             111.5564         estimate D2E/DX2                !
 ! A41   A(9,8,16)             107.062          estimate D2E/DX2                !
 ! A42   A(15,8,16)            107.9513         estimate D2E/DX2                !
 ! A43   A(8,9,27)             108.8994         estimate D2E/DX2                !
 ! A44   A(3,10,11)            107.1536         estimate D2E/DX2                !
 ! A45   A(3,10,17)            110.0349         estimate D2E/DX2                !
 ! A46   A(3,10,18)            110.9765         estimate D2E/DX2                !
 ! A47   A(11,10,17)           109.6858         estimate D2E/DX2                !
 ! A48   A(11,10,18)           110.4807         estimate D2E/DX2                !
 ! A49   A(17,10,18)           108.5035         estimate D2E/DX2                !
 ! A50   A(10,11,12)           106.4777         estimate D2E/DX2                !
 ! A51   A(10,11,19)           112.8619         estimate D2E/DX2                !
 ! A52   A(10,11,20)           111.2155         estimate D2E/DX2                !
 ! A53   A(12,11,19)           110.1753         estimate D2E/DX2                !
 ! A54   A(12,11,20)           106.8041         estimate D2E/DX2                !
 ! A55   A(19,11,20)           109.1089         estimate D2E/DX2                !
 ! A56   A(2,12,11)            113.2719         estimate D2E/DX2                !
 ! A57   A(2,12,28)            104.517          estimate D2E/DX2                !
 ! A58   A(11,12,28)           112.0654         estimate D2E/DX2                !
 ! A59   A(6,25,26)            108.6111         estimate D2E/DX2                !
 ! A60   A(29,30,31)           124.1421         estimate D2E/DX2                !
 ! A61   A(29,30,33)           120.0526         estimate D2E/DX2                !
 ! A62   A(31,30,33)           115.8052         estimate D2E/DX2                !
 ! A63   A(2,31,30)            138.9164         estimate D2E/DX2                !
 ! A64   A(33,32,34)           120.1857         estimate D2E/DX2                !
 ! A65   A(33,32,55)           119.0186         estimate D2E/DX2                !
 ! A66   A(34,32,55)           120.7957         estimate D2E/DX2                !
 ! A67   A(30,33,32)           119.5023         estimate D2E/DX2                !
 ! A68   A(30,33,35)           120.5234         estimate D2E/DX2                !
 ! A69   A(32,33,35)           119.9742         estimate D2E/DX2                !
 ! A70   A(32,34,36)           119.973          estimate D2E/DX2                !
 ! A71   A(32,34,54)           120.086          estimate D2E/DX2                !
 ! A72   A(36,34,54)           119.941          estimate D2E/DX2                !
 ! A73   A(33,35,37)           119.7886         estimate D2E/DX2                !
 ! A74   A(33,35,38)           120.3419         estimate D2E/DX2                !
 ! A75   A(37,35,38)           119.8695         estimate D2E/DX2                !
 ! A76   A(34,36,37)           119.8534         estimate D2E/DX2                !
 ! A77   A(34,36,40)           120.3325         estimate D2E/DX2                !
 ! A78   A(37,36,40)           119.8141         estimate D2E/DX2                !
 ! A79   A(35,37,36)           120.225          estimate D2E/DX2                !
 ! A80   A(35,37,39)           118.0573         estimate D2E/DX2                !
 ! A81   A(36,37,39)           121.7176         estimate D2E/DX2                !
 ! A82   A(37,39,41)           124.3136         estimate D2E/DX2                !
 ! A83   A(37,39,42)           113.0721         estimate D2E/DX2                !
 ! A84   A(41,39,42)           122.6143         estimate D2E/DX2                !
 ! A85   A(39,42,43)           108.1652         estimate D2E/DX2                !
 ! A86   A(2,44,45)            134.6473         estimate D2E/DX2                !
 ! A87   A(44,45,46)           111.107          estimate D2E/DX2                !
 ! A88   A(44,45,52)           110.1649         estimate D2E/DX2                !
 ! A89   A(44,45,53)           109.3533         estimate D2E/DX2                !
 ! A90   A(46,45,52)           109.3116         estimate D2E/DX2                !
 ! A91   A(46,45,53)           108.5355         estimate D2E/DX2                !
 ! A92   A(52,45,53)           108.3068         estimate D2E/DX2                !
 ! A93   A(45,46,47)           112.1986         estimate D2E/DX2                !
 ! A94   A(45,46,49)           110.0152         estimate D2E/DX2                !
 ! A95   A(45,46,50)           110.0489         estimate D2E/DX2                !
 ! A96   A(47,46,49)           105.8242         estimate D2E/DX2                !
 ! A97   A(47,46,50)           109.7034         estimate D2E/DX2                !
 ! A98   A(49,46,50)           108.9278         estimate D2E/DX2                !
 ! A99   A(46,47,51)           108.7316         estimate D2E/DX2                !
 ! A100  L(1,2,44,3,-1)        181.1261         estimate D2E/DX2                !
 ! A101  L(12,2,31,1,-1)       169.7823         estimate D2E/DX2                !
 ! A102  L(1,2,44,3,-2)        177.7592         estimate D2E/DX2                !
 ! A103  L(12,2,31,1,-2)       174.542          estimate D2E/DX2                !
 ! D1    D(7,1,2,3)            -30.0871         estimate D2E/DX2                !
 ! D2    D(7,1,2,4)            129.7589         estimate D2E/DX2                !
 ! D3    D(7,1,2,12)            46.4737         estimate D2E/DX2                !
 ! D4    D(7,1,2,31)          -128.0683         estimate D2E/DX2                !
 ! D5    D(48,1,2,3)           103.2271         estimate D2E/DX2                !
 ! D6    D(48,1,2,4)           -96.9269         estimate D2E/DX2                !
 ! D7    D(48,1,2,12)          179.7878         estimate D2E/DX2                !
 ! D8    D(48,1,2,31)            5.2458         estimate D2E/DX2                !
 ! D9    D(2,1,7,8)            -96.5701         estimate D2E/DX2                !
 ! D10   D(2,1,7,13)            23.9885         estimate D2E/DX2                !
 ! D11   D(2,1,7,14)           142.7417         estimate D2E/DX2                !
 ! D12   D(48,1,7,8)           133.0354         estimate D2E/DX2                !
 ! D13   D(48,1,7,13)         -106.406          estimate D2E/DX2                !
 ! D14   D(48,1,7,14)           12.3472         estimate D2E/DX2                !
 ! D15   D(7,1,44,45)          120.0847         estimate D2E/DX2                !
 ! D16   D(48,1,44,45)        -105.5474         estimate D2E/DX2                !
 ! D17   D(1,2,3,10)           117.0859         estimate D2E/DX2                !
 ! D18   D(4,2,3,10)            54.8907         estimate D2E/DX2                !
 ! D19   D(12,2,3,10)           30.3392         estimate D2E/DX2                !
 ! D20   D(31,2,3,10)         -159.5946         estimate D2E/DX2                !
 ! D21   D(44,2,3,10)          -60.6733         estimate D2E/DX2                !
 ! D22   D(1,2,4,5)            -41.691          estimate D2E/DX2                !
 ! D23   D(3,2,4,5)             20.863          estimate D2E/DX2                !
 ! D24   D(12,2,4,5)            44.8699         estimate D2E/DX2                !
 ! D25   D(31,2,4,5)          -124.2049         estimate D2E/DX2                !
 ! D26   D(44,2,4,5)           136.599          estimate D2E/DX2                !
 ! D27   D(1,2,12,11)          -91.0105         estimate D2E/DX2                !
 ! D28   D(1,2,12,28)          146.7279         estimate D2E/DX2                !
 ! D29   D(3,2,12,11)           -4.4582         estimate D2E/DX2                !
 ! D30   D(3,2,12,28)         -126.7198         estimate D2E/DX2                !
 ! D31   D(4,2,12,11)         -175.1289         estimate D2E/DX2                !
 ! D32   D(4,2,12,28)           62.6095         estimate D2E/DX2                !
 ! D33   D(44,2,12,11)          90.6076         estimate D2E/DX2                !
 ! D34   D(44,2,12,28)         -31.654          estimate D2E/DX2                !
 ! D35   D(11,12,31,30)        -93.3115         estimate D2E/DX2                !
 ! D36   D(28,12,31,30)        142.31           estimate D2E/DX2                !
 ! D37   D(1,2,31,30)           -7.7609         estimate D2E/DX2                !
 ! D38   D(3,2,31,30)          -92.5728         estimate D2E/DX2                !
 ! D39   D(4,2,31,30)           74.5087         estimate D2E/DX2                !
 ! D40   D(44,2,31,30)         170.7966         estimate D2E/DX2                !
 ! D41   D(3,2,44,45)          151.5937         estimate D2E/DX2                !
 ! D42   D(4,2,44,45)           -7.8994         estimate D2E/DX2                !
 ! D43   D(12,2,44,45)          75.1332         estimate D2E/DX2                !
 ! D44   D(31,2,44,45)        -110.0563         estimate D2E/DX2                !
 ! D45   D(2,3,10,11)          -49.0711         estimate D2E/DX2                !
 ! D46   D(2,3,10,17)           70.1257         estimate D2E/DX2                !
 ! D47   D(2,3,10,18)         -169.769          estimate D2E/DX2                !
 ! D48   D(2,4,5,6)            175.4607         estimate D2E/DX2                !
 ! D49   D(2,4,5,21)           -64.0659         estimate D2E/DX2                !
 ! D50   D(2,4,5,22)            54.453          estimate D2E/DX2                !
 ! D51   D(4,5,6,23)            56.8142         estimate D2E/DX2                !
 ! D52   D(4,5,6,24)           -61.4286         estimate D2E/DX2                !
 ! D53   D(4,5,6,25)          -179.3562         estimate D2E/DX2                !
 ! D54   D(21,5,6,23)          -64.3957         estimate D2E/DX2                !
 ! D55   D(21,5,6,24)          177.3616         estimate D2E/DX2                !
 ! D56   D(21,5,6,25)           59.4339         estimate D2E/DX2                !
 ! D57   D(22,5,6,23)          178.4694         estimate D2E/DX2                !
 ! D58   D(22,5,6,24)           60.2267         estimate D2E/DX2                !
 ! D59   D(22,5,6,25)          -57.701          estimate D2E/DX2                !
 ! D60   D(5,6,25,26)          -66.7385         estimate D2E/DX2                !
 ! D61   D(23,6,25,26)          56.0973         estimate D2E/DX2                !
 ! D62   D(24,6,25,26)         173.6601         estimate D2E/DX2                !
 ! D63   D(1,7,8,9)            171.4975         estimate D2E/DX2                !
 ! D64   D(1,7,8,15)           -64.5352         estimate D2E/DX2                !
 ! D65   D(1,7,8,16)            53.6425         estimate D2E/DX2                !
 ! D66   D(13,7,8,9)            51.467          estimate D2E/DX2                !
 ! D67   D(13,7,8,15)          175.4342         estimate D2E/DX2                !
 ! D68   D(13,7,8,16)          -66.388          estimate D2E/DX2                !
 ! D69   D(14,7,8,9)           -68.5251         estimate D2E/DX2                !
 ! D70   D(14,7,8,15)           55.4422         estimate D2E/DX2                !
 ! D71   D(14,7,8,16)          173.6199         estimate D2E/DX2                !
 ! D72   D(7,8,9,27)            69.3909         estimate D2E/DX2                !
 ! D73   D(15,8,9,27)          -53.6102         estimate D2E/DX2                !
 ! D74   D(16,8,9,27)         -171.5076         estimate D2E/DX2                !
 ! D75   D(3,10,11,12)          38.8415         estimate D2E/DX2                !
 ! D76   D(3,10,11,19)         159.8418         estimate D2E/DX2                !
 ! D77   D(3,10,11,20)         -77.149          estimate D2E/DX2                !
 ! D78   D(17,10,11,12)        -80.58           estimate D2E/DX2                !
 ! D79   D(17,10,11,19)         40.4203         estimate D2E/DX2                !
 ! D80   D(17,10,11,20)        163.4295         estimate D2E/DX2                !
 ! D81   D(18,10,11,12)        159.8535         estimate D2E/DX2                !
 ! D82   D(18,10,11,19)        -79.1463         estimate D2E/DX2                !
 ! D83   D(18,10,11,20)         43.863          estimate D2E/DX2                !
 ! D84   D(10,11,12,2)         -17.8053         estimate D2E/DX2                !
 ! D85   D(10,11,12,28)        100.1492         estimate D2E/DX2                !
 ! D86   D(19,11,12,2)        -140.5108         estimate D2E/DX2                !
 ! D87   D(19,11,12,28)        -22.5563         estimate D2E/DX2                !
 ! D88   D(20,11,12,2)         101.1113         estimate D2E/DX2                !
 ! D89   D(20,11,12,28)       -140.9342         estimate D2E/DX2                !
 ! D90   D(29,30,31,2)           3.7626         estimate D2E/DX2                !
 ! D91   D(33,30,31,2)        -176.2437         estimate D2E/DX2                !
 ! D92   D(29,30,33,32)          0.8459         estimate D2E/DX2                !
 ! D93   D(29,30,33,35)       -179.0613         estimate D2E/DX2                !
 ! D94   D(31,30,33,32)       -179.1481         estimate D2E/DX2                !
 ! D95   D(31,30,33,35)          0.9448         estimate D2E/DX2                !
 ! D96   D(34,32,33,30)       -179.9511         estimate D2E/DX2                !
 ! D97   D(34,32,33,35)         -0.0434         estimate D2E/DX2                !
 ! D98   D(55,32,33,30)          0.0561         estimate D2E/DX2                !
 ! D99   D(55,32,33,35)        179.9637         estimate D2E/DX2                !
 ! D100  D(33,32,34,36)          0.044          estimate D2E/DX2                !
 ! D101  D(33,32,34,54)       -179.9686         estimate D2E/DX2                !
 ! D102  D(55,32,34,36)       -179.9633         estimate D2E/DX2                !
 ! D103  D(55,32,34,54)          0.0241         estimate D2E/DX2                !
 ! D104  D(30,33,35,37)        179.9077         estimate D2E/DX2                !
 ! D105  D(30,33,35,38)         -0.0637         estimate D2E/DX2                !
 ! D106  D(32,33,35,37)          0.001          estimate D2E/DX2                !
 ! D107  D(32,33,35,38)       -179.9704         estimate D2E/DX2                !
 ! D108  D(32,34,36,37)         -0.0023         estimate D2E/DX2                !
 ! D109  D(32,34,36,40)        179.9649         estimate D2E/DX2                !
 ! D110  D(54,34,36,37)       -179.9898         estimate D2E/DX2                !
 ! D111  D(54,34,36,40)         -0.0226         estimate D2E/DX2                !
 ! D112  D(33,35,37,36)          0.0407         estimate D2E/DX2                !
 ! D113  D(33,35,37,39)       -179.9053         estimate D2E/DX2                !
 ! D114  D(38,35,37,36)       -179.9877         estimate D2E/DX2                !
 ! D115  D(38,35,37,39)          0.0663         estimate D2E/DX2                !
 ! D116  D(34,36,37,35)         -0.0401         estimate D2E/DX2                !
 ! D117  D(34,36,37,39)        179.9038         estimate D2E/DX2                !
 ! D118  D(40,36,37,35)        179.9925         estimate D2E/DX2                !
 ! D119  D(40,36,37,39)         -0.0635         estimate D2E/DX2                !
 ! D120  D(35,37,39,41)       -179.9774         estimate D2E/DX2                !
 ! D121  D(35,37,39,42)          0.0            estimate D2E/DX2                !
 ! D122  D(36,37,39,41)          0.0775         estimate D2E/DX2                !
 ! D123  D(36,37,39,42)       -179.9451         estimate D2E/DX2                !
 ! D124  D(37,39,42,43)       -179.9701         estimate D2E/DX2                !
 ! D125  D(41,39,42,43)          0.0077         estimate D2E/DX2                !
 ! D126  D(2,44,45,46)         -90.2117         estimate D2E/DX2                !
 ! D127  D(2,44,45,52)          31.0797         estimate D2E/DX2                !
 ! D128  D(2,44,45,53)         150.0034         estimate D2E/DX2                !
 ! D129  D(44,45,46,47)         66.7837         estimate D2E/DX2                !
 ! D130  D(44,45,46,49)        -50.7385         estimate D2E/DX2                !
 ! D131  D(44,45,46,50)       -170.7672         estimate D2E/DX2                !
 ! D132  D(52,45,46,47)        -55.0066         estimate D2E/DX2                !
 ! D133  D(52,45,46,49)       -172.5288         estimate D2E/DX2                !
 ! D134  D(52,45,46,50)         67.4425         estimate D2E/DX2                !
 ! D135  D(53,45,46,47)       -172.9458         estimate D2E/DX2                !
 ! D136  D(53,45,46,49)         69.532          estimate D2E/DX2                !
 ! D137  D(53,45,46,50)        -50.4967         estimate D2E/DX2                !
 ! D138  D(45,46,47,51)         64.4735         estimate D2E/DX2                !
 ! D139  D(49,46,47,51)       -175.534          estimate D2E/DX2                !
 ! D140  D(50,46,47,51)        -58.1712         estimate D2E/DX2                !
 --------------------------------------------------------------------------------
 Trust Radius=3.00D-01 FncErr=1.00D-07 GrdErr=1.00D-06 EigMax=2.50D+02 EigMin=1.00D-04
 Number of steps in this run=    309 maximum allowed number of steps=    330.
 GradGradGradGradGradGradGradGradGradGradGradGradGradGradGradGradGradGrad

 Symmetry turned off by external request.
 Stoichiometry    C16H26O12Ti
 Framework group  C1[X(C16H26O12Ti)]
 Deg. of freedom   159
 Full point group                 C1      NOp   1
                          Input orientation:                          
 ---------------------------------------------------------------------
 Center     Atomic      Atomic             Coordinates (Angstroms)
 Number     Number       Type             X           Y           Z
 ---------------------------------------------------------------------
      1          8           0        1.812658    1.233635    0.011120
      2         22           0        0.332003    0.085728    1.152130
      3          8           0        1.460459   -1.382918    0.866919
      4          8           0       -0.171592    1.741329    1.773815
      5          6           0        0.455726    2.911486    2.199723
      6          6           0       -0.589704    3.977748    2.489102
      7          6           0        3.213815    0.997160   -0.068854
      8          6           0        3.915565    1.898637    0.931463
      9          8           0        5.289005    1.572894    1.036950
     10          6           0        2.046684   -2.005604    1.976496
     11          6           0        2.660590   -0.908844    2.834283
     12          8           0        1.746538    0.197621    2.796144
     13          1           0        3.419655   -0.051098    0.155390
     14          1           0        3.559535    1.208822   -1.083114
     15          1           0        3.771266    2.946693    0.652577
     16          1           0        3.474562    1.749455    1.917961
     17          1           0        1.282876   -2.542322    2.553548
     18          1           0        2.812540   -2.721207    1.664558
     19          1           0        2.829328   -1.221552    3.864302
     20          1           0        3.601045   -0.555672    2.409770
     21          1           0        1.042934    2.723236    3.110242
     22          1           0        1.151194    3.277082    1.435856
     23          1           0       -1.301094    3.602680    3.232529
     24          1           0       -1.143724    4.201691    1.577088
     25          8           0        0.006410    5.191331    2.911874
     26          1           0        0.420440    5.047978    3.769204
     27          1           0        5.732174    1.821364    0.219059
     28          1           0        1.180068    0.241066    3.608956
     29          8           0        0.375629    1.249113   -2.119549
     30          6           0       -0.539812    0.512731   -1.745500
     31          8           0       -0.624957    0.009356   -0.564378
     32          6           0       -1.619721    0.641040   -3.992228
     33          6           0       -1.644459    0.152765   -2.688029
     34          6           0       -2.636421    0.317279   -4.877045
     35          6           0       -2.689317   -0.659214   -2.271674
     36          6           0       -3.682984   -0.494760   -4.463464
     37          6           0       -3.708419   -0.982379   -3.159301
     38          1           0       -2.714726   -1.041108   -1.260560
     39          6           0       -4.810798   -1.853913   -2.671622
     40          1           0       -4.479190   -0.750452   -5.148496
     41          8           0       -5.747961   -2.203688   -3.343344
     42          8           0       -4.662681   -2.220948   -1.394230
     43          1           0       -5.414267   -2.783106   -1.152263
     44          8           0       -0.877241   -0.818748    2.159211
     45          6           0       -1.763564   -0.466893    3.183641
     46          6           0       -1.109330   -0.605342    4.542208
     47          8           0       -0.052070    0.340642    4.732233
     48          1           0        1.395942    1.346993   -0.891142
     49          1           0       -0.648728   -1.588638    4.635964
     50          1           0       -1.855410   -0.487008    5.330821
     51          1           0       -0.427320    1.230019    4.727575
     52          1           0       -2.105692    0.566973    3.049309
     53          1           0       -2.636966   -1.125129    3.149465
     54          1           0       -2.615336    0.696846   -5.889392
     55          1           0       -0.798005    1.273320   -4.300261
 ---------------------------------------------------------------------
 Rotational constants (GHZ):           0.2005329           0.0857063           0.0783924
 Standard basis: def2TZVP (5D, 7F)
  1069 basis functions,  1738 primitive gaussians,  1216 cartesian basis functions
   120 alpha electrons      120 beta electrons
       nuclear repulsion energy      3604.8159848794 Hartrees.
 NAtoms=   55 NActive=   55 NUniq=   55 SFac= 1.00D+00 NAtFMM=   60 NAOKFM=F Big=F
 Integral buffers will be    131072 words long.
 Raffenetti 2 integral format.
 Two-electron integral symmetry is turned off.
 Using the following non-standard input for PCM:
 PDENS=7.0
 --- end of non-standard input.
 ------------------------------------------------------------------------------
 Polarizable Continuum Model (PCM)
 =================================
 Model                : PCM.
 Atomic radii         : UFF (Universal Force Field).
 Polarization charges : Total charges.
 Charge compensation  : None.
 Solution method      : On-the-fly selection.
 Cavity type          : Scaled VdW (van der Waals Surface) (Alpha=1.100).
 Cavity algorithm     : GePol (No added spheres)
                        Default sphere list used, NSphG=   55.
                        Lebedev-Laikov grids with approx.  7.0 points / Ang**2.
                        Smoothing algorithm: York/Karplus (Gamma=1.0000).
                        Polarization charges: spherical gaussians, with
                                              point-specific exponents (IZeta= 3).
                        Self-potential: point-specific (ISelfS= 7).
                        Self-field    : sphere-specific E.n sum rule (ISelfD= 2).
 1st derivatives      : Analytical E(r).r(x)/FMM algorithm (CHGder, D1EAlg=3).
                        Cavity 1st derivative terms included.
 Solvent              : 1,2-EthaneDiol, Eps=  40.245000 Eps(inf)=   2.050051
 ------------------------------------------------------------------------------
 One-electron integrals computed using PRISM.
   1 Symmetry operations used in ECPInt.
 ECPInt:  NShTT=   91378 NPrTT=  283881 LenC2=   71397 LenP2D=  148485.
 LDataN:  DoStor=T MaxTD1= 6 Len=  172
 NBasis=  1069 RedAO= T EigKep=  6.83D-06  NBF=  1069
 NBsUse=  1069 1.00D-06 EigRej= -1.00D+00 NBFU=  1069
 ExpMin= 3.27D-02 ExpMax= 2.12D+05 ExpMxC= 2.04D+03 IAcc=3 IRadAn=         5 AccDes= 0.00D+00
 Harris functional with IExCor= 1009 and IRadAn=       5 diagonalized for initial guess.
 HarFok:  IExCor= 1009 AccDes= 0.00D+00 IRadAn=         5 IDoV= 1 UseB2=F ITyADJ=14
 ICtDFT=  3500011 ScaDFX=  1.000000  1.000000  1.000000  1.000000
 FoFCou: FMM=F IPFlag=           0 FMFlag=      100000 FMFlg1=           0
         NFxFlg=           0 DoJE=T BraDBF=F KetDBF=T FulRan=T
         wScrn=  0.000000 ICntrl=       500 IOpCl=  0 I1Cent=   200000004 NGrid=           0
         NMat0=    1 NMatS0=      1 NMatT0=    0 NMatD0=    1 NMtDS0=    0 NMtDT0=    0
 Symmetry not used in FoFCou.
 Requested convergence on RMS density matrix=1.00D-08 within  32 cycles.
 Requested convergence on MAX density matrix=1.00D-06.
 Requested convergence on             energy=1.00D-06.
 No special actions if energy rises.
 Inv3:  Mode=1 IEnd=   101163747.
 Iteration    1 A*A^-1 deviation from unit magnitude is 3.33D-15 for   4602.
 Iteration    1 A*A^-1 deviation from orthogonality  is 2.66D-15 for   4940   1035.
 Iteration    1 A^-1*A deviation from unit magnitude is 3.55D-15 for   4602.
 Iteration    1 A^-1*A deviation from orthogonality  is 2.66D-15 for   2977    315.
 Error on total polarization charges =  0.01675
 SCF Done:  E(RM062X) =  -2377.76392799     A.U. after   17 cycles
            NFock= 17  Conv=0.40D-08     -V/T= 2.0033
 QCSCF skips out because SCF is already converged.

 **********************************************************************

            Population analysis using the SCF Density.

 **********************************************************************

 Alpha  occ. eigenvalues -- -180.49907 -20.49821 -19.68226 -19.66285 -19.65836
...
 Alpha virt. eigenvalues --   44.19799  44.29909  44.32040  44.33474
          Condensed to atoms (all electrons):
 Mulliken charges:
               1
     1  O   -0.495328
     2  Ti   1.179602
     3  O   -0.534741
     4  O   -0.546569
     5  C   -0.177643
     6  C   -0.034870
     7  C   -0.129665
     8  C   -0.114262
     9  O   -0.521520
    10  C   -0.049624
    11  C   -0.171433
    12  O   -0.467583
    13  H    0.166897
    14  H    0.169901
    15  H    0.152840
    16  H    0.174475
    17  H    0.144842
    18  H    0.145804
    19  H    0.177778
    20  H    0.171514
    21  H    0.148074
    22  H    0.139901
    23  H    0.124693
    24  H    0.140322
    25  O   -0.522762
    26  H    0.340631
    27  H    0.344230
    28  H    0.432485
    29  O   -0.522190
    30  C    0.487870
    31  O   -0.564744
    32  C   -0.189410
    33  C    0.083003
    34  C   -0.135477
    35  C   -0.201859
    36  C   -0.175657
    37  C    0.039043
    38  H    0.217188
    39  C    0.353668
    40  H    0.178402
    41  O   -0.379135
    42  O   -0.420033
    43  H    0.366371
    44  O   -0.535650
    45  C   -0.107936
    46  C   -0.104543
    47  O   -0.534336
    48  H    0.416022
    49  H    0.164276
    50  H    0.160472
    51  H    0.366934
    52  H    0.150112
    53  H    0.145955
    54  H    0.172857
    55  H    0.180810
 Sum of Mulliken charges =  -0.00000
 Mulliken charges with hydrogens summed into heavy atoms:
               1
     1  O   -0.079307
     2  Ti   1.179602
     3  O   -0.534741
     4  O   -0.546569
     5  C    0.110332
     6  C    0.230145
     7  C    0.207133
     8  C    0.213053
     9  O   -0.177290
    10  C    0.241022
    11  C    0.177859
    12  O   -0.035098
    25  O   -0.182130
    29  O   -0.522190
    30  C    0.487870
    31  O   -0.564744
    32  C   -0.008601
    33  C    0.083003
    34  C    0.037380
    35  C    0.015329
    36  C    0.002745
    37  C    0.039043
    39  C    0.353668
    41  O   -0.379135
    42  O   -0.053662
    44  O   -0.535650
    45  C    0.188131
    46  C    0.220205
    47  O   -0.167402
 Electronic spatial extent (au):  <R**2>=          14928.2467
 Charge=             -0.0000 electrons
 Dipole moment (field-independent basis, Debye):
    X=              1.8428    Y=             -0.0957    Z=              6.5681  Tot=              6.8224
 Quadrupole moment (field-independent basis, Debye-Ang):
   XX=           -182.2388   YY=           -194.0303   ZZ=           -144.1980
   XY=              1.1722   XZ=            -20.4576   YZ=             -9.8117
 Traceless Quadrupole moment (field-independent basis, Debye-Ang):
   XX=             -8.7498   YY=            -20.5413   ZZ=             29.2911
   XY=              1.1722   XZ=            -20.4576   YZ=             -9.8117
 Octapole moment (field-independent basis, Debye-Ang**2):
  XXX=            288.0035  YYY=           -288.0288  ZZZ=            -30.8748  XYY=             87.4685
  XXY=            -30.4492  XXZ=             22.0062  XZZ=             56.0449  YZZ=              9.7901
  YYZ=            -19.1385  XYZ=             26.5475
 Hexadecapole moment (field-independent basis, Debye-Ang**3):
 XXXX=          -8135.5248 YYYY=          -4228.8852 ZZZZ=          -6959.5195 XXXY=           -944.0829
 XXXZ=          -2924.5850 YYYX=           -772.7012 YYYZ=           -918.1608 ZZZX=          -1972.8794
 ZZZY=           -694.4656 XXYY=          -1741.6027 XXZZ=          -2855.8416 YYZZ=          -1838.2783
 XXYZ=           -647.2451 YYXZ=           -700.2247 ZZXY=           -516.4535
 N-N= 3.604815984879D+03 E-N=-1.280580194813D+04  KE= 2.369884199228D+03
   1 Symmetry operations used in ECPInt.
 ECPInt:  NShTT=   91378 NPrTT=  283881 LenC2=   71397 LenP2D=  148485.
 LDataN:  DoStor=T MaxTD1= 7 Len=  274
 D1PCM: PCM CHGder 1st derivatives, ID1Alg=3 FixD1E=F DoIter=F DoCFld=F I1PDM=0.
 Calling FoFJK, ICntrl=      2127 FMM=F ISym2X=0 I1Cent= 0 IOpClX= 0 NMat=1 NMatS=1 NMatT=0.
 -------------------------------------------------------------------
 Center     Atomic                   Forces (Hartrees/Bohr)
 Number     Number              X              Y              Z
 -------------------------------------------------------------------
      1        8           0.000006435   -0.000006015    0.000042332
      2       22           0.000073673    0.000072141   -0.000073985
      3        8          -0.000010545   -0.000011164   -0.000016330
      4        8          -0.000019461   -0.000030665   -0.000016540
      5        6           0.000021030    0.000025146    0.000023280
      6        6           0.000000246   -0.000000241    0.000001620
      7        6           0.000008175    0.000001454    0.000002936
      8        6          -0.000001299    0.000002359   -0.000008132
      9        8          -0.000001386    0.000001468    0.000002786
     10        6           0.000017521    0.000005593    0.000013721
     11        6          -0.000010990    0.000006820   -0.000002838
     12        8          -0.000003102   -0.000002082   -0.000011099
     13        1           0.000002516    0.000004748   -0.000000220
     14        1          -0.000001556   -0.000003764   -0.000000655
     15        1          -0.000000818    0.000001126    0.000002255
     16        1          -0.000001843   -0.000000911    0.000004385
     17        1          -0.000002765   -0.000000324    0.000003947
     18        1          -0.000001992   -0.000000601   -0.000001827
     19        1           0.000005245   -0.000001031    0.000000128
     20        1           0.000000689   -0.000002436    0.000002391
     21        1          -0.000005506   -0.000002593   -0.000001519
     22        1          -0.000008161   -0.000004317   -0.000000690
     23        1          -0.000001804   -0.000003220    0.000003728
     24        1          -0.000000339    0.000001270    0.000000830
     25        8          -0.000005333   -0.000007973   -0.000000450
     26        1          -0.000001748    0.000000404    0.000001666
     27        1          -0.000001564    0.000003001    0.000001134
     28        1           0.000006204   -0.000002554    0.000002507
     29        8           0.000124417    0.000047513    0.000079910
     30        6          -0.000061843    0.000082504   -0.000305460
     31        8           0.000006026   -0.000045967    0.000143157
     32        6           0.000546184   -0.000082658    0.001195184
     33        6           0.001001947    0.000855320   -0.000642950
     34        6          -0.001181560   -0.000823818    0.000183762
     35        6           0.002429664    0.001727262   -0.000571944
     36        6          -0.001739600   -0.001358855    0.000772657
     37        6           0.003171717   -0.000626703    0.007450232
     38        1           0.001594749    0.001347188   -0.000962180
     39        6          -0.002264795    0.000775226   -0.006533000
     40        1          -0.001134843   -0.000813772    0.000261739
     41        8          -0.000872857   -0.000255110   -0.000705694
     42        8          -0.001471703   -0.000879133    0.000015881
     43        1          -0.000001890    0.000121044   -0.000351682
     44        8          -0.000066340   -0.000052722    0.000011489
     45        6           0.000014579    0.000013143    0.000009646
     46        6           0.000008436    0.000009398    0.000016144
     47        8          -0.000026291   -0.000014024   -0.000017796
     48        1          -0.000031049    0.000008342   -0.000040806
     49        1           0.000001284   -0.000003505   -0.000001017
     50        1           0.000001605   -0.000001804    0.000001388
     51        1           0.000004397    0.000003263    0.000006106
     52        1           0.000002488   -0.000000518    0.000001785
     53        1          -0.000009808   -0.000007545    0.000003420
     54        1          -0.000102309   -0.000076633    0.000026605
     55        1          -0.000004126    0.000006925   -0.000021937
 -------------------------------------------------------------------
 Cartesian Forces:  Max     0.007450232 RMS     0.000943726

 GradGradGradGradGradGradGradGradGradGradGradGradGradGradGradGradGradGrad
 Berny optimization.
 FormGI is forming the generalized inverse of G from B-inverse, IUseBI=4.
 Internal  Forces:  Max     0.015316200 RMS     0.001296031
 Search for a local minimum.
 Step number   1 out of a maximum of  309
 All quantities printed in internal units (Hartrees-Bohrs-Radians)
 Mixed Optimization -- RFO/linear search
 Second derivative matrix not updated -- first step.
 ITU=  0
     Eigenvalues ---    0.00230   0.00488   0.00522   0.00578   0.00729
     Eigenvalues ---    0.00818   0.00931   0.01277   0.01300   0.01377
     Eigenvalues ---    0.01385   0.01448   0.01472   0.01487   0.01657
     Eigenvalues ---    0.01697   0.01767   0.01781   0.01828   0.01949
     Eigenvalues ---    0.02206   0.02212   0.02225   0.02233   0.02244
     Eigenvalues ---    0.02254   0.02262   0.02521   0.02598   0.03190
     Eigenvalues ---    0.03268   0.03890   0.04224   0.04765   0.04834
     Eigenvalues ---    0.04951   0.04986   0.04990   0.05050   0.05178
     Eigenvalues ---    0.05231   0.05659   0.05741   0.05878   0.05949
     Eigenvalues ---    0.06001   0.06041   0.06108   0.06313   0.07637
     Eigenvalues ---    0.08180   0.08635   0.08953   0.09060   0.09081
     Eigenvalues ---    0.09092   0.10014   0.10120   0.10543   0.11248
     Eigenvalues ---    0.11373   0.11490   0.11506   0.11564   0.11656
     Eigenvalues ---    0.11995   0.12508   0.12922   0.13284   0.13816
     Eigenvalues ---    0.13888   0.13892   0.13916   0.13929   0.14280
     Eigenvalues ---    0.15344   0.16000   0.16000   0.16000   0.16000
     Eigenvalues ---    0.16000   0.16000   0.16000   0.16000   0.16799
     Eigenvalues ---    0.18312   0.19436   0.21056   0.21601   0.21924
     Eigenvalues ---    0.21990   0.22000   0.22041   0.22045   0.22065
     Eigenvalues ---    0.22085   0.23018   0.23117   0.23479   0.23493
     Eigenvalues ---    0.24648   0.24985   0.25000   0.25000   0.25000
     Eigenvalues ---    0.25000   0.25000   0.25000   0.25000   0.28748
     Eigenvalues ---    0.30266   0.30515   0.30929   0.32795   0.33718
     Eigenvalues ---    0.33725   0.33963   0.33987   0.34148   0.34220
     Eigenvalues ---    0.34332   0.34345   0.34402   0.34552   0.34578
     Eigenvalues ---    0.34633   0.34717   0.34744   0.34772   0.34828
     Eigenvalues ---    0.34861   0.35801   0.35829   0.35858   0.35872
     Eigenvalues ---    0.38434   0.40794   0.41979   0.42888   0.42970
     Eigenvalues ---    0.43062   0.43149   0.43238   0.45690   0.46571
     Eigenvalues ---    0.46852   0.47368   0.47637   0.47760   0.47806
     Eigenvalues ---    0.49181   0.53530   0.54347   0.54865   0.54875
     Eigenvalues ---    0.57813   0.71016   0.89862   1.02390
 RFO step:  Lambda=-1.96279406D-03 EMin= 2.30000000D-03
 Linear search not attempted -- first point.
 Iteration  1 RMS(Cart)=  0.03401982 RMS(Int)=  0.00061103
 Iteration  2 RMS(Cart)=  0.00111511 RMS(Int)=  0.00000141
 Iteration  3 RMS(Cart)=  0.00000108 RMS(Int)=  0.00000140
 Iteration  4 RMS(Cart)=  0.00000000 RMS(Int)=  0.00000140
 Variable       Old X    -DE/DX   Delta X   Delta X   Delta X     New X
                                 (Linear)    (Quad)   (Total)
    R1        4.14533  -0.00001   0.00000  -0.00016  -0.00016   4.14517
    R2        2.68950   0.00001   0.00000   0.00001   0.00001   2.68951
    R3        1.89027   0.00005   0.00000   0.00011   0.00011   1.89038
    R4        3.54125   0.00001   0.00000   0.00004   0.00004   3.54128
    R5        3.47479  -0.00001   0.00000  -0.00006  -0.00006   3.47474
    R6        4.10389  -0.00000   0.00000  -0.00003  -0.00003   4.10386
    R7        3.71657  -0.00005   0.00000  -0.00033  -0.00033   3.71624
    R8        3.43003   0.00009   0.00000   0.00037   0.00037   3.43040
    R9        2.64734   0.00001   0.00000   0.00003   0.00003   2.64737
   R10        2.63493   0.00002   0.00000   0.00005   0.00005   2.63497
   R11        2.87436  -0.00000   0.00000  -0.00001  -0.00001   2.87435
   R12        2.07809  -0.00000   0.00000  -0.00001  -0.00001   2.07808
   R13        2.07081  -0.00000   0.00000  -0.00001  -0.00001   2.07079
   R14        2.06960   0.00000   0.00000   0.00001   0.00001   2.06961
   R15        2.06046  -0.00000   0.00000  -0.00000  -0.00000   2.06046
   R16        2.67706  -0.00001   0.00000  -0.00002  -0.00002   2.67705
   R17        2.86949  -0.00000   0.00000  -0.00001  -0.00001   2.86948
   R18        2.06275  -0.00000   0.00000  -0.00001  -0.00001   2.06274
   R19        2.06408  -0.00000   0.00000  -0.00000  -0.00000   2.06408
   R20        2.67486  -0.00000   0.00000  -0.00000  -0.00000   2.67486
   R21        2.06752  -0.00000   0.00000  -0.00000  -0.00000   2.06752
   R22        2.06138   0.00000   0.00000   0.00001   0.00001   2.06139
   R23        1.81952  -0.00000   0.00000  -0.00000  -0.00000   1.81952
   R24        2.87559  -0.00000   0.00000  -0.00002  -0.00002   2.87557
   R25        2.07393   0.00001   0.00000   0.00002   0.00002   2.07395
   R26        2.06658  -0.00000   0.00000  -0.00000  -0.00000   2.06657
   R27        2.71306  -0.00001   0.00000  -0.00002  -0.00002   2.71305
   R28        2.05902   0.00000   0.00000   0.00000   0.00000   2.05902
   R29        2.06093  -0.00000   0.00000  -0.00000  -0.00000   2.06092
   R30        1.87401  -0.00000   0.00000  -0.00000  -0.00000   1.87401
   R31        1.81943   0.00000   0.00000   0.00000   0.00000   1.81943
   R32        2.32997   0.00010   0.00000   0.00011   0.00011   2.33007
   R33        2.43158   0.00011   0.00000   0.00016   0.00016   2.43173
   R34        2.82713  -0.00003   0.00000  -0.00009  -0.00009   2.82705
   R35        2.63206  -0.00101   0.00000  -0.00206  -0.00206   2.63000
   R36        2.61944   0.00059   0.00000   0.00101   0.00101   2.62044
   R37        2.04395   0.00001   0.00000   0.00002   0.00002   2.04396
   R38        2.62147   0.00108   0.00000   0.00258   0.00258   2.62405
   R39        2.62240  -0.00107   0.00000  -0.00255  -0.00255   2.61985
   R40        2.04349  -0.00005   0.00000  -0.00015  -0.00015   2.04334
   R41        2.62589   0.00371   0.00000   0.00803   0.00803   2.63392
   R42        2.04304  -0.00141   0.00000  -0.00392  -0.00392   2.03912
   R43        2.63158  -0.00242   0.00000  -0.00525  -0.00524   2.62634
   R44        2.04282   0.00086   0.00000   0.00239   0.00239   2.04521
   R45        2.81096   0.00108   0.00000   0.00317   0.00317   2.81413
   R46        2.27696   0.00115   0.00000   0.00112   0.00112   2.27808
   R47        2.52714  -0.00027   0.00000  -0.00047  -0.00047   2.52667
   R48        1.83162  -0.00016   0.00000  -0.00029  -0.00029   1.83133
   R49        2.64482   0.00002   0.00000   0.00005   0.00005   2.64487
   R50        2.86148   0.00000   0.00000   0.00000   0.00000   2.86148
   R51        2.07352  -0.00000   0.00000  -0.00000  -0.00000   2.07352
   R52        2.06774   0.00001   0.00000   0.00003   0.00003   2.06777
   R53        2.70488  -0.00002   0.00000  -0.00005  -0.00005   2.70483
   R54        2.05955   0.00000   0.00000   0.00001   0.00001   2.05956
   R55        2.06365   0.00000   0.00000   0.00000   0.00000   2.06366
   R56        1.82417   0.00000   0.00000   0.00000   0.00000   1.82418
    A1        2.22283   0.00000   0.00000   0.00000   0.00000   2.22283
    A2        1.82067  -0.00001   0.00000  -0.00006  -0.00006   1.82061
    A3        1.95874   0.00001   0.00000   0.00006   0.00006   1.95880
    A4        1.49521   0.00000   0.00000   0.00008   0.00008   1.49529
    A5        1.46013   0.00001   0.00000   0.00004   0.00004   1.46016
    A6        1.49788   0.00001   0.00000   0.00003   0.00003   1.49791
    A7        1.46538  -0.00001   0.00000  -0.00012  -0.00012   1.46526
    A8        2.74407   0.00001   0.00000   0.00004   0.00004   2.74412
    A9        1.33189   0.00000   0.00000  -0.00000  -0.00000   1.33189
   A10        1.70090  -0.00001   0.00000  -0.00008  -0.00008   1.70082
   A11        1.66604   0.00001   0.00000   0.00003   0.00003   1.66607
   A12        1.44653   0.00000   0.00000   0.00000   0.00000   1.44653
   A13        1.76887   0.00001   0.00000   0.00007   0.00007   1.76895
   A14        1.64950  -0.00001   0.00000  -0.00010  -0.00010   1.64939
   A15        1.61040   0.00001   0.00000   0.00010   0.00010   1.61050
   A16        1.71200   0.00000   0.00000  -0.00000  -0.00000   1.71199
   A17        2.07122  -0.00001   0.00000  -0.00005  -0.00005   2.07116
   A18        2.39745  -0.00000   0.00000  -0.00000  -0.00000   2.39745
   A19        1.91472  -0.00000   0.00000  -0.00002  -0.00002   1.91470
   A20        1.92782  -0.00000   0.00000  -0.00002  -0.00002   1.92780
   A21        1.93114  -0.00000   0.00000  -0.00003  -0.00003   1.93111
   A22        1.90656  -0.00000   0.00000  -0.00001  -0.00001   1.90655
   A23        1.91235   0.00000   0.00000   0.00004   0.00004   1.91238
   A24        1.87065   0.00000   0.00000   0.00005   0.00005   1.87070
   A25        1.91295  -0.00000   0.00000  -0.00001  -0.00001   1.91294
   A26        1.91142   0.00000   0.00000   0.00001   0.00001   1.91143
   A27        1.94775   0.00000   0.00000  -0.00000  -0.00000   1.94775
   A28        1.88397   0.00000   0.00000   0.00002   0.00002   1.88398
   A29        1.94350   0.00000   0.00000  -0.00000  -0.00000   1.94350
   A30        1.86240  -0.00000   0.00000  -0.00001  -0.00001   1.86238
   A31        1.89581  -0.00001   0.00000  -0.00003  -0.00003   1.89578
   A32        1.91099   0.00000   0.00000   0.00002   0.00002   1.91101
   A33        1.90879   0.00000   0.00000   0.00001   0.00001   1.90879
   A34        1.92585  -0.00000   0.00000  -0.00001  -0.00001   1.92584
   A35        1.92879   0.00001   0.00000   0.00004   0.00004   1.92884
   A36        1.89354  -0.00000   0.00000  -0.00002  -0.00002   1.89352
   A37        1.94002   0.00000   0.00000   0.00001   0.00001   1.94003
   A38        1.91753   0.00000   0.00000   0.00002   0.00002   1.91754
   A39        1.90470  -0.00000   0.00000  -0.00002  -0.00002   1.90468
   A40        1.94703  -0.00000   0.00000   0.00001   0.00001   1.94703
   A41        1.86858  -0.00000   0.00000  -0.00002  -0.00002   1.86857
   A42        1.88411   0.00000   0.00000   0.00000   0.00000   1.88411
   A43        1.90065  -0.00000   0.00000  -0.00001  -0.00001   1.90064
   A44        1.87018   0.00000   0.00000  -0.00001  -0.00001   1.87017
   A45        1.92047   0.00000   0.00000   0.00001   0.00001   1.92048
   A46        1.93691  -0.00000   0.00000  -0.00001  -0.00001   1.93690
   A47        1.91438  -0.00000   0.00000  -0.00002  -0.00002   1.91436
   A48        1.92825   0.00000   0.00000   0.00003   0.00003   1.92828
   A49        1.89374   0.00000   0.00000   0.00000   0.00000   1.89375
   A50        1.85839   0.00000   0.00000  -0.00002  -0.00002   1.85837
   A51        1.96981   0.00000   0.00000  -0.00000  -0.00000   1.96981
   A52        1.94108  -0.00000   0.00000  -0.00000  -0.00000   1.94107
   A53        1.92292  -0.00000   0.00000   0.00002   0.00002   1.92294
   A54        1.86408   0.00000   0.00000   0.00003   0.00003   1.86412
   A55        1.90431  -0.00000   0.00000  -0.00003  -0.00003   1.90428
   A56        1.97697   0.00000   0.00000   0.00001   0.00001   1.97698
   A57        1.82417   0.00000   0.00000   0.00005   0.00005   1.82422
   A58        1.95591  -0.00001   0.00000  -0.00004  -0.00004   1.95587
   A59        1.89562   0.00000   0.00000   0.00001   0.00001   1.89564
   A60        2.16669  -0.00009   0.00000  -0.00036  -0.00036   2.16633
   A61        2.09531   0.00019   0.00000   0.00077   0.00077   2.09608
   A62        2.02118  -0.00010   0.00000  -0.00041  -0.00041   2.02077
   A63        2.42455  -0.00002   0.00000  -0.00007  -0.00007   2.42447
   A64        2.09764  -0.00010   0.00000  -0.00077  -0.00077   2.09686
   A65        2.07727   0.00007   0.00000   0.00053   0.00053   2.07779
   A66        2.10828   0.00003   0.00000   0.00025   0.00025   2.10853
   A67        2.08571  -0.00001   0.00000  -0.00044  -0.00044   2.08527
   A68        2.10353   0.00012   0.00000   0.00009   0.00009   2.10362
   A69        2.09395  -0.00010   0.00000   0.00035   0.00034   2.09429
   A70        2.09392   0.00040   0.00000   0.00052   0.00053   2.09445
   A71        2.09590  -0.00008   0.00000   0.00049   0.00049   2.09639
   A72        2.09336  -0.00032   0.00000  -0.00102  -0.00102   2.09235
   A73        2.09071  -0.00040   0.00000  -0.00065  -0.00065   2.09006
   A74        2.10036  -0.00165   0.00000  -0.01111  -0.01111   2.08925
   A75        2.09212   0.00205   0.00000   0.01176   0.01176   2.10387
   A76        2.09184   0.00103   0.00000   0.00366   0.00366   2.09549
   A77        2.10020   0.00064   0.00000   0.00530   0.00530   2.10550
   A78        2.09115  -0.00167   0.00000  -0.00895  -0.00896   2.08220
   A79        2.09832  -0.00083   0.00000  -0.00311  -0.00311   2.09522
   A80        2.06049   0.01532   0.00000   0.06069   0.06069   2.12118
   A81        2.12437  -0.01449   0.00000  -0.05759  -0.05759   2.06679
   A82        2.16968  -0.00176   0.00000  -0.00698  -0.00698   2.16270
   A83        1.97348   0.00330   0.00000   0.01308   0.01308   1.98656
   A84        2.14002  -0.00154   0.00000  -0.00610  -0.00610   2.13392
   A85        1.88784  -0.00062   0.00000  -0.00381  -0.00381   1.88403
   A86        2.35004  -0.00003   0.00000  -0.00014  -0.00014   2.34990
   A87        1.93918   0.00001   0.00000   0.00003   0.00003   1.93921
   A88        1.92274  -0.00000   0.00000  -0.00002  -0.00002   1.92272
   A89        1.90858   0.00000   0.00000   0.00005   0.00005   1.90863
   A90        1.90785  -0.00001   0.00000  -0.00006  -0.00006   1.90779
   A91        1.89430  -0.00000   0.00000  -0.00000  -0.00000   1.89430
   A92        1.89031   0.00000   0.00000   0.00001   0.00001   1.89032
   A93        1.95823  -0.00002   0.00000  -0.00008  -0.00008   1.95815
   A94        1.92013   0.00000   0.00000  -0.00001  -0.00001   1.92012
   A95        1.92072   0.00001   0.00000   0.00006   0.00006   1.92077
   A96        1.84698   0.00001   0.00000   0.00001   0.00001   1.84699
   A97        1.91469   0.00000   0.00000   0.00001   0.00001   1.91470
   A98        1.90115  -0.00000   0.00000   0.00001   0.00001   1.90116
   A99        1.89772   0.00001   0.00000   0.00008   0.00008   1.89781
   A100       3.16125   0.00001   0.00000   0.00012   0.00012   3.16136
   A101       2.96326  -0.00001   0.00000  -0.00009  -0.00009   2.96317
   A102       3.10248   0.00001   0.00000   0.00011   0.00011   3.10260
   A103       3.04633  -0.00001   0.00000  -0.00008  -0.00008   3.04625
    D1       -0.52512  -0.00000   0.00000   0.00012   0.00012  -0.52500
    D2        2.26472  -0.00000   0.00000   0.00011   0.00011   2.26483
    D3        0.81112  -0.00000   0.00000   0.00011   0.00011   0.81123
    D4       -2.23521   0.00000   0.00000   0.00020   0.00020  -2.23502
    D5        1.80165  -0.00000   0.00000   0.00015   0.00015   1.80180
    D6       -1.69169  -0.00000   0.00000   0.00014   0.00014  -1.69156
    D7        3.13789  -0.00000   0.00000   0.00014   0.00014   3.13803
    D8        0.09156   0.00001   0.00000   0.00023   0.00023   0.09178
    D9       -1.68547  -0.00000   0.00000  -0.00007  -0.00007  -1.68553
   D10        0.41868  -0.00000   0.00000  -0.00009  -0.00009   0.41859
   D11        2.49131  -0.00000   0.00000  -0.00010  -0.00010   2.49121
   D12        2.32191   0.00000   0.00000  -0.00005  -0.00005   2.32186
   D13       -1.85714   0.00000   0.00000  -0.00007  -0.00007  -1.85720
   D14        0.21550  -0.00000   0.00000  -0.00009  -0.00009   0.21541
   D15        2.09587   0.00000   0.00000   0.00017   0.00017   2.09604
   D16       -1.84215   0.00001   0.00000   0.00020   0.00020  -1.84195
   D17        2.04353   0.00001   0.00000   0.00005   0.00005   2.04358
   D18        0.95802  -0.00001   0.00000  -0.00022  -0.00022   0.95780
   D19        0.52952  -0.00000   0.00000   0.00003   0.00003   0.52955
   D20       -2.78545  -0.00001   0.00000  -0.00006  -0.00006  -2.78551
   D21       -1.05895  -0.00001   0.00000  -0.00007  -0.00007  -1.05902
   D22       -0.72764  -0.00001   0.00000  -0.00018  -0.00018  -0.72783
   D23        0.36413   0.00000   0.00000   0.00009   0.00009   0.36422
   D24        0.78313  -0.00001   0.00000  -0.00016  -0.00016   0.78297
   D25       -2.16778   0.00000   0.00000  -0.00005  -0.00005  -2.16784
   D26        2.38410   0.00000   0.00000  -0.00004  -0.00004   2.38407
   D27       -1.58843  -0.00000   0.00000  -0.00008  -0.00008  -1.58851
   D28        2.56088  -0.00000   0.00000  -0.00007  -0.00007   2.56081
   D29       -0.07781  -0.00000   0.00000  -0.00000  -0.00000  -0.07781
   D30       -2.21168   0.00000   0.00000   0.00000   0.00000  -2.21167
   D31       -3.05658  -0.00001   0.00000  -0.00011  -0.00011  -3.05669
   D32        1.09274  -0.00001   0.00000  -0.00010  -0.00010   1.09264
   D33        1.58140   0.00000   0.00000   0.00001   0.00001   1.58141
   D34       -0.55247   0.00001   0.00000   0.00001   0.00001  -0.55245
   D35       -1.62859  -0.00000   0.00000  -0.00003  -0.00003  -1.62863
   D36        2.48378   0.00000   0.00000  -0.00004  -0.00004   2.48374
   D37       -0.13545   0.00000   0.00000  -0.00000  -0.00000  -0.13546
   D38       -1.61570  -0.00000   0.00000  -0.00008  -0.00008  -1.61578
   D39        1.30042   0.00000   0.00000  -0.00000  -0.00000   1.30042
   D40        2.98096  -0.00001   0.00000  -0.00010  -0.00010   2.98086
   D41        2.64581  -0.00000   0.00000  -0.00004  -0.00004   2.64577
   D42       -0.13787  -0.00001   0.00000  -0.00005  -0.00005  -0.13792
   D43        1.31132  -0.00000   0.00000  -0.00005  -0.00005   1.31127
   D44       -1.92085  -0.00001   0.00000  -0.00011  -0.00011  -1.92096
   D45       -0.85645  -0.00000   0.00000  -0.00007  -0.00007  -0.85653
   D46        1.22392  -0.00000   0.00000  -0.00010  -0.00010   1.22382
   D47       -2.96303  -0.00000   0.00000  -0.00010  -0.00010  -2.96313
   D48        3.06237   0.00001   0.00000   0.00024   0.00024   3.06261
   D49       -1.11816   0.00000   0.00000   0.00020   0.00020  -1.11796
   D50        0.95038   0.00000   0.00000   0.00023   0.00023   0.95062
   D51        0.99159   0.00000   0.00000  -0.00001  -0.00001   0.99158
   D52       -1.07213  -0.00000   0.00000  -0.00003  -0.00003  -1.07216
   D53       -3.13036  -0.00000   0.00000  -0.00002  -0.00002  -3.13038
   D54       -1.12392   0.00000   0.00000   0.00003   0.00003  -1.12388
   D55        3.09554   0.00000   0.00000   0.00001   0.00001   3.09556
   D56        1.03732   0.00000   0.00000   0.00002   0.00002   1.03734
   D57        3.11488  -0.00000   0.00000  -0.00004  -0.00004   3.11484
   D58        1.05115  -0.00000   0.00000  -0.00006  -0.00006   1.05109
   D59       -1.00707  -0.00000   0.00000  -0.00005  -0.00005  -1.00712
   D60       -1.16481   0.00000   0.00000   0.00000   0.00000  -1.16480
   D61        0.97908  -0.00000   0.00000  -0.00001  -0.00001   0.97907
   D62        3.03094   0.00000   0.00000   0.00000   0.00000   3.03094
   D63        2.99320  -0.00000   0.00000  -0.00003  -0.00003   2.99317
   D64       -1.12635   0.00000   0.00000  -0.00000  -0.00000  -1.12635
   D65        0.93624   0.00000   0.00000  -0.00000  -0.00000   0.93624
   D66        0.89827  -0.00000   0.00000  -0.00002  -0.00002   0.89824
   D67        3.06191   0.00000   0.00000   0.00000   0.00000   3.06191
   D68       -1.15869   0.00000   0.00000   0.00000   0.00000  -1.15869
   D69       -1.19599  -0.00000   0.00000  -0.00001  -0.00001  -1.19600
   D70        0.96765   0.00000   0.00000   0.00002   0.00002   0.96766
   D71        3.03024   0.00000   0.00000   0.00002   0.00002   3.03026
   D72        1.21110   0.00000   0.00000   0.00003   0.00003   1.21113
   D73       -0.93568  -0.00000   0.00000  -0.00000  -0.00000  -0.93568
   D74       -2.99337  -0.00000   0.00000   0.00000   0.00000  -2.99337
   D75        0.67791   0.00000   0.00000   0.00008   0.00008   0.67799
   D76        2.78977   0.00000   0.00000   0.00009   0.00009   2.78986
   D77       -1.34650   0.00000   0.00000   0.00005   0.00005  -1.34646
   D78       -1.40639   0.00000   0.00000   0.00009   0.00009  -1.40630
   D79        0.70547   0.00000   0.00000   0.00010   0.00010   0.70557
   D80        2.85238  -0.00000   0.00000   0.00006   0.00006   2.85244
   D81        2.78997   0.00000   0.00000   0.00008   0.00008   2.79005
   D82       -1.38136   0.00000   0.00000   0.00010   0.00010  -1.38127
   D83        0.76555  -0.00000   0.00000   0.00005   0.00005   0.76560
   D84       -0.31076  -0.00000   0.00000  -0.00004  -0.00004  -0.31080
   D85        1.74793   0.00000   0.00000   0.00001   0.00001   1.74794
   D86       -2.45238  -0.00000   0.00000  -0.00004  -0.00004  -2.45242
   D87       -0.39368   0.00000   0.00000   0.00000   0.00000  -0.39368
   D88        1.76472  -0.00000   0.00000  -0.00004  -0.00004   1.76469
   D89       -2.45977   0.00000   0.00000   0.00001   0.00001  -2.45976
   D90        0.06567  -0.00001   0.00000  -0.00011  -0.00011   0.06556
   D91       -3.07603  -0.00002   0.00000  -0.00071  -0.00071  -3.07674
   D92        0.01476  -0.00001   0.00000  -0.00044  -0.00044   0.01432
   D93       -3.12521  -0.00001   0.00000  -0.00061  -0.00061  -3.12582
   D94       -3.12672   0.00000   0.00000   0.00014   0.00014  -3.12659
   D95        0.01649   0.00000   0.00000  -0.00003  -0.00003   0.01646
   D96       -3.14074  -0.00000   0.00000  -0.00021  -0.00021  -3.14095
   D97       -0.00076  -0.00000   0.00000  -0.00004  -0.00004  -0.00080
   D98        0.00098  -0.00000   0.00000  -0.00010  -0.00010   0.00088
   D99        3.14096   0.00000   0.00000   0.00007   0.00007   3.14103
   D100       0.00077   0.00000   0.00000   0.00008   0.00009   0.00085
   D101      -3.14104   0.00000   0.00000   0.00012   0.00012  -3.14093
   D102      -3.14095  -0.00000   0.00000  -0.00002  -0.00002  -3.14097
   D103       0.00042   0.00000   0.00000   0.00001   0.00001   0.00043
   D104       3.13998   0.00000   0.00000   0.00015   0.00015   3.14013
   D105      -0.00111  -0.00000   0.00000  -0.00008  -0.00008  -0.00120
   D106       0.00002   0.00000   0.00000  -0.00002  -0.00002  -0.00000
   D107      -3.14108  -0.00000   0.00000  -0.00025  -0.00026  -3.14133
   D108      -0.00004  -0.00000   0.00000  -0.00007  -0.00007  -0.00011
   D109       3.14098   0.00000   0.00000   0.00009   0.00009   3.14107
   D110      -3.14141  -0.00000   0.00000  -0.00010  -0.00010  -3.14152
   D111      -0.00039   0.00000   0.00000   0.00006   0.00006  -0.00034
   D112       0.00071  -0.00000   0.00000   0.00003   0.00003   0.00074
   D113      -3.13994  -0.00000   0.00000  -0.00032  -0.00033  -3.14027
   D114      -3.14138   0.00000   0.00000   0.00026   0.00026  -3.14112
   D115       0.00116   0.00000   0.00000  -0.00010  -0.00010   0.00105
   D116      -0.00070   0.00000   0.00000   0.00001   0.00001  -0.00069
   D117       3.13991   0.00002   0.00000   0.00044   0.00043   3.14035
   D118       3.14146  -0.00001   0.00000  -0.00015  -0.00015   3.14131
   D119      -0.00111   0.00001   0.00000   0.00028   0.00027  -0.00084
   D120      -3.14120  -0.00002   0.00000  -0.00072  -0.00072   3.14127
   D121      -0.00000   0.00004   0.00000   0.00282   0.00282   0.00282
   D122       0.00135  -0.00002   0.00000  -0.00111  -0.00111   0.00024
   D123      -3.14064   0.00004   0.00000   0.00243   0.00243  -3.13820
   D124      -3.14107  -0.00003   0.00000  -0.00170  -0.00170   3.14042
   D125       0.00013   0.00003   0.00000   0.00177   0.00178   0.00191
   D126      -1.57449   0.00000   0.00000   0.00018   0.00018  -1.57432
   D127       0.54244   0.00000   0.00000   0.00010   0.00010   0.54255
   D128       2.61805   0.00000   0.00000   0.00013   0.00013   2.61818
   D129       1.16560  -0.00000   0.00000  -0.00003  -0.00003   1.16557
   D130      -0.88555  -0.00000   0.00000   0.00001   0.00001  -0.88554
   D131      -2.98045  -0.00000   0.00000  -0.00003  -0.00003  -2.98048
   D132      -0.96005  -0.00000   0.00000   0.00002   0.00002  -0.96002
   D133      -3.01120   0.00000   0.00000   0.00006   0.00006  -3.01113
   D134       1.17709  -0.00000   0.00000   0.00002   0.00002   1.17711
   D135      -3.01847   0.00000   0.00000   0.00005   0.00005  -3.01842
   D136       1.21356   0.00000   0.00000   0.00009   0.00009   1.21365
   D137      -0.88133   0.00000   0.00000   0.00005   0.00005  -0.88129
   D138       1.12528   0.00001   0.00000   0.00022   0.00022   1.12549
   D139      -3.06365   0.00000   0.00000   0.00017   0.00017  -3.06348
   D140      -1.01528   0.00000   0.00000   0.00019   0.00019  -1.01509
         Item               Value     Threshold  Converged?
 Maximum Force            0.015316     0.000450     NO 
 RMS     Force            0.001296     0.000300     NO 
 Maximum Displacement     0.279336     0.001800     NO 
 RMS     Displacement     0.034454     0.001200     NO 
 Predicted change in Energy=-9.890897D-04
 GradGradGradGradGradGradGradGradGradGradGradGradGradGradGradGradGradGrad

 Symmetry turned off by external request.
 Stoichiometry    C16H26O12Ti
 Framework group  C1[X(C16H26O12Ti)]
 Deg. of freedom   159
 Full point group                 C1      NOp   1
                          Input orientation:                          
 ---------------------------------------------------------------------
 Center     Atomic      Atomic             Coordinates (Angstroms)
 Number     Number       Type             X           Y           Z
 ---------------------------------------------------------------------
      1          8           0        1.816287    1.235764    0.014857
      2         22           0        0.339232    0.088076    1.160581
      3          8           0        1.468366   -1.380004    0.875019
      4          8           0       -0.164603    1.743997    1.781131
      5          6           0        0.462524    2.915283    2.204289
      6          6           0       -0.583324    3.980846    2.494702
      7          6           0        3.217478    1.000412   -0.067927
      8          6           0        3.920625    1.903865    0.929612
      9          8           0        5.294580    1.579481    1.032533
     10          6           0        2.057435   -2.000613    1.984275
     11          6           0        2.672246   -0.902115    2.839162
     12          8           0        1.757156    0.203494    2.801408
     13          1           0        3.424760   -0.047349    0.157290
     14          1           0        3.560746    1.210968   -1.083248
     15          1           0        3.774778    2.951417    0.649645
     16          1           0        3.481926    1.755608    1.917283
     17          1           0        1.295272   -2.537092    2.563736
     18          1           0        2.823191   -2.716067    1.671754
     19          1           0        2.843491   -1.213214    3.869257
     20          1           0        3.611491   -0.548770    2.412128
     21          1           0        1.051874    2.728663    3.113752
     22          1           0        1.155952    3.280618    1.438456
     23          1           0       -1.292715    3.605934    3.240121
     24          1           0       -1.139545    4.203195    1.583638
     25          8           0        0.012506    5.195499    2.914763
     26          1           0        0.428548    5.053565    3.771354
     27          1           0        5.735731    1.827254    0.213342
     28          1           0        1.192424    0.247584    3.615392
     29          8           0        0.375540    1.247230   -2.112160
     30          6           0       -0.538651    0.510397   -1.735764
     31          8           0       -0.621022    0.008467   -0.553740
     32          6           0       -1.622663    0.633098   -3.979399
     33          6           0       -1.644536    0.147068   -2.675472
     34          6           0       -2.641053    0.305623   -4.861737
     35          6           0       -2.688222   -0.666858   -2.255451
     36          6           0       -3.684495   -0.506725   -4.445411
     37          6           0       -3.711117   -0.993749   -3.144012
     38          1           0       -2.700640   -1.040908   -1.243377
     39          6           0       -4.849986   -1.861851   -2.735338
     40          1           0       -4.484852   -0.768362   -5.125340
     41          8           0       -5.756454   -2.171097   -3.467414
     42          8           0       -4.785574   -2.274830   -1.465293
     43          1           0       -5.562085   -2.827953   -1.291400
     44          8           0       -0.867335   -0.816125    2.171465
     45          6           0       -1.751785   -0.463431    3.197258
     46          6           0       -1.094578   -0.599226    4.554659
     47          8           0       -0.037735    0.347937    4.740872
     48          1           0        1.397386    1.347595   -0.886646
     49          1           0       -0.632941   -1.581989    4.648953
     50          1           0       -1.839049   -0.480275    5.344700
     51          1           0       -0.413704    1.237011    4.735798
     52          1           0       -2.094997    0.569966    3.062085
     53          1           0       -2.624762   -1.122403    3.165970
     54          1           0       -2.623299    0.682978   -5.874889
     55          1           0       -0.802666    1.266280   -4.290182
 ---------------------------------------------------------------------
 Rotational constants (GHZ):           0.2009567           0.0848421           0.0777205
 Standard basis: def2TZVP (5D, 7F)
  1069 basis functions,  1738 primitive gaussians,  1216 cartesian basis functions
   120 alpha electrons      120 beta electrons
       nuclear repulsion energy      3600.4395169411 Hartrees.
 NAtoms=   55 NActive=   55 NUniq=   55 SFac= 1.00D+00 NAtFMM=   60 NAOKFM=F Big=F
 Integral buffers will be    131072 words long.
 Raffenetti 2 integral format.
 Two-electron integral symmetry is turned off.
 ------------------------------------------------------------------------------
 Polarizable Continuum Model (PCM)
 =================================
 Model                : PCM.
 Atomic radii         : UFF (Universal Force Field).
 Polarization charges : Total charges.
 Charge compensation  : None.
 Solution method      : On-the-fly selection.
 Cavity type          : Scaled VdW (van der Waals Surface) (Alpha=1.100).
 Cavity algorithm     : GePol (No added spheres)
                        Default sphere list used, NSphG=   55.
                        Lebedev-Laikov grids with approx.  7.0 points / Ang**2.
                        Smoothing algorithm: York/Karplus (Gamma=1.0000).
                        Polarization charges: spherical gaussians, with
                                              point-specific exponents (IZeta= 3).
                        Self-potential: point-specific (ISelfS= 7).
                        Self-field    : sphere-specific E.n sum rule (ISelfD= 2).
 1st derivatives      : Analytical E(r).r(x)/FMM algorithm (CHGder, D1EAlg=3).
                        Cavity 1st derivative terms included.
 Solvent              : 1,2-EthaneDiol, Eps=  40.245000 Eps(inf)=   2.050051
 ------------------------------------------------------------------------------
 One-electron integrals computed using PRISM.
   1 Symmetry operations used in ECPInt.
 ECPInt:  NShTT=   91378 NPrTT=  283881 LenC2=   71278 LenP2D=  148265.
 LDataN:  DoStor=T MaxTD1= 6 Len=  172
 NBasis=  1069 RedAO= T EigKep=  6.85D-06  NBF=  1069
 NBsUse=  1069 1.00D-06 EigRej= -1.00D+00 NBFU=  1069
 Initial guess from the checkpoint file:  "/dev/shm/tieg5ipatse_ts_noeg_reacta.chk"
 B after Tr=    -0.001024   -0.000102   -0.002447
         Rot=    1.000000   -0.000227    0.000426    0.000150 Ang=  -0.06 deg.
 ExpMin= 3.27D-02 ExpMax= 2.12D+05 ExpMxC= 2.04D+03 IAcc=3 IRadAn=         5 AccDes= 0.00D+00
 Harris functional with IExCor= 1009 and IRadAn=       5 diagonalized for initial guess.
 HarFok:  IExCor= 1009 AccDes= 0.00D+00 IRadAn=         5 IDoV= 1 UseB2=F ITyADJ=14
 ICtDFT=  3500011 ScaDFX=  1.000000  1.000000  1.000000  1.000000
 FoFCou: FMM=F IPFlag=           0 FMFlag=      100000 FMFlg1=           0
         NFxFlg=           0 DoJE=T BraDBF=F KetDBF=T FulRan=T
         wScrn=  0.000000 ICntrl=       500 IOpCl=  0 I1Cent=   200000004 NGrid=           0
         NMat0=    1 NMatS0=      1 NMatT0=    0 NMatD0=    1 NMtDS0=    0 NMtDT0=    0
 Symmetry not used in FoFCou.
 Requested convergence on RMS density matrix=1.00D-08 within  32 cycles.
 Requested convergence on MAX density matrix=1.00D-06.
 Requested convergence on             energy=1.00D-06.
 No special actions if energy rises.
 Inv3:  Mode=1 IEnd=   101407788.
 Iteration    1 A*A^-1 deviation from unit magnitude is 3.55D-15 for    989.
 Iteration    1 A*A^-1 deviation from orthogonality  is 2.45D-15 for   5702   5464.
 Iteration    1 A^-1*A deviation from unit magnitude is 3.44D-15 for    635.
 Iteration    1 A^-1*A deviation from orthogonality  is 2.33D-15 for   5558   1112.
[...]
 00000057,0.00001128,0.00000187,-0.00000050,0.00001504,0.00001075,-0.00
 001401,0.00000013,-0.00000031,-0.00000086,-0.00000924,-0.00000497,0.00
 000200,-0.00000682,-0.00000250,0.00001136,0.00000095,-0.00000167,-0.00
 000144,0.02149597,-0.02496256,-0.00836670,-0.01570509,0.03884767,-0.05
 310512,-0.01046519,0.03100992,-0.00579919,0.00241910,-0.00019320,0.002
 55941,0.00003616,-0.00003628,0.00007850,-0.00314151,-0.00024377,-0.004
 88806,0.00077107,-0.00049776,0.00091713,-0.00042728,-0.00090185,-0.000
 27511,0.00707966,-0.03469080,0.06535944,-0.00068008,-0.00034029,0.0003
 5573,0.00287251,0.00288004,-0.00314492,-0.00073331,0.00081985,0.000214
 00,0.00051106,-0.00122787,-0.00059702,0.00020124,0.00025532,0.00014858
 ,-0.00012540,0.00005887,0.00002652,0.00022346,-0.00011478,0.00003866,0
 .00004659,0.00003709,0.00002258,-0.00009453,-0.00001758,-0.00001068,0.
 00018355,-0.00015531,0.00030762,0.00025648,-0.00017063,-0.00002375,-0.
 00062357,-0.00007689,-0.00021803,0.00000557,0.00000881,-0.00002767,-0.
 00006580,-0.00001082,0.00001622,-0.00000603,-0.00001075,0.00000327,0.0
 0001643,0.00001717,0.00001251,0.00001319,-0.00001384,-0.00004953,-0.00
 006860,0.00005324,-0.00002519,-0.00002850,0.00001306,-0.00003839,-0.00
 003905,0.00002066,0.00001596,-0.00002167,-0.00002619,-0.00003730,-0.00
 002976,-0.00006164,-0.00000834,0.00001270,0.00000287,-0.00001640,0.000
 00815,-0.00000740,0.00000727,0.00001938,-0.00012037,-0.00005311,-0.000
 00181,0.00001443,0.00001728,0.00001100,0.00000754,-0.00000313,0.000298
 48,0.00010595,0.00003611,-0.00010371,-0.00018659,0.00026187,0.00002321
 ,0.00031659,-0.00070822,0.00041981,-0.00016471,0.00131225,0.00002835,0
 .00002416,-0.00001480,0.00001150,-0.00002675,0.00008472,0.00001809,0.0
 0000688,0.00001238,-0.00000137,-0.00000570,0.00001802,0.00000552,-0.00
 000248,0.00001711,0.00001082,0.00000626,0.00000146,-0.00002212,-0.0000
 1432,0.00000286,-0.00003168,-0.00002748,0.00002363,0.00000039,-0.00000
 041,0.00000140,0.00002090,0.00001356,-0.00000074,0.00001175,0.00001462
 ,-0.00001005,0.00000067,-0.00000147,0.00000485,-0.02724753,-0.00855700
 ,0.01610149,-0.20335017,-0.12323040,-0.01635608,-0.01116914,-0.0106992
 8,-0.00073435,-0.00123830,-0.00060441,-0.00307065,-0.00007465,0.000047
 36,-0.00014208,0.00016893,0.00028233,0.00055315,0.00066323,0.00031966,
 -0.00026521,-0.00021718,0.00027042,0.00002673,0.00869023,0.00485175,0.
 00025646,0.23121930,0.00022079,0.00005989,0.00001537,0.00060722,-0.000
 36600,-0.00094443,-0.00018205,-0.00003881,-0.00000941,-0.00084369,0.00
 024865,0.00059164,0.00008750,0.00028641,0.00011988,0.00003550,0.000065
 60,-0.00002384,-0.00001120,0.00005047,-0.00002463,0.00001002,-0.000006
 81,-0.00001312,-0.00000300,0.00000177,0.00000768,0.00000203,-0.0000163
 9,0.00001743,0.00005637,-0.00006143,0.00001077,-0.00017106,0.00007203,
 0.00016858,-0.00000226,-0.00000686,-0.00000017,0.00001222,-0.00000200,
 0.00000241,-0.00000039,-0.00000002,0.00000054,0.00000456,0.00000278,0.
 00000459,0.00002754,-0.00000366,-0.00000503,0.00000237,0.00000404,0.00
 000832,0.00000182,0.00000559,-0.00000641,-0.00001467,0.00001018,0.0000
 0222,0.00000421,0.00000573,-0.00002694,-0.00005156,-0.00007083,0.00000
 546,-0.00002840,-0.00000437,0.00000931,0.00000078,-0.00000866,0.000007
 76,-0.00002051,-0.00006808,-0.00001323,0.00000407,0.00000924,0.0000087
 4,-0.00000088,0.00000036,-0.00000051,0.00033514,-0.00004185,-0.0001374
 0,-0.00001093,-0.00001326,0.00001285,-0.00001614,0.00001264,-0.0000471
 9,-0.00002741,-0.00002755,0.00005906,-0.00000012,-0.00000011,-0.000001
 79,0.00000315,0.00000145,-0.00000038,0.00000154,0.00000098,-0.00000024
 ,0.00000018,-0.00000423,0.00000067,0.00000016,-0.00000043,0.00000139,0
 .00000096,0.00000084,-0.00000078,-0.00000605,0.00000195,0.00000208,-0.
 00000044,0.00000012,0.00000852,-0.00000017,0.00000025,0.00000007,-0.00
 000032,-0.00000087,-0.00000258,0.00000411,-0.00000264,-0.00000139,-0.0
 0000074,0.00000313,0.00000204,0.01045044,0.01033556,0.00026522,-0.1265
 3923,-0.15172088,-0.00887482,0.00360730,0.00093444,0.00160554,0.000001
 16,0.00147116,0.00002070,-0.00000576,-0.00001474,0.00001038,-0.0002176
 7,0.00024527,-0.00061514,-0.00041144,0.00010809,-0.00054628,0.00044714
 ,0.00043094,0.00071776,-0.02278741,-0.01670393,-0.00345684,0.13542555,
 0.15481422,0.00084028,0.00047006,-0.00038329,-0.00220642,-0.00225502,0
 .00150110,0.00069031,-0.00084319,-0.00010684,-0.00013693,0.00106393,0.
 00057263,-0.00024293,-0.00023842,-0.00021960,0.00011459,-0.00003466,-0
 .00000263,-0.00023419,0.00013940,-0.00006085,-0.00003126,-0.00003919,-
 0.00004132,0.00008137,0.00001542,0.00002153,-0.00018923,0.00013581,-0.
 00031089,-0.00005292,-0.00007652,0.00006549,-0.00001793,0.00020877,0.0
 0086521,0.00000108,-0.00001381,0.00002054,0.00007302,0.00000685,-0.000
 01156,0.00000190,0.00000754,0.00000097,-0.00000763,-0.00000491,-0.0000
 0527,-0.00000291,-0.00000536,0.00005098,0.00006526,-0.00003937,0.00005
 105,0.00003968,-0.00000054,0.00001655,-0.00000638,0.00001924,-0.000006
 32,0.00006022,0.00006575,0.00004562,0.00005052,0.00006674,0.00002265,-
 0.00001543,0.00000601,0.00000463,-0.00000485,-0.00000101,-0.00000704,-
 0.00001337,0.00011435,0.00004560,0.00000027,-0.00000985,-0.00001681,-0
 .00001135,-0.00000687,0.00000231,0.00093940,-0.00017729,-0.00108840,0.
 00004980,0.00012331,-0.00020046,-0.00005700,-0.00025488,0.00052677,-0.
 00033995,0.00010803,-0.00095154,-0.00002463,-0.00002154,0.00001091,-0.
 00000676,0.00002210,-0.00007098,-0.00001489,-0.00000504,-0.00000971,-0
 .00000297,0.00000886,-0.00002169,-0.00000437,0.00000211,-0.00001423,-0
 .00001006,-0.00000710,0.00000096,0.00001611,0.00000810,-0.00000589,0.0
 0002393,0.00003080,-0.00003995,-0.00000009,0.00000010,-0.00000095,-0.0
 0000982,-0.00001030,0.00001110,-0.00000911,-0.00001456,0.00004095,-0.0
 0000081,-0.00000116,-0.00000317,0.03430600,0.01393447,-0.00982727,-0.0
 1830218,-0.00840419,-0.04908572,-0.01937421,-0.01924299,0.00266741,-0.
 00726339,-0.00159082,-0.00654162,0.00008049,-0.00005099,0.00016022,0.0
 0047707,0.00085072,0.00089022,0.00080815,-0.00048171,0.00062382,-0.000
 04084,0.00094448,0.00014547,0.00426051,0.00441408,0.00172201,0.0056563
 6,0.01106590,0.05894576,-0.00007327,-0.00000423,-0.00005436,0.00010256
 ,-0.00001541,0.00026142,-0.00004224,0.00005726,-0.00000723,0.00000866,
 -0.00005968,-0.00003084,0.00001324,0.00002019,0.00000494,-0.00000532,0
 .00000477,0.00000185,0.00003482,-0.00000883,-0.00000773,0.00000235,0.0
 0000532,0.00000362,-0.00001023,-0.00000192,-0.00000182,0.00000643,-0.0
 0001472,0.00001563,0.00000790,-0.00000539,-0.00000562,-0.00002909,0.00
 000175,-0.00002788,-0.00000330,0.00000160,-0.00000159,-0.00000365,-0.0
 0000125,0.00000358,-0.00000020,-0.00000080,0.,0.00000085,0.00000084,0.
 00000101,-0.00000008,0.00000189,-0.00000412,-0.00000308,0.00000325,-0.
 00000227,-0.00000194,0.00000034,-0.00000205,-0.00000125,0.00000046,0.0
 0000089,-0.00000270,-0.00000366,-0.00000335,-0.00000196,-0.00000233,0.
 00000033,0.00000043,-0.00000018,-0.00000053,0.00000051,-0.00000004,0.0
 0000031,-0.00000026,-0.00000808,-0.00000347,0.00000013,0.00000092,0.00
 000113,0.00000113,0.00000052,-0.00000064,-0.00000342,0.00000211,0.0000
 0952,-0.00021984,-0.00018618,-0.00002196,0.00089024,0.00059155,-0.0004
 5951,-0.00053205,0.00013180,-0.00085383,0.00430121,0.00873909,-0.02277
 027,-0.00112518,-0.00434807,-0.00364793,-0.05405438,-0.00952205,0.0008
 9608,-0.00120177,-0.00023712,-0.00012308,0.00362279,-0.00874489,0.0232
 4481,-0.00121106,-0.00563654,-0.00022099,-0.00018743,0.00049752,0.0001
 8139,0.00088195,0.00002530,0.00090552,-0.00035317,0.00249383,0.0002725
 4,-0.00020361,-0.00013889,-0.00012645,-0.00049445,-0.00036036,0.000382
 74,-0.00000897,0.00001035,0.00010054,0.00004754,0.00002940,-0.00005551
 ,-0.00002024,0.00000916,0.00001543,0.00000628,-0.00000324,0.00000062,0
 .00000075,-0.00000050,-0.00000791,0.00007609,0.00000978,0.00007810,-0.
 00000043,0.00000027,0.00000055,-0.00000042,-0.00000022,-0.00000329,-0.
 00000001,0.00000094,0.00000360,0.00000149,-0.00000203,-0.00000218,0.00
 000427,-0.00000001,-0.00000363,0.05012933,-0.00000257,-0.00000344,0.00
 000087,0.00001715,-0.00000165,0.00003351,-0.00000252,0.00000308,-0.000
 00045,0.00000267,-0.00001421,-0.00000742,0.00000226,0.00000422,0.,-0.0
 0000211,0.00000063,-0.00000103,0.00000031,-0.00000035,-0.00000025,0.00
 000002,0.00000111,-0.00000001,-0.00000017,-0.00000101,-0.00000024,0.00
 000038,-0.00000070,0.00000222,0.00000119,-0.00000089,-0.00000051,-0.00
 000686,-0.00000134,-0.00000765,0.00000020,-0.00000019,0.00000020,-0.00
 000005,0.00000040,0.00000014,-0.00000012,-0.00000055,0.,0.00000013,0.,
 -0.00000001,0.,0.00000017,-0.00000028,-0.00000009,0.00000030,-0.000000
 24,-0.00000041,0.00000029,-0.00000025,-0.00000023,0.00000019,0.0000000
 6,-0.00000035,-0.00000089,-0.00000006,-0.00000072,-0.00000064,-0.00000
 003,0.00000018,0.00000011,-0.00000005,0.00000028,-0.00000042,0.0000002
 6,0.00000085,-0.00000119,0.00000028,-0.00000014,0.00000013,0.,-0.00000
 001,0.00000053,0.00000012,-0.00000145,0.00000053,0.00000227,-0.0000175
 0,0.00004775,0.00006471,0.00000924,0.00035943,-0.00028973,-0.00001619,
 -0.00016132,-0.00027723,-0.00043156,0.00666266,-0.00831958,-0.00413218
 ,0.00483330,0.00044986,-0.00954391,-0.08334649,0.10056663,-0.00023100,
 -0.00073122,-0.00051128,0.00044212,-0.00250550,0.01782132,-0.00584046,
 0.00311399,0.00196204,0.00049550,-0.00065529,-0.00021985,0.00064946,0.
 00048022,0.00071206,0.00228344,-0.00232498,-0.00149833,-0.00030108,-0.
 00008722,-0.00006868,-0.00031001,-0.00045721,0.00027837,0.00005151,-0.
 00006254,0.00004099,0.00001016,0.00000414,-0.00000978,-0.00000413,0.00
 000274,0.00000327,0.00000077,-0.00000063,-0.00000038,0.00000084,-0.000
 00018,-0.00000117,-0.00000229,0.00000707,0.00000066,0.00000009,-0.0000
 0005,0.00000025,-0.00000002,-0.00000001,-0.00000058,-0.00000015,0.0000
 0027,0.00000042,0.00000025,-0.00000092,-0.00000082,0.00000085,0.000000
 18,-0.00000094,0.01462022,0.07738617,-0.00011244,-0.00000291,-0.000101
 21,0.00013931,-0.00002529,0.00036805,-0.00005110,0.00006813,-0.0000135
 1,0.00001180,-0.00008322,-0.00004713,0.00001693,0.00002952,0.00000640,
 -0.00000786,0.00000720,0.00000159,0.00005327,-0.00001260,-0.00001164,0
 .00000353,0.00000881,0.00000602,-0.00001545,-0.00000394,-0.00000369,0.
 00000849,-0.00001938,0.00002071,0.00000932,-0.00000539,-0.00000618,-0.
 00003305,0.00000094,-0.00003634,-0.00000536,0.00000242,-0.00000210,-0.
 00000441,-0.00000125,0.00000525,-0.00000041,-0.00000158,0.00000006,0.0
 0000105,0.00000106,0.00000118,-0.00000011,0.00000249,-0.00000506,-0.00
 000374,0.00000404,-0.00000259,-0.00000244,0.00000036,-0.00000294,-0.00
 000134,0.00000042,0.00000126,-0.00000369,-0.00000551,-0.00000449,-0.00
 000284,-0.00000286,0.00000058,0.00000078,-0.00000026,-0.00000080,0.000
 00073,-0.00000032,0.00000066,0.00000046,-0.00001136,-0.00000448,-0.000
 00009,0.00000137,0.00000156,0.00000181,0.00000136,-0.00000050,-0.00000
 523,0.00000297,0.00001280,-0.00048277,-0.00022655,-0.00013584,0.001094
 34,0.00071415,0.00023453,-0.00044407,-0.00001522,-0.00100461,0.0019765
 5,0.00767055,-0.01339970,-0.00421087,0.00008699,0.00008718,0.00096450,
 0.10063209,-0.30989475,-0.00014441,-0.00052461,0.00039086,-0.00152446,
 0.00178075,-0.00366168,0.00032795,0.00231942,0.00194112,0.00018631,-0.
 00021706,-0.00014970,-0.00077562,-0.00037525,-0.00001591,0.00084326,-0
 .00112886,0.00016120,0.00030914,0.00021354,0.00004753,0.00024099,0.000
 18516,-0.00023482,-0.00001370,-0.00003360,-0.00001512,0.00005946,0.000
 03539,-0.00007539,-0.00002731,0.00001346,0.00002152,0.00000838,-0.0000
 0393,0.00000112,0.00000088,-0.00000133,-0.00001106,0.00012919,0.000020
 77,0.00014679,-0.00000040,0.00000025,0.00000081,-0.00000046,-0.0000003
 1,-0.00000448,-0.00000018,0.00000147,0.00000502,0.00000197,-0.00000310
 ,-0.00000297,0.00000541,0.00000006,-0.00000422,0.00062435,-0.10988512,
 0.32495004,0.00007371,-0.00000640,0.00006709,-0.00004875,-0.00002071,-
 0.00018304,0.00002440,-0.00003444,0.00001085,-0.00001016,0.00004442,0.
 00001651,-0.00000732,-0.00001360,-0.00000248,0.00000536,-0.00000255,0.
 00000170,-0.00002710,0.00000517,0.00000680,-0.00000183,-0.00000580,-0.
 00000339,0.00000808,0.00000290,0.00000293,-0.00000440,0.00001082,-0.00
 001076,-0.00000380,0.00000229,0.00000312,0.00001243,0.,0.00001795,0.00
 000320,-0.00000094,0.00000114,0.00000085,0.00000064,-0.00000250,0.0000
 0034,0.00000105,-0.00000026,-0.00000023,-0.00000061,-0.00000025,-0.000
 00004,-0.00000138,0.00000281,0.00000177,-0.00000168,0.00000110,0.00000
 096,0.00000002,0.00000156,0.00000032,-0.00000024,-0.00000079,0.0000014
 4,0.00000253,0.00000141,0.00000177,0.00000121,0.00000020,-0.00000064,0
 .00000002,0.00000029,-0.00000091,0.00000092,-0.00000033,-0.00000158,0.
 00000434,0.00000068,0.00000026,-0.00000053,-0.00000049,-0.00000105,-0.
 00000110,-0.00000022,0.00000342,-0.00000216,-0.00000627,-0.00020909,0.
 00036498,-0.00188744,-0.00242614,0.00104410,0.00035159,0.00036685,-0.0
 0014414,0.00051434,-0.21731032,-0.13563201,0.06136905,0.00398996,-0.00
 101621,0.00030962,-0.01014009,-0.01312605,0.00751785,0.00255304,-0.001
 95640,-0.00147607,0.00004388,-0.00348681,-0.00416655,0.00005507,0.0006
 9575,-0.00062558,0.00017877,0.00009276,-0.00013591,-0.00052050,0.00039
 034,0.00016017,-0.00061900,-0.00028764,0.00052728,0.00007084,-0.000083
 11,0.00010226,0.00002872,-0.00005339,0.00000672,-0.00000641,0.00000727
 ,0.00000988,-0.00002620,-0.00001499,0.00003982,0.00001415,-0.00000688,
 -0.00001164,-0.00000380,0.00000242,-0.00000035,-0.00000124,0.00000073,
 0.00000501,-0.00007742,0.00002287,-0.00009416,0.00000006,-0.00000003,-
 0.00000059,0.00000037,0.00000002,0.00000230,0.00000017,-0.00000084,-0.
 00000207,-0.00000117,0.00000203,0.00000183,-0.00000280,-0.00000033,0.0
 0000212,-0.00034594,0.00225820,0.00085361,0.22435773,-0.00006952,0.000
 01814,-0.00008832,-0.00005317,0.00002498,0.00006190,0.00000022,0.00000
 452,-0.00001167,0.00000906,-0.00001304,0.00000100,0.00000173,0.0000038
 7,0.00000143,-0.00000203,0.00000077,-0.00000253,0.00002182,-0.00000203
 ,-0.00000990,0.00000076,0.00000646,0.00000324,-0.00000623,-0.00000390,
 -0.00000293,0.00000191,-0.00000389,0.00000439,-0.00000102,0.00000101,0
 .00000060,0.00000742,-0.00000118,-0.00000137,-0.00000350,0.00000067,0.
 00000003,0.00000029,0.00000108,0.00000152,-0.00000044,-0.00000168,-0.0
 0000013,-0.00000026,-0.00000017,-0.00000022,0.,0.00000062,-0.00000130,
 -0.00000017,-0.00000002,0.00000002,0.00000039,-0.00000053,-0.00000076,
 0.00000072,-0.00000001,0.00000065,0.,-0.00000064,0.00000031,-0.0000009
 6,0.00000079,-0.00000014,0.00000026,-0.00000004,0.00000005,0.00000066,
 -0.00000074,0.00000008,0.00000103,-0.00000075,0.00000108,-0.00000017,0
 .00000005,-0.00000014,0.00000087,0.00000175,0.00000035,-0.00000189,0.0
 0000133,0.00000128,-0.00008469,0.00077459,-0.00150523,0.00020931,-0.00
 374169,-0.00103489,0.00014814,0.00038958,0.00003230,-0.13520303,-0.150
 69992,0.05422127,-0.00916009,-0.00173526,0.00319087,-0.00442130,0.0017
 9521,0.00315404,-0.00187967,0.00401401,0.00322006,-0.00337724,0.005343
 19,0.00076017,0.00066841,-0.00013401,-0.00026327,-0.00038266,-0.000138
 52,-0.00000236,0.00044941,-0.00082482,-0.00026626,0.00013611,-0.000402
 40,0.00004551,-0.00008432,0.00006651,0.00005084,-0.00008703,0.00004130
 ,0.00002574,0.00000701,-0.00001216,-0.00001693,0.00001068,0.00000307,-
 0.00000991,-0.00000351,0.00000225,0.00000240,0.00000060,-0.00000056,-0
 .00000040,0.00000124,-0.00000062,-0.00000046,0.00015466,-0.00000090,0.
 00011851,0.00000020,-0.00000015,0.00000041,-0.00000017,0.00000003,-0.0
 0000059,-0.00000007,0.00000038,-0.00000002,0.00000039,-0.00000102,-0.0
 0000076,0.00000043,0.00000041,-0.00000072,0.00204622,-0.00254859,-0.00
 121433,0.15094319,0.14777265,0.00032530,-0.00004904,0.00041983,-0.0000
 8371,0.00010636,-0.00045061,0.00005376,-0.00008834,0.00001863,-0.00001
 991,0.00008134,0.00006058,-0.00001580,-0.00003117,-0.00001181,0.000006
 83,-0.00001010,-0.00000459,-0.00013420,0.00002950,0.00004431,-0.000005
 75,-0.00002142,-0.00001663,0.00003850,0.00000809,0.00001019,-0.0000100
 7,0.00002419,-0.00002450,-0.00001028,0.00000703,0.00000577,0.00002318,
 -0.00000606,0.00004030,0.00001842,-0.00000655,0.00000428,0.00000712,0.
 00000304,-0.00001365,0.00000016,0.00000203,-0.00000029,-0.00000119,-0.
 00000200,-0.00000219,-0.00000012,-0.00000366,0.00000702,0.00000468,-0.
 00000496,0.00000273,0.00000246,-0.00000067,0.00000389,0.00000017,0.000
 00012,-0.00000223,0.00000403,0.00000508,0.00000637,0.00000168,-0.00000
 126,-0.00000117,-0.00000158,0.00000082,0.00000230,0.00000025,0.0000000
 4,-0.00000099,-0.00000019,0.00001360,0.00000766,0.00000028,-0.00000192
 ,-0.00000255,-0.00000447,-0.00000208,0.00000133,0.00000853,-0.00000413
 ,-0.00001571,-0.00080566,-0.00080935,0.00099594,0.00258891,0.00047412,
 -0.00092670,-0.00024864,-0.00050269,0.00121935,0.06026224,0.05352246,-
 0.08176492,0.02232758,0.01739727,-0.00261241,-0.01595328,-0.01204474,0
 .01043203,-0.00170562,0.00308738,-0.00484116,-0.00444289,0.00059182,-0
 .00152224,-0.00052865,-0.00021358,-0.00102424,0.00115469,0.00082550,-0
 .00012086,0.00000061,-0.00037019,-0.00021874,-0.00061997,-0.00069654,0
 .00032267,0.00010045,0.00005027,0.00018099,0.00009912,0.00008672,0.000
 04765,0.00001000,-0.00001656,0.00003956,-0.00007476,-0.00004786,0.0000
 9292,0.00003095,-0.00001430,-0.00002433,-0.00000850,0.00000604,-0.0000
 0018,-0.00000345,-0.00000050,0.00001341,-0.00052506,-0.00007208,-0.000
 56180,0.00000057,-0.00000043,-0.00000079,0.00000033,0.00000035,0.00000
 496,0.00000045,-0.00000096,-0.00000623,-0.00000169,0.00000347,0.000003
 18,-0.00000687,-0.00000040,0.00000578,0.00143953,-0.00083859,0.0004390
 7,-0.06329847,-0.06046450,0.07973880\\0.00004403,0.00001077,0.00006423
 ,0.00001914,0.00000589,0.00001201,0.00000264,0.00000113,-0.00000214,0.
 00000099,0.00000535,0.00000297,0.00000050,-0.00000217,-0.00000391,0.00
 000373,0.00000285,-0.00000295,-0.00001469,-0.00000811,0.00000761,-0.00
 000184,-0.00000417,-0.00000109,0.00000301,-0.00000286,-0.00000013,-0.0
 0000172,-0.00000271,0.00000028,0.00000124,0.00000305,-0.00000334,0.000
 00657,-0.00002450,0.00000575,0.00000217,-0.00000234,-0.00000188,0.0000
 0118,0.00000160,-0.00000217,0.00000142,-0.00000194,-0.00000128,0.00000
 056,-0.00000206,0.00000027,-0.00000113,-0.00000008,0.00000143,-0.00000
 191,-0.00000164,0.00000098,0.00000017,0.00000001,0.00000025,0.00000001
 ,-0.00000226,-0.00000117,0.00000182,-0.00000111,-0.00000042,0.00000128
 ,-0.00000084,-0.00000151,0.00000074,0.00000422,-0.00000329,0.00000127,
 0.00000102,-0.00000056,0.00000167,0.00000088,-0.00000215,0.00000224,0.
 00000133,-0.00000180,0.00000014,-0.00000273,-0.00000041,-0.00000696,0.
 00003829,-0.00000286,-0.00003592,-0.00000174,-0.00002503,-0.00000121,-
 0.00005170,-0.00000836,-0.00002409,0.00002864,-0.00001119,0.00001756,0
 .00000167,0.00002867,0.00003174,0.00003694,-0.00002914,-0.00005035,-0.
 00003556,-0.00000432,-0.00006042,-0.00002693,-0.00002114,0.00000657,0.
 00001321,-0.00000882,0.00002702,0.00001183,0.00010691,0.00000078,-0.00
 000833,0.00002965,0.00004077,-0.00006313,-0.00006966,-0.00000224,-0.00
 000350,0.00000512,-0.00002393,0.00003594,-0.00001544,0.00004881,0.0000
 6187,0.00002030,-0.00002428,-0.00000805,-0.00000719,0.00000022,-0.0000
 1461,0.00000337,-0.00000427,0.00001140,-0.00000330,-0.00000726,0.00000
 605,0.00000681,-0.00001192,-0.00001824,0.00001661,-0.00000962,-0.00000
 271,-0.00004918,0.00000005,0.00000146,0.00000184,-0.00000052,0.0000014
 7,0.00000084,0.00001079,-0.00000383,-0.00000790,-0.00000098,0.00000110
 ,0.00000037,0.00000147,0.00000154,0.00000152,0.00000763,0.00000662,-0.
 00000738,-0.00000466,0.00000173,-0.00001667\\\@


 IF AT FIRST YOU DON'T SUCCEED, TRY, TRY AGAIN.
 THEN GIVE UP;
 THERE'S NO USE BEING A DAMN FOOL ABOUT IT.

                                 -- W. C. FIELDS
 Job cpu time:       3 days  8 hours 50 minutes  7.5 seconds.
 Elapsed time:       0 days  2 hours 15 minutes 10.2 seconds.
 File lengths (MBytes):  RWF=   5555 Int=      0 D2E=      0 Chk=    112 Scr=      1
 Normal termination of Gaussian 16 at Tue Sep  3 15:29:06 2019.
