 Entering Gaussian System, Link 0=g16
 Initial command:
 /nopt/nrel/apps/gaussian/g16B/g16/l1.exe "/dev/shm/Gau-115055.inp" -scrdir="/dev/shm/"
 Default is to use a total of  36 processors:
                               36 via shared-memory
                                1 via Linda
 Entering Link 1 = /nopt/nrel/apps/gaussian/g16B/g16/l1.exe PID=    115056.
  
 Copyright (c) 1988-2017, Gaussian, Inc.  All Rights Reserved.
  
... 
 ******************************************
 Gaussian 16:  ES64L-G16RevB.01 20-Dec-2017
                 3-Sep-2019 
 ******************************************
 %RWF=/dev/shm/,5GB,/tmp/scratch/1305836/,-1
 %NoSave
 %Chk=/dev/shm/tieg5ipatse_ts_noeg_reactc.chk
 Default route: CacheSize=180224 MaxDisk=256GB
 ----------------------------------------------------------------------
 # m062x/Def2TZVP nosymm scf=xqc opt freq=noraman CPHF=Grid=Fine SCRF=(
 Solvent=1,2-EthaneDiol,Read)
 ----------------------------------------------------------------------
 1/4=180224,18=20,19=15,26=3,38=1,40=2/1,3;
 2/4=180224,9=110,12=2,15=1,17=6,18=5,40=1/2;
 3/4=180224,5=44,7=101,11=2,25=1,30=1,70=2203,71=1,72=30,74=-55/1,2,3;
 4/4=180224/1;
 5/4=180224,5=2,8=3,13=1,38=5,53=30/2,8;
 6/4=180224,7=2,8=2,9=2,10=2,28=1/1;
 7/4=180224,30=1/1,2,3,16;
 1/4=180224,18=20,19=15,26=3/3(2);
 2/4=180224,9=110,15=1/2;
 99/4=180224/99;
 2/4=180224,9=110,15=1/2;
 3/4=180224,5=44,7=101,11=2,25=1,30=1,70=2205,71=1,72=30,74=-55/1,2,3;
 4/4=180224,5=5,16=3,69=1/1;
 5/4=180224,5=2,8=3,13=1,38=5,53=30/2,8;
 7/4=180224,30=1/1,2,3,16;
 1/4=180224,18=20,19=15,26=3/3(-5);
 2/4=180224,9=110,15=1/2;
 6/4=180224,7=2,8=2,9=2,10=2,19=2,28=1/1;
 99/4=180224,9=1/99;
 ----------------------------------------------------------
 Last conformation from file tieg5ipatse_ts_noeg_reactc.log
 ----------------------------------------------------------
 Symbolic Z-matrix:
 Charge =  0 Multiplicity = 1
 O                     1.79762   1.22824   0.01284 
 Ti                    0.3242    0.08327   1.16206 
 O                     1.45029  -1.38712   0.87642 
 O                    -0.17764   1.74062   1.78052 
 C                     0.45121   2.91241   2.19993 
 C                    -0.59333   3.97933   2.49004 
 C                     3.19692   0.9881   -0.08521 
 C                     3.9141    1.89019   0.90359 
 O                     5.28752   1.55985   0.99352 
 C                     2.04371  -2.00461   1.98507 
 C                     2.66379  -0.90375   2.83294 
 O                     1.74911   0.20227   2.79657 
 H                     3.40246  -0.0601    0.13941 
 H                     3.52974   1.19577  -1.10458 
 H                     3.77018   2.93792   0.6233 
 H                     3.48431   1.74566   1.89578 
 H                     1.2835   -2.53799   2.56997 
 H                     2.80708  -2.72218   1.67156 
 H                     2.84076  -1.21143   3.8631 
 H                     3.60077  -0.55252   2.39925 
 H                     1.04217   2.72729   3.10865 
 H                     1.14348   3.27551   1.43202 
 H                    -1.30127   3.60676   3.23801 
 H                    -1.15141   4.19975   1.57965 
 O                     0.00419   5.19468   2.9057 
 H                     0.42288   5.0544    3.76127 
 H                     5.72124   1.80296   0.16897 
 H                     1.18806   0.24839   3.61298 
 O                     0.33239   1.27086  -2.0974 
 C                    -0.56754   0.51374  -1.72759 
 O                    -0.64085  -0.00027  -0.55001 
 C                    -2.6928   -0.71161  -2.26526 
 C                    -1.66619   0.13714  -2.67087 
 C                    -3.70451  -1.05331  -3.15065 
 C                    -1.65497   0.6431   -3.96297 
 C                    -3.69528  -0.54936  -4.44278 
 C                    -2.6683    0.30046  -4.84829 
 H                    -0.85918   1.30266  -4.28048 
 C                    -2.61774   0.86509  -6.22355 
 H                    -4.48097  -0.81216  -5.13721 
 O                    -1.75404   1.60412  -6.62313 
 O                    -3.63921   0.46894  -6.9903 
 H                    -3.53644   0.87539  -7.86421 
 O                    -0.88002  -0.81772   2.17911 
 C                    -1.75842  -0.46291   3.20932 
 C                    -1.09428  -0.5981    4.56341 
 O                    -0.03669   0.34929   4.744 
 H                     1.36994   1.3568   -0.88213 
 H                    -0.63201  -1.58077   4.65563 
 H                    -1.83472  -0.47903   5.3572 
 H                    -0.41293   1.23823   4.74092 
 H                    -2.10119   0.57077   3.07499 
 H                    -2.63232  -1.12089   3.1835 
 H                    -4.50096  -1.71278  -2.83424 
 H                    -2.69017  -1.09879  -1.25549 
 

 GradGradGradGradGradGradGradGradGradGradGradGradGradGradGradGradGradGrad
 Berny optimization.
 Initialization pass.
                           ----------------------------
                           !    Initial Parameters    !
                           ! (Angstroms and Degrees)  !
 --------------------------                            --------------------------
 ! Name  Definition              Value          Derivative Info.                !
 --------------------------------------------------------------------------------
 ! R1    R(1,2)                  2.1915         estimate D2E/DX2                !
 ! R2    R(1,7)                  1.4231         estimate D2E/DX2                !
 ! R3    R(1,48)                 1.0002         estimate D2E/DX2                !
 ! R4    R(2,3)                  1.8739         estimate D2E/DX2                !
 ! R5    R(2,4)                  1.8388         estimate D2E/DX2                !
 ! R6    R(2,12)                 2.1717         estimate D2E/DX2                !
 ! R7    R(2,31)                 1.9671         estimate D2E/DX2                !
 ! R8    R(2,44)                 1.8156         estimate D2E/DX2                !
 ! R9    R(3,10)                 1.4009         estimate D2E/DX2                !
 ! R10   R(4,5)                  1.3944         estimate D2E/DX2                !
 ! R11   R(5,6)                  1.521          estimate D2E/DX2                !
 ! R12   R(5,21)                 1.0997         estimate D2E/DX2                !
 ! R13   R(5,22)                 1.0958         estimate D2E/DX2                !
 ! R14   R(6,23)                 1.0952         estimate D2E/DX2                !
 ! R15   R(6,24)                 1.0903         estimate D2E/DX2                !
 ! R16   R(6,25)                 1.4166         estimate D2E/DX2                !
 ! R17   R(7,8)                  1.5185         estimate D2E/DX2                !
 ! R18   R(7,13)                 1.0915         estimate D2E/DX2                !
 ! R19   R(7,14)                 1.0922         estimate D2E/DX2                !
 ! R20   R(8,9)                  1.4154         estimate D2E/DX2                !
 ! R21   R(8,15)                 1.0941         estimate D2E/DX2                !
 ! R22   R(8,16)                 1.0909         estimate D2E/DX2                !
 ! R23   R(9,27)                 0.9629         estimate D2E/DX2                !
 ! R24   R(10,11)                1.5216         estimate D2E/DX2                !
 ! R25   R(10,17)                1.0975         estimate D2E/DX2                !
 ! R26   R(10,18)                1.0936         estimate D2E/DX2                !
 ! R27   R(11,12)                1.4357         estimate D2E/DX2                !
 ! R28   R(11,19)                1.0896         estimate D2E/DX2                !
 ! R29   R(11,20)                1.0906         estimate D2E/DX2                !
 ! R30   R(12,28)                0.9917         estimate D2E/DX2                !
 ! R31   R(25,26)                0.9628         estimate D2E/DX2                !
 ! R32   R(29,30)                1.2328         estimate D2E/DX2                !
 ! R33   R(30,31)                1.287          estimate D2E/DX2                !
 ! R34   R(30,33)                1.4962         estimate D2E/DX2                !
 ! R35   R(32,33)                1.3924         estimate D2E/DX2                !
 ! R36   R(32,34)                1.3872         estimate D2E/DX2                !
 ! R37   R(32,55)                1.0815         estimate D2E/DX2                !
 ! R38   R(33,35)                1.3877         estimate D2E/DX2                !
 ! R39   R(34,36)                1.387          estimate D2E/DX2                !
 ! R40   R(34,54)                1.0814         estimate D2E/DX2                !
 ! R41   R(35,37)                1.3885         estimate D2E/DX2                !
 ! R42   R(35,38)                1.0813         estimate D2E/DX2                !
 ! R43   R(36,37)                1.3933         estimate D2E/DX2                !
 ! R44   R(36,40)                1.081          estimate D2E/DX2                !
 ! R45   R(37,39)                1.4875         estimate D2E/DX2                !
 ! R46   R(39,41)                1.2049         estimate D2E/DX2                !
 ! R47   R(39,42)                1.3372         estimate D2E/DX2                !
 ! R48   R(42,43)                0.9693         estimate D2E/DX2                !
 ! R49   R(44,45)                1.3996         estimate D2E/DX2                !
 ! R50   R(45,46)                1.5142         estimate D2E/DX2                !
 ! R51   R(45,52)                1.0973         estimate D2E/DX2                !
 ! R52   R(45,53)                1.0942         estimate D2E/DX2                !
 ! R53   R(46,47)                1.4313         estimate D2E/DX2                !
 ! R54   R(46,49)                1.0899         estimate D2E/DX2                !
 ! R55   R(46,50)                1.092          estimate D2E/DX2                !
 ! R56   R(47,51)                0.9653         estimate D2E/DX2                !
 ! A1    A(2,1,7)              127.5209         estimate D2E/DX2                !
 ! A2    A(2,1,48)             104.412          estimate D2E/DX2                !
 ! A3    A(7,1,48)             112.363          estimate D2E/DX2                !
 ! A4    A(1,2,3)               85.7562         estimate D2E/DX2                !
 ! A5    A(1,2,4)               83.6249         estimate D2E/DX2                !
 ! A6    A(1,2,12)              85.6941         estimate D2E/DX2                !
 ! A7    A(1,2,31)              84.0087         estimate D2E/DX2                !
 ! A8    A(3,2,4)              157.2929         estimate D2E/DX2                !
 ! A9    A(3,2,12)              76.3165         estimate D2E/DX2                !
 ! A10   A(3,2,31)              97.4013         estimate D2E/DX2                !
 ! A11   A(3,2,44)              95.4266         estimate D2E/DX2                !
 ! A12   A(4,2,12)              82.9077         estimate D2E/DX2                !
 ! A13   A(4,2,31)             101.3687         estimate D2E/DX2                !
 ! A14   A(4,2,44)              94.4652         estimate D2E/DX2                !
 ! A15   A(12,2,44)             92.3362         estimate D2E/DX2                !
 ! A16   A(31,2,44)             98.1105         estimate D2E/DX2                !
 ! A17   A(2,3,10)             118.6707         estimate D2E/DX2                !
 ! A18   A(2,4,5)              137.3496         estimate D2E/DX2                !
 ! A19   A(4,5,6)              109.7018         estimate D2E/DX2                !
 ! A20   A(4,5,21)             110.4526         estimate D2E/DX2                !
 ! A21   A(4,5,22)             110.6448         estimate D2E/DX2                !
 ! A22   A(6,5,21)             109.2396         estimate D2E/DX2                !
 ! A23   A(6,5,22)             109.5768         estimate D2E/DX2                !
 ! A24   A(21,5,22)            107.1799         estimate D2E/DX2                !
 ! A25   A(5,6,23)             109.6055         estimate D2E/DX2                !
 ! A26   A(5,6,24)             109.5148         estimate D2E/DX2                !
 ! A27   A(5,6,25)             111.5976         estimate D2E/DX2                !
 ! A28   A(23,6,24)            107.9477         estimate D2E/DX2                !
 ! A29   A(23,6,25)            111.3524         estimate D2E/DX2                !
 ! A30   A(24,6,25)            106.7052         estimate D2E/DX2                !
 ! A31   A(1,7,8)              108.6193         estimate D2E/DX2                !
 ! A32   A(1,7,13)             109.4518         estimate D2E/DX2                !
 ! A33   A(1,7,14)             109.38           estimate D2E/DX2                !
 ! A34   A(8,7,13)             110.3374         estimate D2E/DX2                !
 ! A35   A(8,7,14)             110.5401         estimate D2E/DX2                !
 ! A36   A(13,7,14)            108.4967         estimate D2E/DX2                !
 ! A37   A(7,8,9)              111.1613         estimate D2E/DX2                !
 ! A38   A(7,8,15)             109.8736         estimate D2E/DX2                !
 ! A39   A(7,8,16)             109.1154         estimate D2E/DX2                !
 ! A40   A(9,8,15)             111.556          estimate D2E/DX2                !
 ! A41   A(9,8,16)             107.072          estimate D2E/DX2                !
 ! A42   A(15,8,16)            107.9426         estimate D2E/DX2                !
 ! A43   A(8,9,27)             108.889          estimate D2E/DX2                !
 ! A44   A(3,10,11)            107.1397         estimate D2E/DX2                !
 ! A45   A(3,10,17)            110.0322         estimate D2E/DX2                !
 ! A46   A(3,10,18)            110.9802         estimate D2E/DX2                !
 ! A47   A(11,10,17)           109.6891         estimate D2E/DX2                !
 ! A48   A(11,10,18)           110.4874         estimate D2E/DX2                !
 ! A49   A(17,10,18)           108.5065         estimate D2E/DX2                !
 ! A50   A(10,11,12)           106.4757         estimate D2E/DX2                !
 ! A51   A(10,11,19)           112.8748         estimate D2E/DX2                !
 ! A52   A(10,11,20)           111.1945         estimate D2E/DX2                !
 ! A53   A(12,11,19)           110.1792         estimate D2E/DX2                !
 ! A54   A(12,11,20)           106.809          estimate D2E/DX2                !
 ! A55   A(19,11,20)           109.11           estimate D2E/DX2                !
 ! A56   A(2,12,11)            113.2579         estimate D2E/DX2                !
 ! A57   A(2,12,28)            104.5345         estimate D2E/DX2                !
 ! A58   A(11,12,28)           112.0499         estimate D2E/DX2                !
 ! A59   A(6,25,26)            108.6121         estimate D2E/DX2                !
 ! A60   A(29,30,31)           124.1483         estimate D2E/DX2                !
 ! A61   A(29,30,33)           120.0979         estimate D2E/DX2                !
 ! A62   A(31,30,33)           115.7538         estimate D2E/DX2                !
 ! A63   A(2,31,30)            138.7178         estimate D2E/DX2                !
 ! A64   A(33,32,34)           120.1292         estimate D2E/DX2                !
 ! A65   A(33,32,55)           119.2372         estimate D2E/DX2                !
 ! A66   A(34,32,55)           120.6336         estimate D2E/DX2                !
 ! A67   A(30,33,32)           120.7412         estimate D2E/DX2                !
 ! A68   A(30,33,35)           119.2953         estimate D2E/DX2                !
 ! A69   A(32,33,35)           119.9634         estimate D2E/DX2                !
 ! A70   A(32,34,36)           120.0184         estimate D2E/DX2                !
 ! A71   A(32,34,54)           120.0416         estimate D2E/DX2                !
 ! A72   A(36,34,54)           119.94           estimate D2E/DX2                !
 ! A73   A(33,35,37)           119.8548         estimate D2E/DX2                !
 ! A74   A(33,35,38)           120.1188         estimate D2E/DX2                !
 ! A75   A(37,35,38)           120.0264         estimate D2E/DX2                !
 ! A76   A(34,36,37)           119.8455         estimate D2E/DX2                !
 ! A77   A(34,36,40)           120.3511         estimate D2E/DX2                !
 ! A78   A(37,36,40)           119.8034         estimate D2E/DX2                !
 ! A79   A(35,37,36)           120.1887         estimate D2E/DX2                !
 ! A80   A(35,37,39)           118.0997         estimate D2E/DX2                !
 ! A81   A(36,37,39)           121.7116         estimate D2E/DX2                !
 ! A82   A(37,39,41)           124.3174         estimate D2E/DX2                !
 ! A83   A(37,39,42)           113.0603         estimate D2E/DX2                !
 ! A84   A(41,39,42)           122.6223         estimate D2E/DX2                !
 ! A85   A(39,42,43)           108.1648         estimate D2E/DX2                !
 ! A86   A(2,44,45)            134.6536         estimate D2E/DX2                !
 ! A87   A(44,45,46)           111.12           estimate D2E/DX2                !
 ! A88   A(44,45,52)           110.1675         estimate D2E/DX2                !
 ! A89   A(44,45,53)           109.3564         estimate D2E/DX2                !
 ! A90   A(46,45,52)           109.3041         estimate D2E/DX2                !
 ! A91   A(46,45,53)           108.5241         estimate D2E/DX2                !
 ! A92   A(52,45,53)           108.3067         estimate D2E/DX2                !
 ! A93   A(45,46,47)           112.1985         estimate D2E/DX2                !
 ! A94   A(45,46,49)           110.0106         estimate D2E/DX2                !
 ! A95   A(45,46,50)           110.0533         estimate D2E/DX2                !
 ! A96   A(47,46,49)           105.8261         estimate D2E/DX2                !
 ! A97   A(47,46,50)           109.7009         estimate D2E/DX2                !
 ! A98   A(49,46,50)           108.9286         estimate D2E/DX2                !
 ! A99   A(46,47,51)           108.7323         estimate D2E/DX2                !
 ! A100  L(1,2,44,3,-1)        181.1828         estimate D2E/DX2                !
 ! A101  L(12,2,31,1,-1)       169.7028         estimate D2E/DX2                !
 ! A102  L(1,2,44,3,-2)        177.6829         estimate D2E/DX2                !
 ! A103  L(12,2,31,1,-2)       174.4809         estimate D2E/DX2                !
 ! D1    D(7,1,2,3)            -29.4613         estimate D2E/DX2                !
 ! D2    D(7,1,2,4)            130.4351         estimate D2E/DX2                !
 ! D3    D(7,1,2,12)            47.1066         estimate D2E/DX2                !
 ! D4    D(7,1,2,31)          -127.3744         estimate D2E/DX2                !
 ! D5    D(48,1,2,3)           104.3776         estimate D2E/DX2                !
 ! D6    D(48,1,2,4)           -95.7259         estimate D2E/DX2                !
 ! D7    D(48,1,2,12)         -179.0545         estimate D2E/DX2                !
 ! D8    D(48,1,2,31)            6.4646         estimate D2E/DX2                !
 ! D9    D(2,1,7,8)            -97.0297         estimate D2E/DX2                !
 ! D10   D(2,1,7,13)            23.4963         estimate D2E/DX2                !
 ! D11   D(2,1,7,14)           142.2403         estimate D2E/DX2                !
 ! D12   D(48,1,7,8)           132.031          estimate D2E/DX2                !
 ! D13   D(48,1,7,13)         -107.443          estimate D2E/DX2                !
 ! D14   D(48,1,7,14)           11.301          estimate D2E/DX2                !
 ! D15   D(7,1,44,45)          120.4704         estimate D2E/DX2                !
 ! D16   D(48,1,44,45)        -104.5826         estimate D2E/DX2                !
 ! D17   D(1,2,3,10)           116.9084         estimate D2E/DX2                !
 ! D18   D(4,2,3,10)            54.6681         estimate D2E/DX2                !
 ! D19   D(12,2,3,10)           30.315          estimate D2E/DX2                !
 ! D20   D(31,2,3,10)         -159.7057         estimate D2E/DX2                !
 ! D21   D(44,2,3,10)          -60.7745         estimate D2E/DX2                !
 ! D22   D(1,2,4,5)            -41.6852         estimate D2E/DX2                !
 ! D23   D(3,2,4,5)             20.9345         estimate D2E/DX2                !
 ! D24   D(12,2,4,5)            44.747          estimate D2E/DX2                !
 ! D25   D(31,2,4,5)          -124.2391         estimate D2E/DX2                !
 ! D26   D(44,2,4,5)           136.5514         estimate D2E/DX2                !
 ! D27   D(1,2,12,11)          -91.0681         estimate D2E/DX2                !
 ! D28   D(1,2,12,28)          146.6858         estimate D2E/DX2                !
 ! D29   D(3,2,12,11)           -4.3957         estimate D2E/DX2                !
 ! D30   D(3,2,12,28)         -126.6419         estimate D2E/DX2                !
 ! D31   D(4,2,12,11)         -175.1653         estimate D2E/DX2                !
 ! D32   D(4,2,12,28)           62.5886         estimate D2E/DX2                !
 ! D33   D(44,2,12,11)          90.623          estimate D2E/DX2                !
 ! D34   D(44,2,12,28)         -31.6232         estimate D2E/DX2                !
 ! D35   D(11,12,31,30)        -94.3229         estimate D2E/DX2                !
 ! D36   D(28,12,31,30)        141.3            estimate D2E/DX2                !
 ! D37   D(1,2,31,30)           -8.8447         estimate D2E/DX2                !
 ! D38   D(3,2,31,30)          -93.7578         estimate D2E/DX2                !
 ! D39   D(4,2,31,30)           73.3977         estimate D2E/DX2                !
 ! D40   D(44,2,31,30)         169.6477         estimate D2E/DX2                !
 ! D41   D(3,2,44,45)          151.405          estimate D2E/DX2                !
 ! D42   D(4,2,44,45)           -8.1295         estimate D2E/DX2                !
 ! D43   D(12,2,44,45)          74.9344         estimate D2E/DX2                !
 ! D44   D(31,2,44,45)        -110.3015         estimate D2E/DX2                !
 ! D45   D(2,3,10,11)          -49.0844         estimate D2E/DX2                !
 ! D46   D(2,3,10,17)           70.1066         estimate D2E/DX2                !
 ! D47   D(2,3,10,18)         -169.7838         estimate D2E/DX2                !
 ! D48   D(2,4,5,6)            175.4468         estimate D2E/DX2                !
 ! D49   D(2,4,5,21)           -64.0821         estimate D2E/DX2                !
 ! D50   D(2,4,5,22)            54.433          estimate D2E/DX2                !
 ! D51   D(4,5,6,23)            56.8417         estimate D2E/DX2                !
 ! D52   D(4,5,6,24)           -61.4062         estimate D2E/DX2                !
 ! D53   D(4,5,6,25)          -179.33           estimate D2E/DX2                !
 ! D54   D(21,5,6,23)          -64.3627         estimate D2E/DX2                !
 ! D55   D(21,5,6,24)          177.3894         estimate D2E/DX2                !
 ! D56   D(21,5,6,25)           59.4656         estimate D2E/DX2                !
 ! D57   D(22,5,6,23)          178.4978         estimate D2E/DX2                !
 ! D58   D(22,5,6,24)           60.2499         estimate D2E/DX2                !
 ! D59   D(22,5,6,25)          -57.6739         estimate D2E/DX2                !
 ! D60   D(5,6,25,26)          -66.68           estimate D2E/DX2                !
 ! D61   D(23,6,25,26)          56.1563         estimate D2E/DX2                !
 ! D62   D(24,6,25,26)         173.7219         estimate D2E/DX2                !
 ! D63   D(1,7,8,9)            171.3902         estimate D2E/DX2                !
 ! D64   D(1,7,8,15)           -64.6333         estimate D2E/DX2                !
 ! D65   D(1,7,8,16)            53.5289         estimate D2E/DX2                !
 ! D66   D(13,7,8,9)            51.4137         estimate D2E/DX2                !
 ! D67   D(13,7,8,15)          175.3902         estimate D2E/DX2                !
 ! D68   D(13,7,8,16)          -66.4476         estimate D2E/DX2                !
 ! D69   D(14,7,8,9)           -68.5988         estimate D2E/DX2                !
 ! D70   D(14,7,8,15)           55.3777         estimate D2E/DX2                !
 ! D71   D(14,7,8,16)          173.5399         estimate D2E/DX2                !
 ! D72   D(7,8,9,27)            69.3088         estimate D2E/DX2                !
 ! D73   D(15,8,9,27)          -53.7062         estimate D2E/DX2                !
 ! D74   D(16,8,9,27)         -171.599          estimate D2E/DX2                !
 ! D75   D(3,10,11,12)          38.9083         estimate D2E/DX2                !
 ! D76   D(3,10,11,19)         159.9198         estimate D2E/DX2                !
 ! D77   D(3,10,11,20)         -77.076          estimate D2E/DX2                !
 ! D78   D(17,10,11,12)        -80.5036         estimate D2E/DX2                !
 ! D79   D(17,10,11,19)         40.5079         estimate D2E/DX2                !
 ! D80   D(17,10,11,20)        163.5122         estimate D2E/DX2                !
 ! D81   D(18,10,11,12)        159.92           estimate D2E/DX2                !
 ! D82   D(18,10,11,19)        -79.0685         estimate D2E/DX2                !
 ! D83   D(18,10,11,20)         43.9357         estimate D2E/DX2                !
 ! D84   D(10,11,12,2)         -17.8899         estimate D2E/DX2                !
 ! D85   D(10,11,12,28)        100.0667         estimate D2E/DX2                !
 ! D86   D(19,11,12,2)        -140.612          estimate D2E/DX2                !
 ! D87   D(19,11,12,28)        -22.6554         estimate D2E/DX2                !
 ! D88   D(20,11,12,2)         101.0038         estimate D2E/DX2                !
 ! D89   D(20,11,12,28)       -141.0396         estimate D2E/DX2                !
 ! D90   D(29,30,31,2)           3.5738         estimate D2E/DX2                !
 ! D91   D(33,30,31,2)        -176.4968         estimate D2E/DX2                !
 ! D92   D(29,30,33,32)       -179.6777         estimate D2E/DX2                !
 ! D93   D(29,30,33,35)          0.3375         estimate D2E/DX2                !
 ! D94   D(31,30,33,32)          0.3898         estimate D2E/DX2                !
 ! D95   D(31,30,33,35)       -179.595          estimate D2E/DX2                !
 ! D96   D(34,32,33,30)       -179.9484         estimate D2E/DX2                !
 ! D97   D(34,32,33,35)          0.0363         estimate D2E/DX2                !
 ! D98   D(55,32,33,30)          0.0418         estimate D2E/DX2                !
 ! D99   D(55,32,33,35)       -179.9734         estimate D2E/DX2                !
 ! D100  D(33,32,34,36)         -0.011          estimate D2E/DX2                !
 ! D101  D(33,32,34,54)        179.9838         estimate D2E/DX2                !
 ! D102  D(55,32,34,36)        179.9989         estimate D2E/DX2                !
 ! D103  D(55,32,34,54)         -0.0063         estimate D2E/DX2                !
 ! D104  D(30,33,35,37)        179.9552         estimate D2E/DX2                !
 ! D105  D(30,33,35,38)         -0.0364         estimate D2E/DX2                !
 ! D106  D(32,33,35,37)         -0.0298         estimate D2E/DX2                !
 ! D107  D(32,33,35,38)        179.9786         estimate D2E/DX2                !
 ! D108  D(32,34,36,37)         -0.0206         estimate D2E/DX2                !
 ! D109  D(32,34,36,40)        179.996          estimate D2E/DX2                !
 ! D110  D(54,34,36,37)        179.9846         estimate D2E/DX2                !
 ! D111  D(54,34,36,40)          0.0012         estimate D2E/DX2                !
 ! D112  D(33,35,37,36)         -0.0018         estimate D2E/DX2                !
 ! D113  D(33,35,37,39)        179.999          estimate D2E/DX2                !
 ! D114  D(38,35,37,36)        179.9898         estimate D2E/DX2                !
 ! D115  D(38,35,37,39)         -0.0094         estimate D2E/DX2                !
 ! D116  D(34,36,37,35)          0.0271         estimate D2E/DX2                !
 ! D117  D(34,36,37,39)       -179.9737         estimate D2E/DX2                !
 ! D118  D(40,36,37,35)       -179.9894         estimate D2E/DX2                !
 ! D119  D(40,36,37,39)          0.0098         estimate D2E/DX2                !
 ! D120  D(35,37,39,41)         -0.0803         estimate D2E/DX2                !
 ! D121  D(35,37,39,42)        179.9164         estimate D2E/DX2                !
 ! D122  D(36,37,39,41)        179.9205         estimate D2E/DX2                !
 ! D123  D(36,37,39,42)         -0.0828         estimate D2E/DX2                !
 ! D124  D(37,39,42,43)       -179.9909         estimate D2E/DX2                !
 ! D125  D(41,39,42,43)          0.0058         estimate D2E/DX2                !
 ! D126  D(2,44,45,46)         -90.0942         estimate D2E/DX2                !
 ! D127  D(2,44,45,52)          31.1982         estimate D2E/DX2                !
 ! D128  D(2,44,45,53)         150.125          estimate D2E/DX2                !
 ! D129  D(44,45,46,47)         66.8746         estimate D2E/DX2                !
 ! D130  D(44,45,46,49)        -50.6469         estimate D2E/DX2                !
 ! D131  D(44,45,46,50)       -170.6765         estimate D2E/DX2                !
 ! D132  D(52,45,46,47)        -54.9223         estimate D2E/DX2                !
 ! D133  D(52,45,46,49)       -172.4439         estimate D2E/DX2                !
 ! D134  D(52,45,46,50)         67.5266         estimate D2E/DX2                !
 ! D135  D(53,45,46,47)       -172.8505         estimate D2E/DX2                !
 ! D136  D(53,45,46,49)         69.6279         estimate D2E/DX2                !
 ! D137  D(53,45,46,50)        -50.4016         estimate D2E/DX2                !
 ! D138  D(45,46,47,51)         64.509          estimate D2E/DX2                !
 ! D139  D(49,46,47,51)       -175.5029         estimate D2E/DX2                !
 ! D140  D(50,46,47,51)        -58.1395         estimate D2E/DX2                !
 --------------------------------------------------------------------------------
 Trust Radius=3.00D-01 FncErr=1.00D-07 GrdErr=1.00D-06 EigMax=2.50D+02 EigMin=1.00D-04
 Number of steps in this run=    309 maximum allowed number of steps=    330.
 GradGradGradGradGradGradGradGradGradGradGradGradGradGradGradGradGradGrad

 Symmetry turned off by external request.
 Stoichiometry    C16H26O12Ti
 Framework group  C1[X(C16H26O12Ti)]
 Deg. of freedom   159
 Full point group                 C1      NOp   1
                          Input orientation:                          
 ---------------------------------------------------------------------
 Center     Atomic      Atomic             Coordinates (Angstroms)
 Number     Number       Type             X           Y           Z
 ---------------------------------------------------------------------
      1          8           0        1.797621    1.228235    0.012842
      2         22           0        0.324204    0.083266    1.162057
      3          8           0        1.450285   -1.387121    0.876417
      4          8           0       -0.177639    1.740616    1.780522
      5          6           0        0.451207    2.912413    2.199933
      6          6           0       -0.593325    3.979332    2.490036
      7          6           0        3.196920    0.988104   -0.085213
      8          6           0        3.914099    1.890192    0.903592
      9          8           0        5.287517    1.559845    0.993520
     10          6           0        2.043714   -2.004613    1.985067
     11          6           0        2.663794   -0.903754    2.832941
     12          8           0        1.749112    0.202269    2.796573
     13          1           0        3.402464   -0.060095    0.139405
     14          1           0        3.529741    1.195766   -1.104578
     15          1           0        3.770183    2.937920    0.623298
     16          1           0        3.484313    1.745660    1.895776
     17          1           0        1.283499   -2.537988    2.569970
     18          1           0        2.807083   -2.722179    1.671563
     19          1           0        2.840757   -1.211431    3.863097
     20          1           0        3.600769   -0.552520    2.399252
     21          1           0        1.042167    2.727293    3.108650
     22          1           0        1.143482    3.275515    1.432017
     23          1           0       -1.301267    3.606761    3.238010
     24          1           0       -1.151414    4.199751    1.579646
     25          8           0        0.004193    5.194676    2.905699
     26          1           0        0.422877    5.054396    3.761273
     27          1           0        5.721235    1.802961    0.168966
     28          1           0        1.188061    0.248386    3.612982
     29          8           0        0.332393    1.270856   -2.097397
     30          6           0       -0.567537    0.513737   -1.727590
     31          8           0       -0.640847   -0.000274   -0.550006
     32          6           0       -2.692795   -0.711613   -2.265261
     33          6           0       -1.666187    0.137138   -2.670867
     34          6           0       -3.704509   -1.053310   -3.150655
     35          6           0       -1.654965    0.643103   -3.962966
     36          6           0       -3.695284   -0.549356   -4.442778
     37          6           0       -2.668297    0.300459   -4.848292
     38          1           0       -0.859179    1.302663   -4.280484
     39          6           0       -2.617740    0.865088   -6.223553
     40          1           0       -4.480971   -0.812160   -5.137213
     41          8           0       -1.754040    1.604116   -6.623133
     42          8           0       -3.639207    0.468938   -6.990303
     43          1           0       -3.536440    0.875390   -7.864205
     44          8           0       -0.880015   -0.817723    2.179115
     45          6           0       -1.758424   -0.462911    3.209315
     46          6           0       -1.094279   -0.598099    4.563406
     47          8           0       -0.036691    0.349288    4.744002
     48          1           0        1.369935    1.356803   -0.882126
     49          1           0       -0.632014   -1.580769    4.655630
     50          1           0       -1.834719   -0.479025    5.357199
     51          1           0       -0.412934    1.238233    4.740916
     52          1           0       -2.101191    0.570772    3.074987
     53          1           0       -2.632324   -1.120893    3.183496
     54          1           0       -4.500958   -1.712784   -2.834237
     55          1           0       -2.690172   -1.098786   -1.255488
 ---------------------------------------------------------------------
 Rotational constants (GHZ):           0.2128726           0.0750916           0.0710331
 Standard basis: def2TZVP (5D, 7F)
  1069 basis functions,  1738 primitive gaussians,  1216 cartesian basis functions
   120 alpha electrons      120 beta electrons
       nuclear repulsion energy      3568.7247542367 Hartrees.
 NAtoms=   55 NActive=   55 NUniq=   55 SFac= 1.00D+00 NAtFMM=   60 NAOKFM=F Big=F
 Integral buffers will be    131072 words long.
 Raffenetti 2 integral format.
 Two-electron integral symmetry is turned off.
 Using the following non-standard input for PCM:
 PDENS=7.0
 --- end of non-standard input.
 ------------------------------------------------------------------------------
 Polarizable Continuum Model (PCM)
 =================================
 Model                : PCM.
 Atomic radii         : UFF (Universal Force Field).
 Polarization charges : Total charges.
 Charge compensation  : None.
 Solution method      : On-the-fly selection.
 Cavity type          : Scaled VdW (van der Waals Surface) (Alpha=1.100).
 Cavity algorithm     : GePol (No added spheres)
                        Default sphere list used, NSphG=   55.
                        Lebedev-Laikov grids with approx.  7.0 points / Ang**2.
                        Smoothing algorithm: York/Karplus (Gamma=1.0000).
                        Polarization charges: spherical gaussians, with
                                              point-specific exponents (IZeta= 3).
                        Self-potential: point-specific (ISelfS= 7).
                        Self-field    : sphere-specific E.n sum rule (ISelfD= 2).
 1st derivatives      : Analytical E(r).r(x)/FMM algorithm (CHGder, D1EAlg=3).
                        Cavity 1st derivative terms included.
 Solvent              : 1,2-EthaneDiol, Eps=  40.245000 Eps(inf)=   2.050051
 ------------------------------------------------------------------------------
 One-electron integrals computed using PRISM.
   1 Symmetry operations used in ECPInt.
 ECPInt:  NShTT=   91378 NPrTT=  283881 LenC2=   70312 LenP2D=  146515.
 LDataN:  DoStor=T MaxTD1= 6 Len=  172
 NBasis=  1069 RedAO= T EigKep=  7.04D-06  NBF=  1069
 NBsUse=  1069 1.00D-06 EigRej= -1.00D+00 NBFU=  1069
 ExpMin= 3.27D-02 ExpMax= 2.12D+05 ExpMxC= 2.04D+03 IAcc=3 IRadAn=         5 AccDes= 0.00D+00
 Harris functional with IExCor= 1009 and IRadAn=       5 diagonalized for initial guess.
 HarFok:  IExCor= 1009 AccDes= 0.00D+00 IRadAn=         5 IDoV= 1 UseB2=F ITyADJ=14
 ICtDFT=  3500011 ScaDFX=  1.000000  1.000000  1.000000  1.000000
 FoFCou: FMM=F IPFlag=           0 FMFlag=      100000 FMFlg1=           0
         NFxFlg=           0 DoJE=T BraDBF=F KetDBF=T FulRan=T
         wScrn=  0.000000 ICntrl=       500 IOpCl=  0 I1Cent=   200000004 NGrid=           0
         NMat0=    1 NMatS0=      1 NMatT0=    0 NMatD0=    1 NMtDS0=    0 NMtDT0=    0
 Symmetry not used in FoFCou.
 Requested convergence on RMS density matrix=1.00D-08 within  32 cycles.
 Requested convergence on MAX density matrix=1.00D-06.
 Requested convergence on             energy=1.00D-06.
 No special actions if energy rises.
 Inv3:  Mode=1 IEnd=   100989612.
 Iteration    1 A*A^-1 deviation from unit magnitude is 4.00D-15 for   5474.
 Iteration    1 A*A^-1 deviation from orthogonality  is 1.85D-15 for   5022   3173.
 Iteration    1 A^-1*A deviation from unit magnitude is 4.00D-15 for   5474.
 Iteration    1 A^-1*A deviation from orthogonality  is 2.44D-15 for   2970    854.
 Error on total polarization charges =  0.01680
 SCF Done:  E(RM062X) =  -2377.76477901     A.U. after   17 cycles
            NFock= 17  Conv=0.40D-08     -V/T= 2.0033
 QCSCF skips out because SCF is already converged.

 **********************************************************************

            Population analysis using the SCF Density.

 **********************************************************************

 Alpha  occ. eigenvalues -- -180.49907 -20.49823 -19.68242 -19.66283 -19.65837
 Alpha  occ. eigenvalues --  -19.65008 -19.63942 -19.63341 -19.62983 -19.62948
 Alpha  occ. eigenvalues --  -19.62580 -19.61944 -19.61105 -19.60192 -17.19234
 Alpha  occ. eigenvalues --  -17.19209 -17.19091 -10.69091 -10.68568 -10.59401
 Alpha  occ. eigenvalues --  -10.59289 -10.58846 -10.58644 -10.58305 -10.58075
 Alpha  occ. eigenvalues --  -10.57886 -10.57708 -10.57167 -10.56759 -10.56668
 Alpha  occ. eigenvalues --  -10.56568 -10.56453 -10.55776  -2.63747  -1.70267
 Alpha  occ. eigenvalues --   -1.70255  -1.69915  -1.25161  -1.22224  -1.18713
 Alpha  occ. eigenvalues --   -1.17031  -1.16817  -1.15443  -1.15202  -1.15108
 Alpha  occ. eigenvalues --   -1.12234  -1.10924  -1.10300  -1.09256  -0.99027
 Alpha  occ. eigenvalues --   -0.88934  -0.87290  -0.84430  -0.83874  -0.83325
 Alpha  occ. eigenvalues --   -0.81903  -0.76760  -0.74600  -0.72088  -0.71506
 Alpha  occ. eigenvalues --   -0.71177  -0.70091  -0.68828  -0.66810  -0.63667
 Alpha  occ. eigenvalues --   -0.62535  -0.62267  -0.60408  -0.59851  -0.59555
 Alpha  occ. eigenvalues --   -0.59502  -0.57650  -0.57331  -0.56914  -0.56734
 Alpha  occ. eigenvalues --   -0.56208  -0.55761  -0.55481  -0.55049  -0.54956
 Alpha  occ. eigenvalues --   -0.54438  -0.53691  -0.53088  -0.52773  -0.51799
 Alpha  occ. eigenvalues --   -0.51727  -0.51474  -0.51119  -0.50608  -0.49544
 Alpha  occ. eigenvalues --   -0.49369  -0.49018  -0.47970  -0.47211  -0.45799
 Alpha  occ. eigenvalues --   -0.45528  -0.44780  -0.44215  -0.43756  -0.43009
 Alpha  occ. eigenvalues --   -0.42057  -0.41678  -0.41364  -0.40928  -0.40543
 Alpha  occ. eigenvalues --   -0.39959  -0.39579  -0.39486  -0.38694  -0.37574
 Alpha  occ. eigenvalues --   -0.37297  -0.37118  -0.35909  -0.35238  -0.34864
 Alpha  occ. eigenvalues --   -0.34455  -0.34254  -0.33313  -0.33236  -0.33016
 Alpha virt. eigenvalues --   -0.03918  -0.02558  -0.01642  -0.00129   0.00312
 Alpha virt. eigenvalues --    0.03170   0.04779   0.05014   0.06060   0.06351
 Alpha virt. eigenvalues --    0.07172   0.07606   0.07648   0.08346   0.08714
 Alpha virt. eigenvalues --    0.09371   0.09447   0.09889   0.10450   0.11065
 Alpha virt. eigenvalues --    0.11474   0.11836   0.12187   0.12848   0.13085
 Alpha virt. eigenvalues --    0.13321   0.13651   0.13974   0.14293   0.14585
 Alpha virt. eigenvalues --    0.15474   0.15635   0.16074   0.16666   0.17595
 Alpha virt. eigenvalues --    0.17710   0.18146   0.18567   0.19007   0.19334
 Alpha virt. eigenvalues --    0.19779   0.20067   0.20744   0.20905   0.21177
 Alpha virt. eigenvalues --    0.21216   0.22345   0.22562   0.23064   0.23265
 Alpha virt. eigenvalues --    0.23441   0.23510   0.23908   0.24412   0.25088
 Alpha virt. eigenvalues --    0.25240   0.25494   0.26176   0.26293   0.26736
 Alpha virt. eigenvalues --    0.26855   0.27293   0.27738   0.28069   0.28238
 Alpha virt. eigenvalues --    0.28924   0.29177   0.29735   0.30302   0.30682
 Alpha virt. eigenvalues --    0.30698   0.31061   0.32198   0.32322   0.33093
 Alpha virt. eigenvalues --    0.33244   0.33725   0.33898   0.34221   0.35280
 Alpha virt. eigenvalues --    0.35707   0.36105   0.36183   0.36508   0.36885
 Alpha virt. eigenvalues --    0.37211   0.38002   0.38410   0.38738   0.38923
 Alpha virt. eigenvalues --    0.39491   0.39922   0.40500   0.40655   0.40788
 Alpha virt. eigenvalues --    0.41299   0.41748   0.41939   0.42543   0.42623
 Alpha virt. eigenvalues --    0.42949   0.43195   0.43456   0.43656   0.44050
 Alpha virt. eigenvalues --    0.44746   0.45110   0.45601   0.45752   0.46054
 Alpha virt. eigenvalues --    0.46337   0.46545   0.46901   0.47113   0.47157
 Alpha virt. eigenvalues --    0.47534   0.47730   0.48175   0.48485   0.48723
 Alpha virt. eigenvalues --    0.49117   0.49256   0.50070   0.50272   0.50337
 Alpha virt. eigenvalues --    0.50760   0.51053   0.51574   0.51668   0.51973
 Alpha virt. eigenvalues --    0.52176   0.52673   0.53168   0.53186   0.53715
 Alpha virt. eigenvalues --    0.54211   0.54440   0.55177   0.55253   0.55706
 Alpha virt. eigenvalues --    0.55870   0.56164   0.57052   0.57541   0.57974
 Alpha virt. eigenvalues --    0.58204   0.58604   0.59160   0.59477   0.59697
 Alpha virt. eigenvalues --    0.61027   0.61093   0.62186   0.62520   0.62868
 Alpha virt. eigenvalues --    0.63324   0.64205   0.64323   0.64531   0.64780
 Alpha virt. eigenvalues --    0.65859   0.66173   0.66370   0.66764   0.67513
 Alpha virt. eigenvalues --    0.67817   0.68497   0.68844   0.69556   0.69940
 Alpha virt. eigenvalues --    0.70370   0.70623   0.71078   0.71288   0.71536
 Alpha virt. eigenvalues --    0.72170   0.72737   0.73606   0.73820   0.74874
 Alpha virt. eigenvalues --    0.74966   0.75656   0.75978   0.76330   0.76823
 Alpha virt. eigenvalues --    0.77214   0.77792   0.78166   0.78516   0.78932
 Alpha virt. eigenvalues --    0.79347   0.79905   0.80329   0.81234   0.81416
 Alpha virt. eigenvalues --    0.81961   0.82388   0.84201   0.84676   0.85349
 Alpha virt. eigenvalues --    0.85510   0.86008   0.86603   0.87134   0.87362
 Alpha virt. eigenvalues --    0.87951   0.88021   0.88312   0.88839   0.89119
 Alpha virt. eigenvalues --    0.90126   0.90763   0.91458   0.92071   0.92336
 Alpha virt. eigenvalues --    0.92489   0.93139   0.93918   0.94484   0.94644
 Alpha virt. eigenvalues --    0.95184   0.95584   0.96318   0.96527   0.97527
 Alpha virt. eigenvalues --    0.98121   0.98458   0.99088   0.99802   1.00270
 Alpha virt. eigenvalues --    1.00698   1.01067   1.01135   1.02179   1.03220
 Alpha virt. eigenvalues --    1.03997   1.04337   1.04732   1.05074   1.07373
 Alpha virt. eigenvalues --    1.08027   1.08552   1.09258   1.09805   1.10885
 Alpha virt. eigenvalues --    1.11431   1.11642   1.12067   1.12945   1.13904
 Alpha virt. eigenvalues --    1.14337   1.15494   1.15899   1.16199   1.16651
 Alpha virt. eigenvalues --    1.17147   1.18255   1.18753   1.19757   1.20241
 Alpha virt. eigenvalues --    1.21119   1.21769   1.21889   1.22639   1.23725
 Alpha virt. eigenvalues --    1.24586   1.25272   1.25871   1.26137   1.26286
 Alpha virt. eigenvalues --    1.26871   1.27858   1.28354   1.28781   1.29637
 Alpha virt. eigenvalues --    1.30220   1.30392   1.31329   1.32372   1.33523
 Alpha virt. eigenvalues --    1.33710   1.34676   1.35856   1.36683   1.38197
 Alpha virt. eigenvalues --    1.38254   1.38572   1.39014   1.40373   1.41067
 Alpha virt. eigenvalues --    1.42381   1.42896   1.43390   1.44186   1.45145
 Alpha virt. eigenvalues --    1.45408   1.47070   1.47397   1.47519   1.48089
 Alpha virt. eigenvalues --    1.48522   1.49693   1.50043   1.50195   1.50834
 Alpha virt. eigenvalues --    1.51918   1.52649   1.52950   1.53528   1.54191
 Alpha virt. eigenvalues --    1.54760   1.54918   1.55518   1.56030   1.57269
 Alpha virt. eigenvalues --    1.57417   1.57735   1.57914   1.58722   1.59102
 Alpha virt. eigenvalues --    1.59441   1.59966   1.60400   1.61090   1.61784
 Alpha virt. eigenvalues --    1.62135   1.62873   1.63476   1.63763   1.64223
 Alpha virt. eigenvalues --    1.64735   1.65367   1.65955   1.66345   1.66543
 Alpha virt. eigenvalues --    1.66757   1.67095   1.67576   1.68342   1.68565
 Alpha virt. eigenvalues --    1.68740   1.69086   1.70025   1.70133   1.71193
 Alpha virt. eigenvalues --    1.72242   1.73047   1.73876   1.74262   1.74627
 Alpha virt. eigenvalues --    1.74959   1.75991   1.76066   1.77351   1.78553
 Alpha virt. eigenvalues --    1.78975   1.79413   1.80705   1.81293   1.81832
 Alpha virt. eigenvalues --    1.82324   1.82549   1.83875   1.84045   1.84933
 Alpha virt. eigenvalues --    1.85073   1.86035   1.86711   1.87215   1.87601
 Alpha virt. eigenvalues --    1.88028   1.88716   1.89183   1.89532   1.89745
 Alpha virt. eigenvalues --    1.90142   1.90342   1.91072   1.91944   1.92439
 Alpha virt. eigenvalues --    1.93355   1.93840   1.94391   1.94702   1.95687
 Alpha virt. eigenvalues --    1.95887   1.97038   1.97517   1.98163   1.98620
 Alpha virt. eigenvalues --    1.98676   1.99686   2.00226   2.00974   2.01489
 Alpha virt. eigenvalues --    2.02279   2.02347   2.03413   2.04292   2.04519
 Alpha virt. eigenvalues --    2.05368   2.05985   2.06193   2.06453   2.06859
 Alpha virt. eigenvalues --    2.07112   2.07563   2.08508   2.09053   2.09552
 Alpha virt. eigenvalues --    2.10317   2.10976   2.11545   2.11914   2.12482
 Alpha virt. eigenvalues --    2.13273   2.14577   2.15339   2.15880   2.16201
 Alpha virt. eigenvalues --    2.17037   2.17341   2.17627   2.18748   2.19625
 Alpha virt. eigenvalues --    2.20099   2.21049   2.21799   2.22113   2.23095
 Alpha virt. eigenvalues --    2.24145   2.24876   2.25704   2.26043   2.27017
 Alpha virt. eigenvalues --    2.27943   2.28132   2.28525   2.29275   2.29684
 Alpha virt. eigenvalues --    2.30274   2.30471   2.31143   2.31587   2.32127
 Alpha virt. eigenvalues --    2.32802   2.33455   2.33563   2.34600   2.35402
 Alpha virt. eigenvalues --    2.35752   2.37018   2.38259   2.38507   2.38959
 Alpha virt. eigenvalues --    2.39169   2.39731   2.40342   2.40642   2.41291
 Alpha virt. eigenvalues --    2.42174   2.42510   2.43583   2.44022   2.44989
 Alpha virt. eigenvalues --    2.45370   2.46050   2.46345   2.46672   2.47510
 Alpha virt. eigenvalues --    2.49000   2.49135   2.49837   2.50368   2.50654
 Alpha virt. eigenvalues --    2.51107   2.51555   2.52719   2.53802   2.54167
 Alpha virt. eigenvalues --    2.54981   2.55939   2.56482   2.57520   2.58103
 Alpha virt. eigenvalues --    2.58662   2.59331   2.59371   2.59866   2.61046
 Alpha virt. eigenvalues --    2.61343   2.61774   2.61923   2.62536   2.62933
 Alpha virt. eigenvalues --    2.64434   2.64604   2.64922   2.65196   2.65275
 Alpha virt. eigenvalues --    2.65552   2.66292   2.66901   2.67532   2.67592
 Alpha virt. eigenvalues --    2.68232   2.69177   2.69513   2.69704   2.69968
 Alpha virt. eigenvalues --    2.70416   2.71087   2.71117   2.71383   2.72282
 Alpha virt. eigenvalues --    2.72930   2.73551   2.74394   2.74422   2.74707
 Alpha virt. eigenvalues --    2.75442   2.76514   2.77467   2.77968   2.78221
 Alpha virt. eigenvalues --    2.78629   2.79172   2.80758   2.81080   2.81224
 Alpha virt. eigenvalues --    2.81722   2.83109   2.83263   2.83587   2.84132
 Alpha virt. eigenvalues --    2.84446   2.84991   2.85861   2.86700   2.86941
 Alpha virt. eigenvalues --    2.87455   2.88642   2.89457   2.89825   2.90460
 Alpha virt. eigenvalues --    2.91000   2.91174   2.91700   2.92345   2.93052
 Alpha virt. eigenvalues --    2.93516   2.94127   2.94888   2.95895   2.96884
 Alpha virt. eigenvalues --    2.97227   2.98197   2.99272   2.99920   3.00431
 Alpha virt. eigenvalues --    3.01150   3.01821   3.02007   3.02253   3.03181
 Alpha virt. eigenvalues --    3.03598   3.03965   3.04999   3.05273   3.05892
 Alpha virt. eigenvalues --    3.06309   3.07889   3.08388   3.08530   3.10175
 Alpha virt. eigenvalues --    3.10570   3.11902   3.12291   3.12632   3.12759
 Alpha virt. eigenvalues --    3.13962   3.14731   3.14958   3.15606   3.16575
 Alpha virt. eigenvalues --    3.17272   3.17959   3.18073   3.18443   3.18772
 Alpha virt. eigenvalues --    3.19332   3.19460   3.19912   3.20160   3.20949
 Alpha virt. eigenvalues --    3.21297   3.22245   3.22532   3.22947   3.23061
 Alpha virt. eigenvalues --    3.23881   3.24268   3.24545   3.25014   3.25357
 Alpha virt. eigenvalues --    3.26358   3.26642   3.28277   3.28396   3.28804
 Alpha virt. eigenvalues --    3.29423   3.29671   3.30198   3.30361   3.31019
 Alpha virt. eigenvalues --    3.31671   3.32385   3.33352   3.33848   3.33933
 Alpha virt. eigenvalues --    3.34006   3.35167   3.35509   3.36485   3.36757
 Alpha virt. eigenvalues --    3.37042   3.37318   3.37902   3.38333   3.38516
 Alpha virt. eigenvalues --    3.38716   3.39137   3.39575   3.39735   3.40111
 Alpha virt. eigenvalues --    3.40584   3.41856   3.42117   3.42688   3.43165
 Alpha virt. eigenvalues --    3.43500   3.44122   3.44525   3.46483   3.47100
 Alpha virt. eigenvalues --    3.47781   3.47952   3.48402   3.49359   3.49606
 Alpha virt. eigenvalues --    3.49907   3.51393   3.52247   3.52904   3.52936
 Alpha virt. eigenvalues --    3.54113   3.55166   3.55726   3.57438   3.57838
 Alpha virt. eigenvalues --    3.58361   3.59195   3.59664   3.60003   3.60567
 Alpha virt. eigenvalues --    3.61066   3.61826   3.62809   3.63743   3.65611
 Alpha virt. eigenvalues --    3.66391   3.67665   3.68906   3.69707   3.69952
 Alpha virt. eigenvalues --    3.73673   3.74292   3.75650   3.76174   3.77899
 Alpha virt. eigenvalues --    3.78465   3.78702   3.80102   3.80529   3.81486
 Alpha virt. eigenvalues --    3.83047   3.83258   3.83855   3.86135   3.87516
 Alpha virt. eigenvalues --    3.87994   3.88992   3.89584   3.90225   3.91354
 Alpha virt. eigenvalues --    3.92457   3.92655   3.92946   3.93745   3.93839
 Alpha virt. eigenvalues --    3.94844   3.95231   3.96164   3.97249   3.99037
 Alpha virt. eigenvalues --    3.99820   4.00937   4.02332   4.02788   4.04489
 Alpha virt. eigenvalues --    4.04699   4.05680   4.08292   4.09413   4.11397
 Alpha virt. eigenvalues --    4.11898   4.12453   4.15056   4.17032   4.18113
 Alpha virt. eigenvalues --    4.20326   4.20452   4.20995   4.22475   4.23921
 Alpha virt. eigenvalues --    4.24734   4.25323   4.26342   4.27272   4.28594
 Alpha virt. eigenvalues --    4.30175   4.31827   4.32586   4.34127   4.34603
 Alpha virt. eigenvalues --    4.38394   4.40490   4.41097   4.41805   4.43821
 Alpha virt. eigenvalues --    4.45910   4.46734   4.48360   4.49907   4.51012
 Alpha virt. eigenvalues --    4.52829   4.54202   4.54520   4.58889   4.59272
 Alpha virt. eigenvalues --    4.60358   4.60963   4.61754   4.64597   4.65986
 Alpha virt. eigenvalues --    4.67489   4.68615   4.69674   4.71805   4.72474
 Alpha virt. eigenvalues --    4.73073   4.75088   4.75376   4.77267   4.78326
 Alpha virt. eigenvalues --    4.81516   4.85167   4.89482   4.90187   4.95650
 Alpha virt. eigenvalues --    5.10471   5.14891   5.15337   5.16477   5.17997
 Alpha virt. eigenvalues --    5.18806   5.21228   5.21714   5.21787   5.23015
 Alpha virt. eigenvalues --    5.23158   5.23456   5.24927   5.26225   5.26675
 Alpha virt. eigenvalues --    5.26735   5.27157   5.27651   5.28377   5.29427
 Alpha virt. eigenvalues --    5.30316   5.30432   5.32282   5.33631   5.34208
 Alpha virt. eigenvalues --    5.34946   5.35056   5.35531   5.37750   5.38656
 Alpha virt. eigenvalues --    5.40581   5.40787   5.44160   5.44712   5.45110
 Alpha virt. eigenvalues --    5.45542   5.46396   5.47079   5.48376   5.50282
 Alpha virt. eigenvalues --    5.50431   5.51080   5.52839   5.53242   5.54043
 Alpha virt. eigenvalues --    5.56694   5.65604   5.65896   5.66685   5.70639
 Alpha virt. eigenvalues --    5.70914   5.71711   5.72054   5.72942   5.75834
 Alpha virt. eigenvalues --    5.76558   5.79316   5.80562   5.81472   5.82574
 Alpha virt. eigenvalues --    5.82756   5.83273   5.84678   5.84942   5.86921
 Alpha virt. eigenvalues --    5.87369   5.88896   5.89230   5.90682   5.91109
 Alpha virt. eigenvalues --    5.93182   5.95388   5.99848   6.00734   6.01856
 Alpha virt. eigenvalues --    6.05701   6.05755   6.10171   6.11551   6.14659
 Alpha virt. eigenvalues --    6.19343   6.19801   6.24028   6.26125   6.26189
 Alpha virt. eigenvalues --    6.26627   6.28929   6.30682   6.34524   6.38157
 Alpha virt. eigenvalues --    6.38973   6.43447   6.44484   6.44685   6.45718
 Alpha virt. eigenvalues --    6.45910   6.48558   6.50888   6.51567   6.53216
 Alpha virt. eigenvalues --    6.54947   6.55582   6.58863   6.59387   6.63459
 Alpha virt. eigenvalues --    6.64474   6.64982   6.65342   6.65914   6.67091
 Alpha virt. eigenvalues --    6.69057   6.71333   6.73429   6.75170   6.76372
 Alpha virt. eigenvalues --    6.76649   6.78818   6.80138   6.80323   6.81819
 Alpha virt. eigenvalues --    6.82818   6.83469   6.83787   6.87262   6.88145
 Alpha virt. eigenvalues --    6.88810   6.91876   6.93435   6.94392   6.95148
 Alpha virt. eigenvalues --    6.98496   7.01319   7.03216   7.05189   7.07170
 Alpha virt. eigenvalues --    7.08735   7.08951   7.10324   7.10616   7.11854
 Alpha virt. eigenvalues --    7.12746   7.16155   7.16646   7.17992   7.20242
 Alpha virt. eigenvalues --    7.21174   7.25072   7.29688   7.31002   7.37595
 Alpha virt. eigenvalues --    7.40743  22.34316  22.52004  22.53360  22.56427
 Alpha virt. eigenvalues --   22.59478  22.63913  22.65596  22.66609  22.67697
 Alpha virt. eigenvalues --   22.75643  22.82587  22.95625  23.13040  23.29497
 Alpha virt. eigenvalues --   23.56882  23.68812  43.91372  43.98002  43.98193
 Alpha virt. eigenvalues --   43.98592  44.03778  44.11484  44.12240  44.16839
 Alpha virt. eigenvalues --   44.19871  44.29501  44.31579  44.33510
          Condensed to atoms (all electrons):
 Mulliken charges:
               1
     1  O   -0.496024
     2  Ti   1.180163
     3  O   -0.535144
     4  O   -0.546612
     5  C   -0.176980
     6  C   -0.034662
     7  C   -0.130546
     8  C   -0.112624
     9  O   -0.521599
    10  C   -0.049668
    11  C   -0.170989
    12  O   -0.467099
    13  H    0.167067
    14  H    0.170140
    15  H    0.152697
    16  H    0.173588
    17  H    0.144864
    18  H    0.145906
    19  H    0.177719
    20  H    0.171422
    21  H    0.147668
    22  H    0.140013
    23  H    0.124623
    24  H    0.140328
    25  O   -0.522723
    26  H    0.340584
    27  H    0.344286
    28  H    0.432479
    29  O   -0.522279
    30  C    0.491630
    31  O   -0.564968
    32  C   -0.171666
    33  C    0.102383
    34  C   -0.149227
    35  C   -0.233735
    36  C   -0.170836
    37  C    0.045570
    38  H    0.187205
    39  C    0.358591
    40  H    0.184591
    41  O   -0.379053
    42  O   -0.420723
    43  H    0.367186
    44  O   -0.536025
    45  C   -0.107596
    46  C   -0.104691
    47  O   -0.534439
    48  H    0.417133
    49  H    0.164294
    50  H    0.160504
    51  H    0.366984
    52  H    0.150081
    53  H    0.146021
    54  H    0.172572
    55  H    0.191615
 Sum of Mulliken charges =  -0.00000
 Mulliken charges with hydrogens summed into heavy atoms:
               1
     1  O   -0.078891
     2  Ti   1.180163
     3  O   -0.535144
     4  O   -0.546612
     5  C    0.110701
     6  C    0.230289
     7  C    0.206661
     8  C    0.213660
     9  O   -0.177312
    10  C    0.241102
    11  C    0.178151
    12  O   -0.034620
    25  O   -0.182138
    29  O   -0.522279
    30  C    0.491630
    31  O   -0.564968
    32  C    0.019949
    33  C    0.102383
    34  C    0.023346
    35  C   -0.046530
    36  C    0.013756
    37  C    0.045570
    39  C    0.358591
    41  O   -0.379053
    42  O   -0.053537
    44  O   -0.536025
    45  C    0.188506
    46  C    0.220107
    47  O   -0.167456
 Electronic spatial extent (au):  <R**2>=          16250.4081
 Charge=             -0.0000 electrons
 Dipole moment (field-independent basis, Debye):
    X=             -1.9232    Y=             -2.6978    Z=              6.6932  Tot=              7.4684
 Quadrupole moment (field-independent basis, Debye-Ang):
   XX=           -156.9801   YY=           -197.1248   ZZ=           -145.3492
   XY=              7.4109   XZ=              5.2753   YZ=              7.7983
 Traceless Quadrupole moment (field-independent basis, Debye-Ang):
   XX=              9.5046   YY=            -30.6401   ZZ=             21.1355
   XY=              7.4109   XZ=              5.2753   YZ=              7.7983
 Octapole moment (field-independent basis, Debye-Ang**2):
  XXX=             22.8078  YYY=           -434.4854  ZZZ=            139.6240  XYY=             49.2371
  XXY=           -110.9930  XXZ=            -81.9690  XZZ=           -125.5208  YZZ=           -122.8706
  YYZ=             51.9963  XYZ=            -21.9433
 Hexadecapole moment (field-independent basis, Debye-Ang**3):
 XXXX=          -5463.7437 YYYY=          -3967.5817 ZZZZ=          -9781.7777 XXXY=           -108.4964
 XXXZ=          -2191.0969 YYYX=           -172.3243 YYYZ=           -282.0684 ZZZX=          -1214.2623
 ZZZY=            226.8063 XXYY=          -1364.5871 XXZZ=          -2283.6292 YYZZ=          -2452.0180
 XXYZ=           -194.6051 YYXZ=           -675.9878 ZZXY=           -161.1713
 N-N= 3.568724754237D+03 E-N=-1.273381335478D+04  KE= 2.369879159684D+03
   1 Symmetry operations used in ECPInt.
 ECPInt:  NShTT=   91378 NPrTT=  283881 LenC2=   70312 LenP2D=  146515.
 LDataN:  DoStor=T MaxTD1= 7 Len=  274
 D1PCM: PCM CHGder 1st derivatives, ID1Alg=3 FixD1E=F DoIter=F DoCFld=F I1PDM=0.
 Calling FoFJK, ICntrl=      2127 FMM=F ISym2X=0 I1Cent= 0 IOpClX= 0 NMat=1 NMatS=1 NMatT=0.
 -------------------------------------------------------------------
 Center     Atomic                   Forces (Hartrees/Bohr)
 Number     Number              X              Y              Z
 -------------------------------------------------------------------
      1        8          -0.000007668    0.000010523   -0.000007122
      2       22          -0.000026644    0.000021192    0.000012143
      3        8           0.000008730   -0.000001772   -0.000019112
      4        8           0.000015412   -0.000004323    0.000000362
      5        6          -0.000003970    0.000000645    0.000002440
      6        6          -0.000001398   -0.000000502    0.000002642
      7        6           0.000010060   -0.000002713   -0.000000853
      8        6          -0.000000042    0.000003873    0.000000671
      9        8          -0.000004326    0.000001121   -0.000000659
     10        6           0.000000032    0.000003145    0.000005065
     11        6          -0.000004189   -0.000004302   -0.000002993
     12        8           0.000001608    0.000002891    0.000004274
     13        1          -0.000001008    0.000002564   -0.000001607
     14        1          -0.000000129    0.000001675   -0.000000476
     15        1          -0.000002350    0.000000866    0.000000940
     16        1          -0.000000163    0.000001922    0.000000590
     17        1           0.000000794    0.000000023    0.000000162
     18        1           0.000000456   -0.000000470   -0.000001168
     19        1           0.000002753   -0.000000306   -0.000001014
     20        1           0.000000636   -0.000000082   -0.000000283
     21        1           0.000000245   -0.000001705   -0.000001085
     22        1          -0.000002592    0.000000680    0.000000241
     23        1          -0.000001643   -0.000001390    0.000000259
     24        1          -0.000001404   -0.000001310    0.000001509
     25        8          -0.000003418   -0.000002262    0.000001607
     26        1          -0.000001481   -0.000000904    0.000001866
     27        1          -0.000000507    0.000003455    0.000000521
     28        1          -0.000000236   -0.000003584   -0.000001168
     29        8           0.000021381    0.000021136    0.000000603
     30        6          -0.000017423   -0.000031592    0.000029050
     31        8           0.000003040    0.000000090   -0.000039927
     32        6          -0.000043221   -0.000021942   -0.000017340
     33        6           0.000012367    0.000015635   -0.000016228
     34        6           0.000022238    0.000000701    0.000034140
     35        6           0.000025364   -0.000001497    0.000051123
     36        6           0.000011742    0.000018764   -0.000024025
     37        6          -0.000033127   -0.000014739   -0.000010332
     38        1          -0.000006999   -0.000000103   -0.000008972
     39        6           0.000005109   -0.000010676   -0.000002122
     40        1           0.000003146    0.000003055   -0.000004924
     41        8          -0.000001282    0.000008559   -0.000000147
     42        8          -0.000002825    0.000003578   -0.000003291
     43        1          -0.000000342    0.000002177    0.000000520
     44        8           0.000007982   -0.000014780    0.000002659
     45        6          -0.000004864    0.000007864   -0.000000892
     46        6           0.000001859   -0.000005432   -0.000000985
     47        8           0.000000746    0.000001314   -0.000008377
     48        1           0.000007143    0.000001077    0.000011565
     49        1          -0.000000145   -0.000001377    0.000001098
     50        1          -0.000001121   -0.000001637   -0.000001893
     51        1          -0.000000391   -0.000003700    0.000006935
     52        1           0.000001639   -0.000003291    0.000000662
     53        1           0.000000235   -0.000003058   -0.000000894
     54        1           0.000003237    0.000000133   -0.000000452
     55        1           0.000006956    0.000000790    0.000004692
 -------------------------------------------------------------------
 Cartesian Forces:  Max     0.000051123 RMS     0.000010808

 GradGradGradGradGradGradGradGradGradGradGradGradGradGradGradGradGradGrad
 Berny optimization.
 FormGI is forming the generalized inverse of G from B-inverse, IUseBI=4.
 Internal  Forces:  Max     0.000039685 RMS     0.000005332
 Search for a local minimum.
 Step number   1 out of a maximum of  309
 All quantities printed in internal units (Hartrees-Bohrs-Radians)
 Mixed Optimization -- En-DIIS/RFO-DIIS
 Second derivative matrix not updated -- first step.
 ITU=  0
     Eigenvalues ---    0.00230   0.00488   0.00521   0.00578   0.00729
     Eigenvalues ---    0.00816   0.00931   0.01278   0.01301   0.01358
     Eigenvalues ---    0.01386   0.01448   0.01472   0.01487   0.01654
     Eigenvalues ---    0.01697   0.01765   0.01781   0.01828   0.01945
     Eigenvalues ---    0.02204   0.02213   0.02226   0.02230   0.02246
     Eigenvalues ---    0.02254   0.02260   0.02522   0.02599   0.03187
     Eigenvalues ---    0.03265   0.03890   0.04224   0.04766   0.04835
     Eigenvalues ---    0.04946   0.04986   0.04990   0.05049   0.05177
     Eigenvalues ---    0.05231   0.05658   0.05743   0.05878   0.05949
     Eigenvalues ---    0.06002   0.06041   0.06109   0.06314   0.07634
     Eigenvalues ---    0.08177   0.08629   0.08952   0.09069   0.09093
     Eigenvalues ---    0.09122   0.10007   0.10120   0.10543   0.11248
     Eigenvalues ---    0.11372   0.11490   0.11507   0.11564   0.11656
     Eigenvalues ---    0.11995   0.12508   0.12981   0.13284   0.13815
     Eigenvalues ---    0.13889   0.13893   0.13916   0.13929   0.14291
     Eigenvalues ---    0.15329   0.16000   0.16000   0.16000   0.16000
     Eigenvalues ---    0.16000   0.16000   0.16000   0.16000   0.16793
     Eigenvalues ---    0.18306   0.19436   0.21057   0.21600   0.21924
     Eigenvalues ---    0.21990   0.22000   0.22041   0.22045   0.22066
     Eigenvalues ---    0.22085   0.22993   0.23084   0.23479   0.23493
     Eigenvalues ---    0.24626   0.24985   0.25000   0.25000   0.25000
     Eigenvalues ---    0.25000   0.25000   0.25000   0.25000   0.28754
     Eigenvalues ---    0.30268   0.30511   0.30928   0.32779   0.33719
     Eigenvalues ---    0.33723   0.33959   0.33984   0.34151   0.34219
     Eigenvalues ---    0.34330   0.34345   0.34402   0.34555   0.34579
     Eigenvalues ---    0.34637   0.34710   0.34745   0.34773   0.34827
     Eigenvalues ---    0.34860   0.35819   0.35830   0.35843   0.35871
     Eigenvalues ---    0.38432   0.40802   0.41992   0.42877   0.42971
     Eigenvalues ---    0.43060   0.43153   0.43252   0.45691   0.46555
     Eigenvalues ---    0.46822   0.47446   0.47652   0.47715   0.47795
     Eigenvalues ---    0.49182   0.53528   0.54350   0.54862   0.54876
     Eigenvalues ---    0.57826   0.70946   0.89919   1.02395
 RFO step:  Lambda=-4.01636242D-08 EMin= 2.30000000D-03
 Linear search not attempted -- first point.
 Iteration  1 RMS(Cart)=  0.00015444 RMS(Int)=  0.00000001
 Iteration  2 RMS(Cart)=  0.00000001 RMS(Int)=  0.00000000
 Variable       Old X    -DE/DX   Delta X   Delta X   Delta X     New X
                                 (Linear)    (Quad)   (Total)
    R1        4.14131   0.00001   0.00000   0.00008   0.00008   4.14139
    R2        2.68934   0.00001   0.00000   0.00001   0.00001   2.68935
    R3        1.89012  -0.00001   0.00000  -0.00003  -0.00003   1.89009
    R4        3.54125   0.00001   0.00000   0.00003   0.00003   3.54128
    R5        3.47481  -0.00001   0.00000  -0.00003  -0.00003   3.47478
    R6        4.10387   0.00000   0.00000   0.00003   0.00003   4.10390
    R7        3.71727   0.00000   0.00000   0.00001   0.00001   3.71728
    R8        3.43095   0.00000   0.00000   0.00001   0.00001   3.43096
    R9        2.64734   0.00000   0.00000   0.00001   0.00001   2.64735
   R10        2.63511  -0.00000   0.00000  -0.00000  -0.00000   2.63511
   R11        2.87432   0.00000   0.00000   0.00000   0.00000   2.87433
   R12        2.07807  -0.00000   0.00000  -0.00000  -0.00000   2.07807
   R13        2.07077  -0.00000   0.00000  -0.00000  -0.00000   2.07077
   R14        2.06962  -0.00000   0.00000  -0.00000  -0.00000   2.06962
   R15        2.06046  -0.00000   0.00000  -0.00000  -0.00000   2.06046
   R16        2.67706  -0.00000   0.00000  -0.00000  -0.00000   2.67706
   R17        2.86955  -0.00000   0.00000  -0.00000  -0.00000   2.86955
   R18        2.06268  -0.00000   0.00000  -0.00000  -0.00000   2.06268
   R19        2.06404   0.00000   0.00000   0.00000   0.00000   2.06405
   R20        2.67481  -0.00000   0.00000  -0.00001  -0.00001   2.67480
   R21        2.06751  -0.00000   0.00000  -0.00000  -0.00000   2.06751
   R22        2.06148  -0.00000   0.00000  -0.00000  -0.00000   2.06148
   R23        1.81955   0.00000   0.00000   0.00000   0.00000   1.81955
   R24        2.87542  -0.00000   0.00000  -0.00002  -0.00002   2.87540
   R25        2.07399   0.00000   0.00000   0.00000   0.00000   2.07400
   R26        2.06657  -0.00000   0.00000  -0.00000  -0.00000   2.06657
   R27        2.71309   0.00000   0.00000   0.00000   0.00000   2.71309
   R28        2.05902   0.00000   0.00000   0.00000   0.00000   2.05902
   R29        2.06091  -0.00000   0.00000  -0.00000  -0.00000   2.06090
   R30        1.87400  -0.00000   0.00000  -0.00000  -0.00000   1.87400
   R31        1.81943   0.00000   0.00000   0.00000   0.00000   1.81943
   R32        2.32970   0.00003   0.00000   0.00003   0.00003   2.32973
   R33        2.43202  -0.00004   0.00000  -0.00006  -0.00006   2.43196
   R34        2.82742  -0.00000   0.00000  -0.00000  -0.00000   2.82741
   R35        2.63128   0.00002   0.00000   0.00004   0.00004   2.63133
   R36        2.62137  -0.00003   0.00000  -0.00005  -0.00005   2.62132
   R37        2.04366   0.00000   0.00000   0.00001   0.00001   2.04367
   R38        2.62233  -0.00002   0.00000  -0.00005  -0.00005   2.62228
   R39        2.62096   0.00002   0.00000   0.00005   0.00005   2.62101
   R40        2.04349  -0.00000   0.00000  -0.00001  -0.00001   2.04348
   R41        2.62396   0.00003   0.00000   0.00005   0.00005   2.62402
   R42        2.04328  -0.00000   0.00000  -0.00001  -0.00001   2.04327
   R43        2.63299  -0.00002   0.00000  -0.00005  -0.00005   2.63294
   R44        2.04284   0.00000   0.00000   0.00000   0.00000   2.04284
   R45        2.81100   0.00000   0.00000   0.00001   0.00001   2.81101
   R46        2.27695   0.00000   0.00000   0.00000   0.00000   2.27695
   R47        2.52703   0.00000   0.00000   0.00001   0.00001   2.52704
   R48        1.83164  -0.00000   0.00000  -0.00000  -0.00000   1.83164
   R49        2.64481   0.00000   0.00000   0.00001   0.00001   2.64482
   R50        2.86150  -0.00000   0.00000  -0.00000  -0.00000   2.86150
   R51        2.07357  -0.00000   0.00000  -0.00001  -0.00001   2.07356
   R52        2.06777   0.00000   0.00000   0.00000   0.00000   2.06777
   R53        2.70478   0.00000   0.00000   0.00000   0.00000   2.70479
   R54        2.05957  -0.00000   0.00000  -0.00000  -0.00000   2.05957
   R55        2.06364   0.00000   0.00000   0.00000   0.00000   2.06364
   R56        1.82414  -0.00000   0.00000  -0.00000  -0.00000   1.82414
    A1        2.22566   0.00000   0.00000   0.00002   0.00002   2.22568
    A2        1.82233  -0.00000   0.00000   0.00000   0.00000   1.82234
    A3        1.96110  -0.00000   0.00000  -0.00002  -0.00002   1.96109
    A4        1.49673   0.00000   0.00000   0.00002   0.00002   1.49675
    A5        1.45953  -0.00000   0.00000  -0.00005  -0.00005   1.45948
    A6        1.49564   0.00000   0.00000   0.00001   0.00001   1.49565
    A7        1.46623   0.00000   0.00000   0.00003   0.00003   1.46625
    A8        2.74528  -0.00000   0.00000  -0.00001  -0.00001   2.74527
    A9        1.33197   0.00000   0.00000   0.00000   0.00000   1.33198
   A10        1.69997  -0.00001   0.00000  -0.00011  -0.00011   1.69987
   A11        1.66551   0.00000   0.00000   0.00001   0.00001   1.66552
   A12        1.44701  -0.00000   0.00000   0.00000   0.00000   1.44702
   A13        1.76922   0.00001   0.00000   0.00010   0.00010   1.76932
   A14        1.64873   0.00000   0.00000   0.00001   0.00001   1.64874
   A15        1.61157  -0.00000   0.00000  -0.00002  -0.00002   1.61155
   A16        1.71235  -0.00000   0.00000  -0.00001  -0.00001   1.71235
   A17        2.07120  -0.00001   0.00000  -0.00004  -0.00004   2.07115
   A18        2.39720   0.00001   0.00000   0.00003   0.00003   2.39723
   A19        1.91466   0.00000   0.00000   0.00000   0.00000   1.91466
   A20        1.92776  -0.00000   0.00000  -0.00000  -0.00000   1.92776
   A21        1.93112  -0.00000   0.00000  -0.00001  -0.00001   1.93111
   A22        1.90659   0.00000   0.00000   0.00001   0.00001   1.90661
   A23        1.91248  -0.00000   0.00000  -0.00001  -0.00001   1.91247
   A24        1.87064  -0.00000   0.00000  -0.00000  -0.00000   1.87064
   A25        1.91298   0.00000   0.00000   0.00000   0.00000   1.91298
   A26        1.91139  -0.00000   0.00000  -0.00000  -0.00000   1.91139
   A27        1.94775   0.00000   0.00000   0.00000   0.00000   1.94775
   A28        1.88404  -0.00000   0.00000  -0.00000  -0.00000   1.88404
   A29        1.94347  -0.00000   0.00000   0.00000   0.00000   1.94347
   A30        1.86236  -0.00000   0.00000  -0.00000  -0.00000   1.86235
   A31        1.89576  -0.00001   0.00000  -0.00003  -0.00003   1.89574
   A32        1.91029   0.00000   0.00000   0.00001   0.00001   1.91030
   A33        1.90904   0.00000   0.00000  -0.00000  -0.00000   1.90904
   A34        1.92575   0.00000   0.00000   0.00003   0.00003   1.92578
   A35        1.92929   0.00000   0.00000  -0.00000  -0.00000   1.92928
   A36        1.89363  -0.00000   0.00000  -0.00000  -0.00000   1.89362
   A37        1.94013  -0.00000   0.00000  -0.00001  -0.00001   1.94012
   A38        1.91766  -0.00000   0.00000  -0.00001  -0.00001   1.91765
   A39        1.90442   0.00000   0.00000   0.00001   0.00001   1.90443
   A40        1.94702   0.00000   0.00000   0.00001   0.00001   1.94703
   A41        1.86876   0.00000   0.00000   0.00000   0.00000   1.86876
   A42        1.88395  -0.00000   0.00000  -0.00000  -0.00000   1.88395
   A43        1.90047  -0.00000   0.00000  -0.00000  -0.00000   1.90047
   A44        1.86994   0.00000   0.00000   0.00000   0.00000   1.86994
   A45        1.92042   0.00000   0.00000   0.00000   0.00000   1.92043
   A46        1.93697  -0.00000   0.00000  -0.00000  -0.00000   1.93697
   A47        1.91444  -0.00000   0.00000  -0.00001  -0.00001   1.91443
   A48        1.92837   0.00000   0.00000   0.00001   0.00001   1.92838
   A49        1.89380   0.00000   0.00000  -0.00000  -0.00000   1.89379
   A50        1.85835   0.00000   0.00000   0.00000   0.00000   1.85835
   A51        1.97004  -0.00000   0.00000  -0.00000  -0.00000   1.97004
   A52        1.94071  -0.00000   0.00000  -0.00000  -0.00000   1.94071
   A53        1.92299  -0.00000   0.00000   0.00001   0.00001   1.92300
   A54        1.86417   0.00000   0.00000   0.00001   0.00001   1.86418
   A55        1.90433  -0.00000   0.00000  -0.00001  -0.00001   1.90432
   A56        1.97672  -0.00000   0.00000  -0.00002  -0.00002   1.97671
   A57        1.82447   0.00000   0.00000  -0.00001  -0.00001   1.82446
   A58        1.95564  -0.00000   0.00000  -0.00002  -0.00002   1.95561
   A59        1.89564   0.00000   0.00000   0.00001   0.00001   1.89564
   A60        2.16680  -0.00001   0.00000  -0.00002  -0.00002   2.16677
   A61        2.09610   0.00001   0.00000   0.00005   0.00005   2.09616
   A62        2.02029  -0.00001   0.00000  -0.00003  -0.00003   2.02026
   A63        2.42108  -0.00001   0.00000  -0.00002  -0.00002   2.42106
   A64        2.09665   0.00000   0.00000   0.00000   0.00000   2.09665
   A65        2.08108  -0.00001   0.00000  -0.00005  -0.00005   2.08104
   A66        2.10545   0.00001   0.00000   0.00004   0.00004   2.10550
   A67        2.10733   0.00000   0.00000   0.00001   0.00001   2.10734
   A68        2.08210  -0.00000   0.00000  -0.00000  -0.00000   2.08209
   A69        2.09376  -0.00000   0.00000  -0.00001  -0.00001   2.09375
   A70        2.09472   0.00000   0.00000   0.00001   0.00001   2.09473
   A71        2.09512  -0.00000   0.00000  -0.00001  -0.00001   2.09511
   A72        2.09335   0.00000   0.00000   0.00000   0.00000   2.09335
   A73        2.09186   0.00000   0.00000   0.00001   0.00001   2.09187
   A74        2.09647   0.00001   0.00000   0.00007   0.00007   2.09654
   A75        2.09486  -0.00001   0.00000  -0.00007  -0.00007   2.09478
   A76        2.09170  -0.00000   0.00000  -0.00001  -0.00001   2.09169
   A77        2.10052   0.00001   0.00000   0.00004   0.00004   2.10056
   A78        2.09096  -0.00000   0.00000  -0.00003  -0.00003   2.09093
   A79        2.09769  -0.00000   0.00000  -0.00000  -0.00000   2.09769
   A80        2.06123   0.00000   0.00000   0.00001   0.00001   2.06123
   A81        2.12427  -0.00000   0.00000  -0.00000  -0.00000   2.12426
   A82        2.16975  -0.00000   0.00000  -0.00000  -0.00000   2.16975
   A83        1.97327   0.00000   0.00000   0.00001   0.00001   1.97329
   A84        2.14016  -0.00000   0.00000  -0.00001  -0.00001   2.14015
   A85        1.88783  -0.00000   0.00000  -0.00000  -0.00000   1.88783
   A86        2.35015  -0.00002   0.00000  -0.00007  -0.00007   2.35008
   A87        1.93941  -0.00000   0.00000  -0.00001  -0.00001   1.93940
   A88        1.92279   0.00000   0.00000   0.00000   0.00000   1.92279
   A89        1.90863   0.00000   0.00000   0.00000   0.00000   1.90863
   A90        1.90772  -0.00000   0.00000  -0.00000  -0.00000   1.90771
   A91        1.89410   0.00000   0.00000   0.00000   0.00000   1.89410
   A92        1.89031   0.00000   0.00000   0.00001   0.00001   1.89032
   A93        1.95823  -0.00000   0.00000  -0.00000  -0.00000   1.95823
   A94        1.92005   0.00000   0.00000   0.00000   0.00000   1.92005
   A95        1.92079  -0.00000   0.00000  -0.00001  -0.00001   1.92079
   A96        1.84701   0.00000   0.00000   0.00001   0.00001   1.84702
   A97        1.91464   0.00000   0.00000  -0.00000  -0.00000   1.91464
   A98        1.90116  -0.00000   0.00000  -0.00000  -0.00000   1.90116
   A99        1.89774   0.00000   0.00000   0.00000   0.00000   1.89774
   A100       3.16224   0.00000   0.00000   0.00003   0.00003   3.16227
   A101       2.96187   0.00000   0.00000   0.00003   0.00003   2.96191
   A102       3.10115  -0.00000   0.00000  -0.00002  -0.00002   3.10113
   A103       3.04527  -0.00001   0.00000  -0.00011  -0.00011   3.04515
    D1       -0.51420  -0.00000   0.00000   0.00001   0.00001  -0.51419
    D2        2.27652  -0.00000   0.00000   0.00001   0.00001   2.27653
    D3        0.82217  -0.00000   0.00000   0.00001   0.00001   0.82217
    D4       -2.22310   0.00001   0.00000   0.00012   0.00012  -2.22298
    D5        1.82173  -0.00000   0.00000  -0.00000  -0.00000   1.82173
    D6       -1.67073  -0.00000   0.00000   0.00001   0.00001  -1.67073
    D7       -3.12509  -0.00000   0.00000   0.00000   0.00000  -3.12509
    D8        0.11283   0.00001   0.00000   0.00011   0.00011   0.11294
    D9       -1.69349  -0.00000   0.00000  -0.00008  -0.00008  -1.69357
   D10        0.41009   0.00000   0.00000  -0.00005  -0.00005   0.41004
   D11        2.48256  -0.00000   0.00000  -0.00005  -0.00005   2.48251
   D12        2.30438  -0.00000   0.00000  -0.00008  -0.00008   2.30429
   D13       -1.87523  -0.00000   0.00000  -0.00006  -0.00006  -1.87529
   D14        0.19724  -0.00000   0.00000  -0.00006  -0.00006   0.19718
   D15        2.10261   0.00000   0.00000   0.00006   0.00006   2.10266
   D16       -1.82531   0.00000   0.00000   0.00007   0.00007  -1.82524
   D17        2.04044  -0.00000   0.00000   0.00004   0.00004   2.04048
   D18        0.95414   0.00000   0.00000   0.00010   0.00010   0.95424
   D19        0.52910  -0.00000   0.00000   0.00004   0.00004   0.52913
   D20       -2.78739   0.00000   0.00000   0.00008   0.00008  -2.78731
   D21       -1.06072   0.00000   0.00000   0.00006   0.00006  -1.06065
   D22       -0.72754   0.00000   0.00000   0.00005   0.00005  -0.72749
   D23        0.36538  -0.00000   0.00000  -0.00000  -0.00000   0.36537
   D24        0.78098   0.00000   0.00000   0.00006   0.00006   0.78104
   D25       -2.16838   0.00000   0.00000   0.00005   0.00005  -2.16833
   D26        2.38327   0.00000   0.00000   0.00004   0.00004   2.38331
[...]
 000050,-0.00000060,0.00000177,0.00000531,-0.00000683,-0.00000401,0.000
 00171,-0.00000837,0.00000036,-0.00000059,0.00000013,0.02156714,-0.0250
 0543,-0.00842926,-0.01586033,0.03899217,-0.05313340,-0.01054168,0.0309
 0895,-0.00579900,0.00242397,-0.00018451,0.00254347,0.00003739,-0.00003
 661,0.00007803,-0.00315494,-0.00026628,-0.00486467,0.00077508,-0.00049
 163,0.00091136,-0.00045478,-0.00087526,-0.00033491,0.00729509,-0.03482
 822,0.06552319,-0.00067788,-0.00034030,0.00035809,0.00285355,0.0028700
 9,-0.00314826,-0.00073219,0.00081631,0.00021350,0.00051420,-0.00122571
 ,-0.00059455,0.00019959,0.00025476,0.00014671,-0.00012524,0.00005851,0
 .00002656,0.00022336,-0.00011556,0.00003622,0.00004635,0.00003726,0.00
 002253,-0.00009439,-0.00001757,-0.00001021,0.00018455,-0.00015380,0.00
 030620,0.00025623,-0.00017010,-0.00002393,-0.00062261,-0.00007717,-0.0
 0021257,0.00000551,0.00000897,-0.00002755,-0.00006523,-0.00001079,0.00
 001639,-0.00000602,-0.00001081,0.00000340,0.00001623,0.00001719,0.0000
 1251,0.00001281,-0.00001394,-0.00004900,-0.00006856,0.00005289,-0.0000
 2494,-0.00002843,0.00001281,-0.00003835,-0.00003904,0.00002052,0.00001
 602,-0.00002107,-0.00002643,-0.00003671,-0.00002923,-0.00006142,-0.000
 00805,0.00001254,0.00000280,-0.00001637,0.00000813,-0.00000732,0.00000
 722,0.00001958,-0.00012004,-0.00005268,-0.00000187,0.00001441,0.000017
 17,0.00001091,0.00000744,-0.00000327,0.00030147,0.00010630,0.00002948,
 -0.00009987,-0.00019100,0.00025899,0.00001858,0.00032453,-0.00070260,0
 .00042148,-0.00016526,0.00130453,-0.00000174,-0.00000619,0.00001755,0.
 00001184,-0.00002606,0.00008260,0.00000131,-0.00000261,0.00000980,0.00
 002696,0.00002326,-0.00001297,0.00000867,0.00000094,0.00001222,0.00001
 312,-0.00000010,0.00002333,-0.00000179,0.00000157,-0.00000779,0.000002
 69,0.00001631,-0.00003729,0.00000073,0.00000009,0.00000106,-0.00000488
 ,-0.00000985,0.00001679,0.00000865,-0.00000178,0.00001971,-0.00000037,
 0.00000028,-0.00000134,-0.02704718,-0.00854857,0.01618822,-0.20294513,
 -0.12344218,-0.01542736,-0.01124178,-0.01081272,-0.00064957,-0.0012806
 4,-0.00062440,-0.00309348,-0.00007576,0.00004857,-0.00014025,0.0001731
 3,0.00028666,0.00055570,0.00066658,0.00031714,-0.00026330,-0.00021911,
 0.00027355,0.00002614,0.00874980,0.00492803,0.00022624,0.23067685,0.00
 022065,0.00006025,0.00001436,0.00060830,-0.00036400,-0.00095209,-0.000
 18307,-0.00003795,-0.00000846,-0.00084296,0.00024626,0.00059483,0.0000
 8796,0.00028806,0.00011842,0.00003504,0.00006569,-0.00002368,-0.000010
 91,0.00005083,-0.00002402,0.00001011,-0.00000682,-0.00001319,-0.000002
 96,0.00000178,0.00000770,0.00000224,-0.00001667,0.00001779,0.00005744,
 -0.00006222,0.00001080,-0.00017346,0.00007235,0.00017075,-0.00000231,-
 0.00000685,-0.00000018,0.00001203,-0.00000199,0.00000234,-0.00000043,-
 0.00000007,0.00000059,0.00000452,0.00000283,0.00000461,0.00002758,-0.0
 0000363,-0.00000510,0.00000227,0.00000419,0.00000834,0.00000182,0.0000
 0559,-0.00000657,-0.00001487,0.00001031,0.00000230,0.00000453,0.000005
 79,-0.00002680,-0.00005143,-0.00007091,0.00000587,-0.00002797,-0.00000
 328,0.00000903,0.00000084,-0.00000866,0.00000773,-0.00002039,-0.000068
 37,-0.00001317,0.00000407,0.00000929,0.00000871,-0.00000088,0.00000036
 ,-0.00000051,0.00033833,-0.00004151,-0.00014134,-0.00001149,-0.0000139
 0,0.00001331,-0.00001544,0.00001336,-0.00004845,-0.00002761,-0.0000276
 5,0.00006124,0.00000025,-0.00000401,-0.00000041,0.00000275,0.00000189,
 0.00000044,-0.00000009,-0.00000023,-0.00000066,0.00000002,-0.00000009,
 -0.00000200,0.00000034,-0.00000074,0.00000153,0.00000141,0.00000134,-0
 .00000063,-0.00000037,0.00000036,-0.00000032,-0.00000104,-0.00000044,0
 .00000121,-0.00000017,0.00000026,0.00000011,0.00000097,0.00000042,-0.0
 0000074,0.00000058,-0.00000013,-0.00000016,-0.00000020,0.00000016,0.00
 000016,0.01043743,0.01037134,0.00022212,-0.12674966,-0.15234908,-0.008
 16326,0.00353703,0.00087727,0.00160273,-0.00002629,0.00146222,-0.00000
 698,-0.00000541,-0.00001501,0.00001014,-0.00021911,0.00024354,-0.00061
 157,-0.00041064,0.00010629,-0.00054498,0.00044810,0.00043336,0.0007183
 7,-0.02273376,-0.01674102,-0.00332663,0.13569179,0.15550763,0.00084241
 ,0.00047334,-0.00038914,-0.00221496,-0.00226785,0.00152534,0.00069557,
 -0.00084565,-0.00010730,-0.00013801,0.00106926,0.00057083,-0.00024452,
 -0.00024154,-0.00021983,0.00011505,-0.00003494,-0.00000258,-0.00023590
 ,0.00014068,-0.00005841,-0.00003144,-0.00003958,-0.00004152,0.00008210
 ,0.00001558,0.00002116,-0.00019146,0.00013538,-0.00031213,-0.00005344,
 -0.00007576,0.00006593,-0.00001335,0.00021058,0.00086464,0.00000104,-0
 .00001401,0.00002057,0.00007288,0.00000694,-0.00001194,0.00000196,0.00
 000768,0.00000084,-0.00000764,-0.00000511,-0.00000526,-0.00000324,-0.0
 0000523,0.00005122,0.00006580,-0.00003934,0.00005104,0.00003991,-0.000
 00054,0.00001663,-0.00000629,0.00001923,-0.00000640,0.00006041,0.00006
 614,0.00004637,0.00005064,0.00006720,0.00002240,-0.00001548,0.00000596
 ,0.00000466,-0.00000485,-0.00000104,-0.00000707,-0.00001345,0.00011528
 ,0.00004559,0.00000022,-0.00000999,-0.00001690,-0.00001136,-0.00000684
 ,0.00000247,0.00093359,-0.00017806,-0.00109009,0.00004774,0.00012741,-
 0.00020027,-0.00005303,-0.00026289,0.00052758,-0.00034446,0.00010984,-
 0.00095439,-0.00000537,0.00000946,-0.00002550,-0.00000636,0.00002239,-
 0.00006864,-0.00000162,0.00000077,-0.00000491,-0.00002401,-0.00002132,
 0.00000929,-0.00000599,0.00000021,-0.00001096,-0.00001152,-0.00000050,
 -0.00001685,0.00000150,-0.00000166,0.00000669,-0.00000219,-0.00001180,
 0.00002560,-0.00000052,-0.00000032,-0.00000052,0.00000306,0.00000688,-
 0.00001159,-0.00000632,0.00000146,-0.00001420,0.00000028,-0.00000029,0
 .00000079,0.03433054,0.01400965,-0.01006291,-0.01737437,-0.00771823,-0
 .04890041,-0.01927317,-0.01923028,0.00275016,-0.00727856,-0.00162299,-
 0.00649749,0.00008242,-0.00005241,0.00015924,0.00047777,0.00085323,0.0
 0088356,0.00081134,-0.00047921,0.00062667,-0.00004273,0.00094364,0.000
 14229,0.00426904,0.00444268,0.00170142,0.00462064,0.01030242,0.0588958
 9,-0.00012850,0.00001201,-0.00014535,0.00010685,-0.00005147,0.00033406
 ,-0.00004335,0.00006555,-0.00001104,0.00001088,-0.00006206,-0.00004048
 ,0.00001275,0.00002306,0.00000606,-0.00000562,0.00000585,0.00000240,0.
 00006090,-0.00001390,-0.00001482,0.00000365,0.00000892,0.00000681,-0.0
 0001700,-0.00000330,-0.00000410,0.00000620,-0.00001791,0.00001733,0.00
 000788,-0.00000492,-0.00000551,-0.00002427,0.00000365,-0.00002918,-0.0
 0000719,0.00000298,-0.00000215,-0.00000341,-0.00000159,0.00000638,-0.0
 0000025,-0.00000103,0.00000014,0.00000076,0.00000097,0.00000112,0.0000
 0020,0.00000252,-0.00000534,-0.00000360,0.00000351,-0.00000242,-0.0000
 0196,0.00000029,-0.00000251,-0.00000071,0.00000036,0.00000129,-0.00000
 308,-0.00000433,-0.00000412,-0.00000162,-0.00000133,0.00000076,0.00000
 085,-0.00000033,-0.00000106,0.00000019,0.00000007,0.00000062,0.0000002
 1,-0.00000904,-0.00000446,-0.00000009,0.00000115,0.00000155,0.00000196
 ,0.00000088,-0.00000056,-0.00000454,0.00000201,0.00001070,-0.00094195,
 -0.00031776,-0.00033972,0.00042525,-0.00043145,0.00136022,-0.00020803,
 0.00005374,-0.00062966,-0.01202726,-0.01379570,0.00805065,0.00014719,-
 0.00322014,-0.00468241,-0.21068910,-0.13825300,0.05930402,-0.00014950,
 0.00064773,-0.00054414,0.00431835,0.00107909,-0.00186160,0.00322723,-0
 .00239594,-0.00138396,-0.00029555,0.00038453,0.00022544,0.00025980,0.0
 0011569,-0.00053389,-0.00085475,0.00194361,0.00105213,-0.00014578,0.00
 004167,0.00013883,0.00006465,-0.00003710,0.00016990,-0.00000027,-0.000
 00507,-0.00001930,0.00005512,0.00003861,-0.00006822,-0.00002325,0.0000
 0926,0.00001739,0.00000625,-0.00000465,0.00000002,0.00000226,0.0000009
 2,-0.00000881,0.00016085,0.00001085,0.00020993,-0.00000061,0.00000038,
 0.00000053,-0.00000037,-0.00000028,-0.00000374,-0.00000021,0.00000063,
 0.00000429,0.00000140,-0.00000224,-0.00000225,0.00000553,0.00000026,-0
 .00000449,0.21710318,-0.00005903,0.00000472,-0.00005957,0.00004737,-0.
 00000356,0.00018277,-0.00002096,0.00002825,-0.00000999,0.00000878,-0.0
 0003986,-0.00002233,0.00000651,0.00001316,0.00000268,-0.00000538,0.000
 00244,0.00000050,0.00002736,-0.00000585,-0.00000696,0.00000172,0.00000
 488,0.00000347,-0.00000791,-0.00000239,-0.00000227,0.00000425,-0.00000
 886,0.00000972,0.00000274,-0.00000134,-0.00000228,-0.00001010,-0.00000
 016,-0.00001535,-0.00000328,0.00000124,-0.00000088,-0.00000182,-0.0000
 0053,0.00000246,-0.00000020,-0.00000086,0.00000010,0.00000035,0.000000
 47,0.00000044,-0.00000010,0.00000107,-0.00000223,-0.00000135,0.0000016
 4,-0.00000082,-0.00000105,-0.00000007,-0.00000137,-0.00000017,0.000000
 07,0.00000055,-0.00000142,-0.00000275,-0.00000183,-0.00000097,-0.00000
 081,0.00000003,0.00000062,0.00000028,-0.00000113,0.00000023,-0.0000008
 1,0.00000061,0.00000182,-0.00000418,-0.00000162,-0.00000043,0.00000063
 ,0.00000070,0.00000096,0.00000089,-0.00000007,-0.00000375,0.00000180,0
 .00000594,-0.00024429,-0.00033775,-0.00021055,0.00022030,0.00017428,0.
 00067507,-0.00017082,0.00006728,-0.00031796,-0.00439138,-0.00034965,0.
 00311617,-0.00343378,0.00512655,0.00038563,-0.13822815,-0.15463113,0.0
 5645040,0.00063264,-0.00027870,-0.00024406,-0.00833599,-0.00258790,0.0
 0191605,-0.00218528,0.00470403,0.00360027,0.00038627,-0.00064368,-0.00
 023386,-0.00049627,0.00029794,-0.00061869,0.00215396,-0.00240347,-0.00
 124831,-0.00004262,-0.00044921,0.00034344,0.00009815,0.00000145,0.0002
 2617,-0.00001484,0.00001410,-0.00001581,0.00003236,0.00001544,-0.00003
 706,-0.00001560,0.00000702,0.00001153,0.00000317,-0.00000258,-0.000000
 45,0.00000228,-0.00000031,-0.00000444,0.00007910,-0.00000218,0.0000845
 2,0.00000016,-0.00000002,0.00000073,-0.00000020,0.,-0.00000230,-0.0000
 0052,0.00000055,0.00000187,0.00000103,-0.00000261,-0.00000233,0.000002
 77,0.00000097,-0.00000248,0.15187610,0.15372964,-0.00006551,0.00001204
 ,-0.00008613,0.00002222,-0.00001999,0.00013734,-0.00001435,0.00002287,
 -0.00000632,0.00000707,-0.00002542,-0.00001528,0.00000462,0.00000887,0
 .00000223,-0.00000337,0.00000171,0.00000030,0.00002943,-0.00000574,-0.
 00000879,0.00000119,0.00000479,0.00000351,-0.00000773,-0.00000208,-0.0
 0000210,0.00000260,-0.00000640,0.00000735,0.00000263,-0.00000207,-0.00
 000201,-0.00000786,0.00000103,-0.00001228,-0.00000389,0.00000128,-0.00
 000079,-0.00000123,-0.00000075,0.00000345,-0.00000011,-0.00000072,0.00
 000005,0.00000022,0.00000040,0.00000046,0.00000009,0.00000097,-0.00000
 221,-0.00000108,0.00000129,-0.00000079,-0.00000073,0.00000014,-0.00000
 096,-0.00000005,0.00000014,0.00000053,-0.00000101,-0.00000170,-0.00000
 123,-0.00000063,0.00000005,0.00000010,0.00000051,0.00000010,-0.0000007
 4,0.00000011,-0.00000056,0.00000038,0.00000104,-0.00000276,-0.00000107
 ,-0.00000022,0.00000038,0.00000046,0.00000086,0.00000063,-0.00000021,-
 0.00000337,0.00000141,0.00000467,-0.00056172,-0.00035225,-0.00031029,-
 0.00032014,-0.00046536,0.00093242,-0.00003225,0.00008489,-0.00022132,-
 0.01635115,-0.01336005,0.00985553,-0.00412581,0.00075451,-0.00159055,0
 .05921043,0.05640196,-0.08197149,-0.00052119,-0.00021899,-0.00114086,0
 .02257470,0.01840110,-0.00442314,-0.00191330,0.00324141,-0.00420525,0.
 00022259,-0.00023636,0.00000699,0.00105449,0.00045413,0.00105915,0.000
 50420,-0.00161559,0.00074741,0.00035759,0.00049298,-0.00093426,-0.0001
 7972,-0.00001107,-0.00026507,0.00000598,0.00000183,0.00002515,0.000028
 54,0.00001724,-0.00002993,-0.00001119,0.00000392,0.00000751,0.00000173
 ,-0.00000265,-0.00000074,0.00000272,0.00000100,-0.00000294,0.00008923,
 -0.00000634,0.00012008,-0.00000005,0.00000003,0.00000048,-0.00000018,0
 .,-0.00000164,-0.00000036,0.00000016,0.00000129,0.00000061,-0.00000169
 ,-0.00000169,0.00000254,0.00000064,-0.00000272,-0.06144603,-0.06273311
 ,0.08194737,0.00018134,0.00004714,0.00005449,-0.00048419,-0.00003600,-
 0.00109536,0.00013182,-0.00014828,0.00004191,-0.00003642,0.00021650,0.
 00012144,-0.00003978,-0.00007063,-0.00001525,0.00002267,-0.00001606,-0
 .00000410,-0.00008022,0.00003235,0.00001131,-0.00000832,-0.00001450,-0
 .00001129,0.00002722,0.00000633,0.00000678,-0.00002045,0.00004989,-0.0
 0005517,-0.00002092,0.00000760,0.00001317,0.00006993,0.00000636,0.0000
 7275,0.00000233,-0.00000392,0.00000352,0.00001073,0.00000186,-0.000007
 04,0.00000085,0.00000291,-0.00000030,-0.00000230,-0.00000169,-0.000001
 25,-0.00000044,-0.00000604,0.00001284,0.00000982,-0.00000914,0.0000071
 7,0.00000476,0.00000066,0.00000766,0.00000434,-0.00000136,-0.00000326,
 0.00000859,0.00001368,0.00001089,0.00000623,0.00000946,-0.00000126,-0.
 00000234,0.00000022,0.00000308,-0.00000069,0.00000051,-0.00000262,-0.0
 0000473,0.00002653,0.00001100,0.00000122,-0.00000374,-0.00000461,-0.00
 000329,-0.00000258,0.00000093,0.00000851,-0.00000781,-0.00003284,0.000
 67207,0.00030321,-0.00041057,-0.00098139,0.00135831,0.00196017,-0.0005
 8435,0.00000254,-0.00089605,-0.05415545,-0.00689213,-0.00181392,0.0054
 6051,-0.00784632,0.02120073,0.00514191,0.00792101,-0.02156706,-0.00176
 527,-0.00556029,-0.00002148,-0.00084247,-0.00429288,-0.00407722,-0.001
 11594,-0.00024239,-0.00010842,0.00022477,-0.00033511,0.00110541,-0.000
 49330,0.00048083,0.00007496,-0.00000841,0.00062471,-0.00086086,0.00018
 123,-0.00003349,0.00007491,0.00012689,0.00002136,0.00000547,0.00001442
 ,0.00002612,0.00001532,-0.00015417,-0.00007927,0.00027321,0.00011280,-
 0.00003675,-0.00007111,-0.00002959,0.00001271,0.00000831,-0.00000361,0
 .00000141,0.00002520,-0.00009471,-0.00007491,-0.00006932,-0.00000003,-
 0.00000007,-0.00000367,0.00000246,0.00000139,0.00001552,0.00000104,-0.
 00000294,-0.00001349,-0.00000583,0.00001305,0.00001046,-0.00002092,-0.
 00000574,0.00001419,-0.00040851,0.00208665,0.00144629,0.04893957,0.000
 14098,0.00003992,0.00001228,-0.00042462,0.00004874,-0.00081933,0.00010
 637,-0.00013381,0.00001989,0.00000630,0.00013067,0.00008003,-0.0000336
 1,-0.00005295,-0.00001795,0.00000964,-0.00001274,-0.00000550,-0.000066
 72,0.00002450,0.00000970,-0.00000446,-0.00001002,-0.00000753,0.0000206
 3,0.00000360,0.00000380,-0.00001667,0.00003079,-0.00003976,-0.00001667
 ,0.00000954,0.00001067,0.00005120,-0.00000124,0.00004590,0.00000607,-0
 .00000335,0.00000384,0.00001007,0.00000228,-0.00000386,0.00000037,0.00
 000116,0.00000007,-0.00000195,-0.00000190,-0.00000207,0.00000022,-0.00
 000286,0.00001035,0.00000736,-0.00000815,0.00000385,0.00000494,0.00000
 014,0.00000524,0.00000131,-0.00000051,-0.00000139,0.00000687,0.0000092
 4,0.00000877,0.00000578,0.00000711,-0.00000026,-0.00000019,0.00000055,
 0.00000022,-0.00000116,-0.00000099,0.00000055,0.00000313,0.00002097,0.
 00001028,-0.00000043,-0.00000199,-0.00000304,-0.00000253,-0.00000095,0
 .00000093,0.00000526,-0.00000547,-0.00001772,0.00006064,0.00061592,-0.
 00028013,0.00206404,-0.00305635,0.00070774,0.00079113,0.00096416,-0.00
 054264,-0.00735600,-0.08679331,0.10106805,0.00043942,-0.00159348,0.017
 98765,-0.00100499,0.00813104,-0.00797022,-0.00560614,0.00197783,0.0018
 6310,-0.00440637,0.00477143,0.00027737,-0.00022149,-0.00062557,-0.0005
 6112,0.00014587,-0.00013530,0.00083978,0.00044869,-0.00081881,-0.00033
 066,0.00018791,-0.00011377,-0.00053335,0.00001030,0.00014416,0.0001316
 3,0.00001856,0.00008108,0.00006034,0.00002459,-0.00001480,-0.00000413,
 -0.00011371,-0.00009242,0.00015229,0.00006639,-0.00002001,-0.00005049,
 -0.00002106,0.00000667,0.00000141,0.00000300,0.00000307,0.00001854,-0.
 00007551,-0.00000918,0.00001431,0.00000278,-0.00000117,-0.00000060,0.0
 0000090,0.00000081,0.00000954,-0.00000081,-0.00000264,-0.00000800,-0.0
 0000799,0.00000209,0.00000183,-0.00001406,0.00000120,0.00000652,0.0022
 9769,-0.00243959,-0.00084222,0.01244873,0.07892466,0.00001610,-0.00000
 667,0.00002598,-0.00006117,-0.00007704,0.00028685,0.00001065,-0.000003
 37,-0.00000911,0.00001549,-0.00000426,-0.00001492,0.00000023,0.0000002
 7,-0.00000467,-0.00000121,-0.00000075,0.00000029,-0.00000649,-0.000006
 61,0.00000855,0.00000080,-0.00000027,-0.00000047,0.00000111,-0.0000002
 6,-0.00000021,-0.00000044,-0.00000099,-0.00000060,-0.00000331,0.000005
 74,0.00000081,0.00001372,0.00000263,-0.00000395,0.00000257,0.00000012,
 0.00000090,-0.00000178,0.00000072,-0.00000122,-0.00000040,-0.00000023,
 0.,0.00000038,-0.00000025,0.00000011,-0.00000074,0.00000108,0.00000054
 ,0.00000060,-0.00000022,-0.00000073,0.00000012,-0.00000047,0.00000006,
 0.00000041,-0.00000051,-0.00000008,-0.00000044,-0.00000129,-0.00000001
 ,0.00000062,0.00000054,0.00000062,0.00000033,0.00000011,-0.00000041,0.
 00000022,-0.00000035,0.00000015,0.00000099,0.00000023,0.00000037,-0.00
 000017,0.00000006,-0.00000005,0.00000002,0.00000049,0.00000028,-0.0000
 0274,-0.00000197,-0.00000062,0.00018179,0.00013590,0.00043327,0.000188
 65,-0.00055334,-0.00236509,-0.00296610,-0.00188961,-0.00013400,-0.0005
 7319,0.10184370,-0.30876057,-0.00047847,0.00339363,-0.00459405,0.00161
 737,0.00768812,-0.01135894,0.00016425,0.00198146,0.00163899,-0.0038216
 7,0.00045997,-0.00002594,-0.00017050,-0.00061067,0.00058791,-0.0001527
 1,-0.00000294,-0.00016829,0.00015998,-0.00027218,-0.00026520,0.0002797
 7,0.00023792,-0.00057620,-0.00004121,0.00005336,-0.00002191,0.00001195
 ,0.00006587,-0.00005850,0.00001903,-0.00000169,0.00000546,0.00017372,0
 .00008870,0.00011522,0.00003272,-0.00000777,-0.00002365,-0.00000595,-0
 .00000010,-0.00000062,0.00000426,0.00000207,0.00000341,-0.00003066,0.0
 0002485,-0.00003956,0.00000087,0.00000002,0.00000041,0.00000069,0.0000
 0058,0.00000248,-0.00000058,-0.00000101,-0.00000064,-0.00000104,-0.000
 00040,0.00000168,0.00000433,0.00000332,0.00000104,0.00087878,-0.001221
 72,0.00037859,0.00453843,-0.11132450,0.32493625\\0.00000764,-0.0000105
 4,0.00000711,0.00002659,-0.00002109,-0.00001211,-0.00000871,0.00000176
 ,0.00001905,-0.00001544,0.00000433,-0.00000036,0.00000396,-0.00000067,
 -0.00000244,0.00000140,0.00000050,-0.00000264,-0.00001001,0.00000270,0
 .00000084,0.00000002,-0.00000388,-0.00000065,0.00000434,-0.00000112,0.
 00000066,0.,-0.00000319,-0.00000504,0.00000420,0.00000430,0.00000302,-
 0.00000165,-0.00000288,-0.00000428,0.00000101,-0.00000255,0.00000160,0
 .00000013,-0.00000167,0.00000047,0.00000235,-0.00000086,-0.00000094,0.
 00000017,-0.00000192,-0.00000060,-0.00000080,-0.00000003,-0.00000015,-
 0.00000044,0.00000045,0.00000116,-0.00000275,0.00000030,0.00000103,-0.
 00000063,0.00000007,0.00000028,-0.00000024,0.00000173,0.00000108,0.000
 00260,-0.00000066,-0.00000023,0.00000165,0.00000139,-0.00000026,0.0000
 0140,0.00000131,-0.00000151,0.00000341,0.00000228,-0.00000161,0.000001
 49,0.00000090,-0.00000186,0.00000051,-0.00000345,-0.00000052,0.0000002
 8,0.00000357,0.00000118,-0.00002141,-0.00002115,-0.00000060,0.00001746
 ,0.00003160,-0.00002902,-0.00000302,-0.00000008,0.00003992,0.00004314,
 0.00002188,0.00001736,-0.00001232,-0.00001560,0.00001621,-0.00002224,-
 0.00000070,-0.00003414,-0.00002543,0.00000151,-0.00005126,-0.00001171,
 -0.00001872,0.00002397,0.00003322,0.00001478,0.00001039,0.00000698,0.0
 0000008,0.00000900,-0.00000550,0.00001039,0.00000218,-0.00000313,-0.00
 000305,0.00000495,0.00000145,-0.00000841,0.00000005,0.00000297,-0.0000
 0349,0.00000332,0.00000034,-0.00000219,-0.00000049,-0.00000800,0.00001
 473,-0.00000268,0.00000484,-0.00000787,0.00000091,-0.00000185,0.000005
 46,0.00000098,-0.00000074,-0.00000130,0.00000837,-0.00000711,-0.000001
 06,-0.00001157,0.00000014,0.00000137,-0.00000110,0.00000111,0.00000164
 ,0.00000191,0.00000039,0.00000369,-0.00000693,-0.00000164,0.00000328,-
 0.00000065,-0.00000025,0.00000305,0.00000090,-0.00000323,-0.00000013,0
 .00000046,-0.00000695,-0.00000078,-0.00000469\\\@


 SUCCESS-- IF YOU HAVE TRIED TO DO SOMETHING AND FAILED
           YOU ARE BETTER OFF THAN IF YOU HAD TRIED TO DO
           NOTHING AND SUCCEEDED.

                   -- FROM THE BACK OF A SUGAR PACKET
 Job cpu time:       3 days  6 hours  6 minutes 24.1 seconds.
 Elapsed time:       0 days  2 hours 10 minutes 17.0 seconds.
 File lengths (MBytes):  RWF=   5557 Int=      0 D2E=      0 Chk=    108 Scr=      1
 Normal termination of Gaussian 16 at Tue Sep  3 18:47:37 2019.
