 Entering Gaussian System, Link 0=g16
 Initial command:
 /nopt/nrel/apps/gaussian/g16B/g16/l1.exe "/dev/shm/Gau-168642.inp" -scrdir="/dev/shm/"
 Default linda workers: r6i0n0
 Default is to use  36 SMP processors on each worker.
 Entering Link 1 = /nopt/nrel/apps/gaussian/g16B/g16/l1.exe PID=    168644.
  
 Copyright (c) 1988-2017, Gaussian, Inc.  All Rights Reserved.
  
 This is part of the Gaussian(R) 16 program.  It is based on
 the Gaussian(R) 09 system (copyright 2009, Gaussian, Inc.),
 the Gaussian(R) 03 system (copyright 2003, Gaussian, Inc.),
 the Gaussian(R) 98 system (copyright 1998, Gaussian, Inc.),
 the Gaussian(R) 94 system (copyright 1995, Gaussian, Inc.),
 the Gaussian 92(TM) system (copyright 1992, Gaussian, Inc.),
 the Gaussian 90(TM) system (copyright 1990, Gaussian, Inc.),
 the Gaussian 88(TM) system (copyright 1988, Gaussian, Inc.),
 the Gaussian 86(TM) system (copyright 1986, Carnegie Mellon
 University), and the Gaussian 82(TM) system (copyright 1983,
 Carnegie Mellon University). Gaussian is a federally registered
 trademark of Gaussian, Inc.
  
 This software contains proprietary and confidential information,
 including trade secrets, belonging to Gaussian, Inc.
  
 This software is provided under written license and may be
 used, copied, transmitted, or stored only in accord with that
 written license.
  
 The following legend is applicable only to US Government
 contracts under FAR:
  
                    RESTRICTED RIGHTS LEGEND
  
 Use, reproduction and disclosure by the US Government is
 subject to restrictions as set forth in subparagraphs (a)
 and (c) of the Commercial Computer Software - Restricted
 Rights clause in FAR 52.227-19.
  
 Gaussian, Inc.
 340 Quinnipiac St., Bldg. 40, Wallingford CT 06492
  
  
 ---------------------------------------------------------------
 Warning -- This program may not be used in any manner that
 competes with the business of Gaussian, Inc. or will provide
 assistance to any competitor of Gaussian, Inc.  The licensee
 of this program is prohibited from giving any competitor of
 Gaussian, Inc. access to this program.  By using this program,
 the user acknowledges that Gaussian, Inc. is engaged in the
 business of creating and licensing software in the field of
 computational chemistry and represents and warrants to the
 licensee that it is not a competitor of Gaussian, Inc. and that
 it will not use this program in any manner prohibited above.
 ---------------------------------------------------------------
  

 Cite this work as:
 Gaussian 16, Revision B.01,
 M. J. Frisch, G. W. Trucks, H. B. Schlegel, G. E. Scuseria, 
 M. A. Robb, J. R. Cheeseman, G. Scalmani, V. Barone, 
 G. A. Petersson, H. Nakatsuji, X. Li, M. Caricato, A. V. Marenich, 
 J. Bloino, B. G. Janesko, R. Gomperts, B. Mennucci, H. P. Hratchian, 
 J. V. Ortiz, A. F. Izmaylov, J. L. Sonnenberg, D. Williams-Young, 
 F. Ding, F. Lipparini, F. Egidi, J. Goings, B. Peng, A. Petrone, 
 T. Henderson, D. Ranasinghe, V. G. Zakrzewski, J. Gao, N. Rega, 
 G. Zheng, W. Liang, M. Hada, M. Ehara, K. Toyota, R. Fukuda, 
 J. Hasegawa, M. Ishida, T. Nakajima, Y. Honda, O. Kitao, H. Nakai, 
 T. Vreven, K. Throssell, J. A. Montgomery, Jr., J. E. Peralta, 
 F. Ogliaro, M. J. Bearpark, J. J. Heyd, E. N. Brothers, K. N. Kudin, 
 V. N. Staroverov, T. A. Keith, R. Kobayashi, J. Normand, 
 K. Raghavachari, A. P. Rendell, J. C. Burant, S. S. Iyengar, 
 J. Tomasi, M. Cossi, J. M. Millam, M. Klene, C. Adamo, R. Cammi, 
 J. W. Ochterski, R. L. Martin, K. Morokuma, O. Farkas, 
 J. B. Foresman, and D. J. Fox, Gaussian, Inc., Wallingford CT, 2016.
 
 ******************************************
 Gaussian 16:  ES64L-G16RevB.01 20-Dec-2017
                28-Jun-2019 
 ******************************************
 %RWF=/dev/shm/,5GB,/tmp/scratch/919170/,-1
 %NoSave
 %OldChk=pet_mono_843_freq2.chk
 %Chk=/dev/shm/pet_mono_843_freq2tzvp.chk
 SetLPE:    new flags="-opt 'Tsnet.Node.lindarsharg: ssh'  -nodelist 'r6i0n0.ib0.cm.hpc.nrel.gov' -env GAUSS_MDEF=9663676416 -env GAUSS_EXEDIR="/nopt/nrel/apps/gaussian/g16B/g16/bsd:/nopt/nrel/apps/gaussian/g16B/g16/local:/nopt/nrel/apps/gaussian/g16B/g16/extras:/nopt/nrel/apps/gaussian/g16B/g16""
 Will use up to    1 processors via Linda.
 Copying data from "pet_mono_843_freq2.chk" to current chk file "/dev/shm/pet_mono_843_freq2tzvp.chk"
 IOpt=  2 FromEx=T IUOpen= 4 IOptOp= 5 NList=   0 IFRang= 0 IUIn= 4 IUOut= 2.
 Default route: CacheSize=180224 MaxDisk=256GB
 ----------------------------------------------------------------------
 # geom=allcheck guess=read m062x/Def2TZVP nosymm scf=xqc opt=ReadFC fr
 eq=NoRaman
 ----------------------------------------------------------------------
 1/4=180224,10=3,18=20,19=15,26=3,29=7,38=1/1,3;
 2/4=180224,9=110,12=2,15=1,40=1/2;
 3/4=180224,5=44,7=101,11=2,14=-4,25=1,30=1,71=1,74=-55,116=-2/1,2,3;
 4/4=180224,5=1/1;
 5/4=180224,5=2,8=3,13=1,38=6/2,8;
 6/4=180224,7=2,8=2,9=2,10=2,28=1/1;
 7/4=180224,30=1/1,2,3,16;
 1/4=180224,18=20,19=15,26=3/3(2);
 2/4=180224,9=110,15=1/2;
 99/4=180224/99;
 2/4=180224,9=110,15=1/2;
 3/4=180224,5=44,7=101,11=2,14=-2,25=1,30=1,71=1,74=-55/1,2,3;
 4/4=180224,5=5,16=3,69=1/1;
 5/4=180224,5=2,8=3,13=1,38=5/2,8;
 7/4=180224,30=1/1,2,3,16;
 1/4=180224,18=20,19=15,26=3/3(-5);
 2/4=180224,9=110,15=1/2;
 6/4=180224,7=2,8=2,9=2,10=2,19=2,28=1/1;
 99/4=180224,9=1/99;
 Structure from the checkpoint file:  "/dev/shm/pet_mono_843_freq2tzvp.chk"
 --------------------------
 narrow results from confab
 --------------------------
 Charge =  0 Multiplicity = 1
 Redundant internal coordinates found in file.  (old form).
 O,0,4.8834819376,2.6080698541,0.5004471804
 H,0,4.0533456704,2.1569139398,0.71092948
 C,0,-0.9320378943,2.2372355155,4.0954199371
 H,0,-1.4976160009,1.329088339,4.3060020226
 C,0,0.1227607592,2.2431369213,3.1914967654
 H,0,0.4227945554,1.3398853803,2.6594285308
 O,0,2.2665600105,2.3837378576,1.3708635472
 C,0,3.5922935438,4.6699624459,0.8363930818
 H,0,3.8187476117,5.7421644629,0.8307403489
 H,0,3.1916277342,4.376305681,-0.14614328
 C,0,4.8481457839,3.8499778087,1.1285109696
 H,0,5.7116576565,4.4198310251,0.7535826472
 H,0,4.9638977126,3.7872994364,2.2296813594
 C,0,0.8225123144,3.4294788635,2.949911062
 C,0,1.9485798969,3.3845507894,1.9680834031
 O,0,-2.6924206227,4.5334506855,6.278964896
 C,0,-1.2849874224,3.4175179035,4.7571859963
 C,0,-2.4259801458,3.3595754259,5.7209364403
 O,0,2.5584400644,4.5541989917,1.8255808453
 C,0,0.4699467554,4.6103661173,3.6105860071
 H,0,1.0271258881,5.5244537827,3.4087274325
 C,0,-0.5855058168,4.6041446529,4.5168165825
 H,0,-0.8754082209,5.5133130864,5.0423086162
 O,0,-3.0388327989,2.3466326303,5.9613191351
 C,0,-5.1189901581,4.3050062637,6.810701232
 H,0,-5.1926103151,4.6529428566,5.7602598037
 H,0,-5.8062066365,4.9320461704,7.3985063972
 C,0,-3.7000500202,4.5919667741,7.2996343983
 H,0,-3.4463777933,3.884103049,8.1038151242
 H,0,-3.6177950304,5.6169716295,7.6784816993
 O,0,-5.5315758745,2.9866855473,6.9832387995
 H,0,-4.8505231445,2.4199861125,6.5935895391
 Recover connectivity data from disk.

 GradGradGradGradGradGradGradGradGradGradGradGradGradGradGradGradGradGrad
 Berny optimization.
 Initialization pass.
 Force constant matrix read from checkpoint file:
 "/dev/shm/pet_mono_843_freq2tzvp.chk"
                           ----------------------------
                           !    Initial Parameters    !
                           ! (Angstroms and Degrees)  !
 --------------------------                            --------------------------
 ! Name  Definition              Value          Derivative Info.                !
 --------------------------------------------------------------------------------
 ! R1    R(1,2)                  0.968          D2E/DX2 =    0.5245             !
 ! R2    R(1,11)                 1.3921         D2E/DX2 =    0.4181             !
 ! R3    R(3,4)                  1.0904         D2E/DX2 =    0.37               !
 ! R4    R(3,5)                  1.3891         D2E/DX2 =    0.4282             !
 ! R5    R(3,17)                 1.3984         D2E/DX2 =    0.4106             !
 ! R6    R(5,6)                  1.0904         D2E/DX2 =    0.3698             !
 ! R7    R(5,14)                 1.3984         D2E/DX2 =    0.4109             !
 ! R8    R(7,15)                 1.2081         D2E/DX2 =    0.8943             !
 ! R9    R(8,9)                  1.0959         D2E/DX2 =    0.3527             !
 ! R10   R(8,10)                 1.101          D2E/DX2 =    0.3424             !
 ! R11   R(8,11)                 1.528          D2E/DX2 =    0.2955             !
 ! R12   R(8,19)                 1.4355         D2E/DX2 =    0.3519             !
 ! R13   R(11,12)                1.1004         D2E/DX2 =    0.3419             !
 ! R14   R(11,13)                1.109          D2E/DX2 =    0.3214             !
 ! R15   R(14,15)                1.4947         D2E/DX2 =    0.3364             !
 ! R16   R(14,20)                1.3983         D2E/DX2 =    0.4108             !
 ! R17   R(15,19)                1.3268         D2E/DX2 =    0.4776             !
 ! R18   R(16,18)                1.3268         D2E/DX2 =    0.4773             !
 ! R19   R(16,28)                1.4354         D2E/DX2 =    0.3521             !
 ! R20   R(17,18)                1.4947         D2E/DX2 =    0.3363             !
 ! R21   R(17,22)                1.3983         D2E/DX2 =    0.4109             !
 ! R22   R(18,24)                1.2081         D2E/DX2 =    0.8945             !
 ! R23   R(20,21)                1.0894         D2E/DX2 =    0.3721             !
 ! R24   R(20,22)                1.3911         D2E/DX2 =    0.4238             !
 ! R25   R(22,23)                1.0894         D2E/DX2 =    0.3718             !
 ! R26   R(25,26)                1.109          D2E/DX2 =    0.3216             !
 ! R27   R(25,27)                1.1004         D2E/DX2 =    0.3418             !
 ! R28   R(25,28)                1.528          D2E/DX2 =    0.2957             !
 ! R29   R(25,31)                1.3921         D2E/DX2 =    0.4182             !
 ! R30   R(28,29)                1.101          D2E/DX2 =    0.3426             !
 ! R31   R(28,30)                1.0959         D2E/DX2 =    0.3529             !
 ! R32   R(31,32)                0.9679         D2E/DX2 =    0.523              !
 ! A1    A(2,1,11)             107.2126         D2E/DX2 =    0.2123             !
 ! A2    A(4,3,5)              121.5376         D2E/DX2 =    0.0783             !
 ! A3    A(4,3,17)             118.7273         D2E/DX2 =    0.0796             !
 ! A4    A(5,3,17)             119.7351         D2E/DX2 =    0.0825             !
 ! A5    A(3,5,6)              121.5289         D2E/DX2 =    0.0785             !
 ! A6    A(3,5,14)             119.7351         D2E/DX2 =    0.0826             !
 ! A7    A(6,5,14)             118.736          D2E/DX2 =    0.0798             !
 ! A8    A(9,8,10)             109.3636         D2E/DX2 =    0.0274             !
 ! A9    A(9,8,11)             110.8664         D2E/DX2 =    0.0817             !
 ! A10   A(9,8,19)             103.3722         D2E/DX2 =    0.0812             !
 ! A11   A(10,8,11)            109.0609         D2E/DX2 =    0.066              !
 ! A12   A(10,8,19)            109.3506         D2E/DX2 =    0.0703             !
 ! A13   A(11,8,19)            114.639          D2E/DX2 =    0.2335             !
 ! A14   A(1,11,8)             114.4144         D2E/DX2 =    0.1997             !
 ! A15   A(1,11,12)            106.7582         D2E/DX2 =    0.0694             !
 ! A16   A(1,11,13)            113.2593         D2E/DX2 =    0.069              !
 ! A17   A(8,11,12)            107.572          D2E/DX2 =    0.0783             !
 ! A18   A(8,11,13)            107.8143         D2E/DX2 =    0.0789             !
 ! A19   A(12,11,13)           106.5986         D2E/DX2 =    0.0257             !
 ! A20   A(5,14,15)            117.7093         D2E/DX2 =    0.1455             !
 ! A21   A(5,14,20)            120.5748         D2E/DX2 =    0.0882             !
 ! A22   A(15,14,20)           121.7158         D2E/DX2 =    0.1466             !
 ! A23   A(7,15,14)            123.2262         D2E/DX2 =    0.1938             !
 ! A24   A(7,15,19)            123.797          D2E/DX2 =    0.2581             !
 ! A25   A(14,15,19)           112.9767         D2E/DX2 =    0.2166             !
 ! A26   A(18,16,28)           118.4302         D2E/DX2 =    0.5382             !
 ! A27   A(3,17,18)            117.7155         D2E/DX2 =    0.144              !
 ! A28   A(3,17,22)            120.5744         D2E/DX2 =    0.0881             !
 ! A29   A(18,17,22)           121.7101         D2E/DX2 =    0.145              !
 ! A30   A(16,18,17)           112.9663         D2E/DX2 =    0.212              !
 ! A31   A(16,18,24)           123.7992         D2E/DX2 =    0.255              !
 ! A32   A(17,18,24)           123.2345         D2E/DX2 =    0.1937             !
 ! A33   A(8,19,15)            118.4338         D2E/DX2 =    0.5584             !
 ! A34   A(14,20,21)           119.4793         D2E/DX2 =    0.0803             !
 ! A35   A(14,20,22)           119.6898         D2E/DX2 =    0.0827             !
 ! A36   A(21,20,22)           120.8309         D2E/DX2 =    0.0799             !
 ! A37   A(17,22,20)           119.6907         D2E/DX2 =    0.0826             !
 ! A38   A(17,22,23)           119.4855         D2E/DX2 =    0.08               !
 ! A39   A(20,22,23)           120.8238         D2E/DX2 =    0.0796             !
 ! A40   A(26,25,27)           106.6019         D2E/DX2 =    0.0258             !
 ! A41   A(26,25,28)           107.8068         D2E/DX2 =    0.0791             !
 ! A42   A(26,25,31)           113.2551         D2E/DX2 =    0.0691             !
 ! A43   A(27,25,28)           107.5771         D2E/DX2 =    0.0782             !
 ! A44   A(27,25,31)           106.7574         D2E/DX2 =    0.069              !
 ! A45   A(28,25,31)           114.4192         D2E/DX2 =    0.1989             !
 ! A46   A(16,28,25)           114.6252         D2E/DX2 =    0.2309             !
 ! A47   A(16,28,29)           109.3552         D2E/DX2 =    0.0702             !
 ! A48   A(16,28,30)           103.3708         D2E/DX2 =    0.0805             !
 ! A49   A(25,28,29)           109.0832         D2E/DX2 =    0.0663             !
 ! A50   A(25,28,30)           110.8534         D2E/DX2 =    0.0813             !
 ! A51   A(29,28,30)           109.3637         D2E/DX2 =    0.0274             !
 ! A52   A(25,31,32)           107.2192         D2E/DX2 =    0.2125             !
 ! D1    D(2,1,11,8)           -52.0023         D2E/DX2 =    0.0205             !
 ! D2    D(2,1,11,12)         -170.88           D2E/DX2 =    0.0254             !
 ! D3    D(2,1,11,13)           72.1092         D2E/DX2 =    0.0267             !
 ! D4    D(4,3,5,6)              0.0396         D2E/DX2 =    0.0101             !
 ! D5    D(4,3,5,14)           179.9981         D2E/DX2 =    0.0089             !
 ! D6    D(17,3,5,6)           179.9969         D2E/DX2 =    0.009              !
 ! D7    D(17,3,5,14)           -0.0446         D2E/DX2 =    0.009              !
 ! D8    D(4,3,17,18)            0.0107         D2E/DX2 =    0.0081             !
 ! D9    D(4,3,17,22)          179.9718         D2E/DX2 =    0.0076             !
 ! D10   D(5,3,17,18)         -179.9478         D2E/DX2 =    0.0071             !
 ! D11   D(5,3,17,22)            0.0134         D2E/DX2 =    0.0079             !
 ! D12   D(3,5,14,15)         -179.9579         D2E/DX2 =    0.0071             !
 ! D13   D(3,5,14,20)            0.0117         D2E/DX2 =    0.0079             !
 ! D14   D(6,5,14,15)            0.0018         D2E/DX2 =    0.0082             !
 ! D15   D(6,5,14,20)          179.9714         D2E/DX2 =    0.0076             !
 ! D16   D(9,8,11,1)          -147.5522         D2E/DX2 =    0.0215             !
 ! D17   D(9,8,11,12)          -29.1346         D2E/DX2 =    0.018              !
 ! D18   D(9,8,11,13)           85.4792         D2E/DX2 =    0.0168             !
 ! D19   D(10,8,11,1)          -27.0797         D2E/DX2 =    0.0186             !
 ! D20   D(10,8,11,12)          91.3379         D2E/DX2 =    0.0174             !
 ! D21   D(10,8,11,13)        -154.0483         D2E/DX2 =    0.0194             !
 ! D22   D(19,8,11,1)           95.8875         D2E/DX2 =    0.034              !
 ! D23   D(19,8,11,12)        -145.6949         D2E/DX2 =    0.0255             !
 ! D24   D(19,8,11,13)         -31.0811         D2E/DX2 =    0.0207             !
 ! D25   D(9,8,19,15)          172.3722         D2E/DX2 =    0.028              !
 ! D26   D(10,8,19,15)          55.9686         D2E/DX2 =    0.0199             !
 ! D27   D(11,8,19,15)         -66.8425         D2E/DX2 =    0.0386             !
 ! D28   D(5,14,15,7)            0.8409         D2E/DX2 =    0.0153             !
 ! D29   D(5,14,15,19)        -179.0689         D2E/DX2 =    0.0138             !
 ! D30   D(20,14,15,7)        -179.1283         D2E/DX2 =    0.014              !
 ! D31   D(20,14,15,19)          0.9619         D2E/DX2 =    0.0143             !
 ! D32   D(5,14,20,21)        -179.9892         D2E/DX2 =    0.0076             !
 ! D33   D(5,14,20,22)           0.0529         D2E/DX2 =    0.008              !
 ! D34   D(15,14,20,21)         -0.0209         D2E/DX2 =    0.0079             !
 ! D35   D(15,14,20,22)       -179.9788         D2E/DX2 =    0.0073             !
 ! D36   D(7,15,19,8)            4.7401         D2E/DX2 =    0.0288             !
 ! D37   D(14,15,19,8)        -175.3507         D2E/DX2 =    0.0246             !
 ! D38   D(28,16,18,17)       -175.32           D2E/DX2 =    0.0254             !
 ! D39   D(28,16,18,24)          4.7623         D2E/DX2 =    0.0293             !
 ! D40   D(18,16,28,25)        -66.9787         D2E/DX2 =    0.0383             !
 ! D41   D(18,16,28,29)         55.8554         D2E/DX2 =    0.0201             !
 ! D42   D(18,16,28,30)        172.2604         D2E/DX2 =    0.0281             !
 ! D43   D(3,17,18,16)        -179.0508         D2E/DX2 =    0.0139             !
 ! D44   D(3,17,18,24)           0.8674         D2E/DX2 =    0.0153             !
 ! D45   D(22,17,18,16)          0.9885         D2E/DX2 =    0.0143             !
 ! D46   D(22,17,18,24)       -179.0933         D2E/DX2 =    0.0141             !
 ! D47   D(3,17,22,20)           0.0512         D2E/DX2 =    0.008              !
 ! D48   D(3,17,22,23)        -179.9888         D2E/DX2 =    0.0077             !
 ! D49   D(18,17,22,20)       -179.9892         D2E/DX2 =    0.0073             !
 ! D50   D(18,17,22,23)         -0.0293         D2E/DX2 =    0.008              !
 ! D51   D(14,20,22,17)         -0.0837         D2E/DX2 =    0.0091             !
 ! D52   D(14,20,22,23)        179.9569         D2E/DX2 =    0.0088             !
 ! D53   D(21,20,22,17)        179.959          D2E/DX2 =    0.0087             !
 ! D54   D(21,20,22,23)         -0.0004         D2E/DX2 =    0.0099             !
 ! D55   D(26,25,28,16)        -31.045          D2E/DX2 =    0.0205             !
 ! D56   D(26,25,28,29)       -154.0257         D2E/DX2 =    0.0193             !
 ! D57   D(26,25,28,30)         85.4953         D2E/DX2 =    0.0168             !
 ! D58   D(27,25,28,16)       -145.6615         D2E/DX2 =    0.025              !
 ! D59   D(27,25,28,29)         91.3579         D2E/DX2 =    0.0174             !
 ! D60   D(27,25,28,30)        -29.1211         D2E/DX2 =    0.018              !
 ! D61   D(31,25,28,16)         95.9154         D2E/DX2 =    0.0328             !
 ! D62   D(31,25,28,29)        -27.0652         D2E/DX2 =    0.0186             !
 ! D63   D(31,25,28,30)       -147.5442         D2E/DX2 =    0.0212             !
 ! D64   D(26,25,31,32)         72.2329         D2E/DX2 =    0.0266             !
 ! D65   D(27,25,31,32)       -170.7552         D2E/DX2 =    0.0254             !
 ! D66   D(28,25,31,32)        -51.8688         D2E/DX2 =    0.0204             !
 --------------------------------------------------------------------------------
 Trust Radius=3.00D-01 FncErr=1.00D-07 GrdErr=1.00D-06 EigMax=2.50D+02 EigMin=1.00D-04
 Number of steps in this run=    160 maximum allowed number of steps=    192.
 GradGradGradGradGradGradGradGradGradGradGradGradGradGradGradGradGradGrad

                          Input orientation:                          
 ---------------------------------------------------------------------
 Center     Atomic      Atomic             Coordinates (Angstroms)
 Number     Number       Type             X           Y           Z
 ---------------------------------------------------------------------
      1          8           0        4.883482    2.608070    0.500447
      2          1           0        4.053346    2.156914    0.710929
      3          6           0       -0.932038    2.237236    4.095420
      4          1           0       -1.497616    1.329088    4.306002
      5          6           0        0.122761    2.243137    3.191497
      6          1           0        0.422795    1.339885    2.659429
      7          8           0        2.266560    2.383738    1.370864
      8          6           0        3.592294    4.669962    0.836393
      9          1           0        3.818748    5.742164    0.830740
     10          1           0        3.191628    4.376306   -0.146143
     11          6           0        4.848146    3.849978    1.128511
     12          1           0        5.711658    4.419831    0.753583
     13          1           0        4.963898    3.787299    2.229681
     14          6           0        0.822512    3.429479    2.949911
     15          6           0        1.948580    3.384551    1.968083
     16          8           0       -2.692421    4.533451    6.278965
     17          6           0       -1.284987    3.417518    4.757186
     18          6           0       -2.425980    3.359575    5.720936
     19          8           0        2.558440    4.554199    1.825581
     20          6           0        0.469947    4.610366    3.610586
     21          1           0        1.027126    5.524454    3.408727
     22          6           0       -0.585506    4.604145    4.516817
     23          1           0       -0.875408    5.513313    5.042309
     24          8           0       -3.038833    2.346633    5.961319
     25          6           0       -5.118990    4.305006    6.810701
     26          1           0       -5.192610    4.652943    5.760260
     27          1           0       -5.806207    4.932046    7.398506
     28          6           0       -3.700050    4.591967    7.299634
     29          1           0       -3.446378    3.884103    8.103815
     30          1           0       -3.617795    5.616972    7.678482
     31          8           0       -5.531576    2.986686    6.983239
     32          1           0       -4.850523    2.419986    6.593590
 ---------------------------------------------------------------------
                    Distance matrix (angstroms):
                    1          2          3          4          5
     1  O    0.000000
     2  H    0.967972   0.000000
     3  C    6.847015   6.026216   0.000000
     4  H    7.538995   6.665059   1.090392   0.000000
     5  C    5.480820   4.648671   1.389141   2.168693   0.000000
     6  H    5.115391   4.200605   2.168612   2.529683   1.090404
     7  O    2.766989   1.918219   4.204248   4.888389   2.816088
     8  C    2.455897   2.558070   6.083502   7.007625   4.844962
     9  H    3.326455   3.594915   6.746304   7.734107   5.610408
    10  H    2.531227   2.530382   6.290556   7.148156   5.010808
    11  C    1.392138   1.916389   6.694327   7.531270   5.400658
    12  H    2.008091   2.805817   7.750503   8.610807   6.474349
    13  H    2.094588   2.407046   6.375401   7.218384   5.171666
    14  C    4.813113   4.131676   2.410826   3.410809   1.398364
    15  C    3.372021   2.741818   3.760299   4.644034   2.476526
    16  O    9.720733   9.064012   3.624834   3.948174   4.764792
    17  C    7.538239   6.816092   1.398418   2.147165   2.410873
    18  C    9.013684   8.278178   2.476654   2.643251   3.760396
    19  O    3.308960   3.037131   4.764864   5.745034   3.624813
    20  C    5.758598   5.221895   2.798638   3.888662   2.428981
    21  H    5.642240   5.270336   3.887888   4.978003   3.410587
    22  C    7.072861   6.480174   2.428975   3.406227   2.798655
    23  H    7.888838   7.370134   3.410644   4.293836   3.887917
    24  O    9.625619   8.826187   2.816404   2.480085   4.204557
    25  C   11.947734  11.222890   5.401759   5.314504   6.695215
    26  H   11.548799  10.826523   5.172989   5.178403   6.376431
    27  H   12.932654  12.232572   6.475331   6.411618   7.751246
    28  C   11.128424  10.462106   4.844960   4.945597   6.083394
    29  H   11.350155  10.671635   5.010121   4.974852   6.289864
    30  H   11.526031  10.925437   5.610191   5.852753   6.745929
    31  O   12.273686  11.484821   5.482419   5.117427   6.848481
    32  H   11.485322  10.674913   4.650675   4.202987   6.028189
                    6          7          8          9         10
     6  H    0.000000
     7  O    2.479818   0.000000
     8  C    4.945563   2.696303   0.000000
     9  H    5.852919   3.738990   1.095870   0.000000
    10  H    4.975693   2.669717   1.100975   1.792526   0.000000
    11  C    5.313003   2.978788   1.528029   2.174557   2.155416
    12  H    6.410178   4.049124   2.135680   2.310331   2.676182
    13  H    5.176498   3.159618   2.145144   2.662687   3.021988
    14  C    2.147220   2.381646   3.698303   4.337836   4.011825
    15  C    2.643224   1.208060   2.373774   3.217051   2.645506
    16  O    5.744952   7.300836   8.314918   8.575515   8.713710
    17  C    3.410816   5.014915   6.381936   6.846099   6.708353
    18  C    4.644082   6.472660   7.861011   8.281749   8.186201
    19  O    3.948176   2.236708   1.435530   1.997334   2.078526
    20  C    3.406313   3.633462   4.177170   4.496996   4.644927
    21  H    4.293865   3.943752   3.731909   3.806122   4.317455
    22  C    3.888695   4.791817   5.568111   5.854886   6.005151
    23  H    4.978046   5.757231   6.193652   6.310688   6.689813
    24  O    4.888649   7.015757   8.696814   9.212974   8.957640
    25  C    7.532356   9.371737  10.569390  10.849355  10.838318
    26  H    7.219714   8.947363  10.070714  10.329140  10.259511
    27  H    8.611790  10.392108  11.465680  11.680393  11.755493
    28  C    7.007524   8.696381   9.744632   9.985082  10.147972
    29  H    7.147369   8.956639  10.147704  10.446629  10.600339
    30  H    7.733739   9.212246   9.984807  10.109867  10.446638
    31  O    7.540677   9.626693  11.129336  11.527118  11.351362
    32  H    6.667242   8.827857  10.463692  10.927193  10.673677
                   11         12         13         14         15
    11  C    0.000000
    12  H    1.100435   0.000000
    13  H    1.109010   1.771471   0.000000
    14  C    4.438473   5.450541   4.218749   0.000000
    15  C    3.054339   4.087490   3.053323   1.494668   0.000000
    16  O    9.157208  10.058394   8.693253   4.965492   6.437589
    17  C    7.139302   8.123208   6.750821   2.776318   4.270379
    18  C    8.616483   9.592700   8.184260   4.270383   5.763793
    19  O    2.494912   3.333169   2.556885   2.354264   1.326768
    20  C    5.089942   5.972797   4.772833   1.398316   2.527211
    21  H    4.754309   5.496801   4.461617   2.154367   2.739291
    22  C    6.447787   7.338267   6.057566   2.411959   3.795397
    23  H    7.130467   7.935887   6.707271   3.406380   4.685872
    24  O    9.371260  10.391812   8.946750   5.015089   6.472827
    25  C   11.482079  12.409867  11.086857   7.139587   8.616770
    26  H   11.086687  12.001009  10.787445   6.751046   8.184499
    27  H   12.409631  13.307087  12.000931   8.123277   9.592755
    28  C   10.569057  11.465630  10.070546   6.381617   7.860681
    29  H   10.837673  11.755107  10.259023   6.707670   8.185495
    30  H   10.848804  11.680157  10.328726   6.845497   8.281116
    31  O   11.948294  12.933399  11.549557   7.539114   9.014589
    32  H   11.223909  12.233753  10.827562   6.817536   8.279704
                   16         17         18         19         20
    16  O    0.000000
    17  C    2.354142   0.000000
    18  C    1.326789   1.494669   0.000000
    19  O    6.885100   4.965711   6.437808   0.000000
    20  C    4.138445   2.411923   3.795319   2.747945   0.000000
    21  H    4.801601   3.406375   4.685824   2.406797   1.089381
    22  C    2.747591   1.398261   2.527094   4.138797   1.391141
    23  H    2.406446   2.154393   2.739233   4.801932   2.162203
    24  O    2.236755   2.381744   1.208067   7.301174   4.791865
    25  C    2.494628   4.438934   3.055115   9.157317   6.447495
    26  H    2.556224   4.219236   3.054274   8.693114   6.057018
    27  H    3.332854   5.450852   4.088134  10.058210   7.337705
    28  C    1.435447   3.698094   2.373674   8.314769   5.567611
    29  H    2.078505   4.011139   2.644703   8.713386   6.004512
    30  H    1.997244   4.337460   3.216869   8.575069   5.854115
    31  O    3.308971   4.813984   3.373007   9.721466   7.073146
    32  H    3.036960   4.132855   2.742765   9.065402   6.481009
                   21         22         23         24         25
    21  H    0.000000
    22  C    2.162270   0.000000
    23  H    2.507658   1.089391   0.000000
    24  O    5.757282   3.633423   3.943710   0.000000
    25  C    7.129882   5.089585   4.753441   2.980559   0.000000
    26  H    6.706292   4.772205   4.460261   3.162001   1.109012
    27  H    7.934968   5.972217   5.495663   4.050707   1.100436
    28  C    6.193132   4.176674   3.731354   2.696261   1.528003
    29  H    6.689307   4.644309   4.317063   2.668370   2.155675
    30  H    6.309885   4.496301   3.805370   3.738845   2.174370
    31  O    7.888851   5.758734   5.641893   2.769071   1.392108
    32  H    7.370741   5.222443   5.270359   1.920252   1.916380
                   26         27         28         29         30
    26  H    0.000000
    27  H    1.771511   0.000000
    28  C    2.145024   2.135726   0.000000
    29  H    3.022035   2.676647   1.100967   0.000000
    30  H    2.662512   2.310120   1.095868   1.792519   0.000000
    31  O    2.094514   2.008058   2.455916   2.531620   3.326308
    32  H    2.407812   2.805649   2.557262   2.529040   3.594068
                   31         32
    31  O    0.000000
    32  H    0.967888   0.000000
 Symmetry turned off by external request.
 Stoichiometry    C12H14O6
 Framework group  C1[X(C12H14O6)]
 Deg. of freedom    90
 Full point group                 C1      NOp   1
 Rotational constants (GHZ):           1.7737556           0.1286974           0.1223085
 Standard basis: def2TZVP (5D, 7F)
   642 basis functions,  1030 primitive gaussians,   732 cartesian basis functions
    67 alpha electrons       67 beta electrons
       nuclear repulsion energy      1271.9111170261 Hartrees.
 NAtoms=   32 NActive=   32 NUniq=   32 SFac= 1.00D+00 NAtFMM=   60 NAOKFM=F Big=F
 Integral buffers will be    131072 words long.
 Raffenetti 2 integral format.
 Two-electron integral symmetry is turned off.
 One-electron integrals computed using PRISM.
   1 Symmetry operations used in ECPInt.
 ECPInt:  NShTT=   32385 NPrTT=   99228 LenC2=   26085 LenP2D=   57351.
 LDataN:  DoStor=T MaxTD1= 6 Len=  172
 NBasis=   642 RedAO= T EigKep=  7.56D-06  NBF=   642
 NBsUse=   642 1.00D-06 EigRej= -1.00D+00 NBFU=   642
 Initial guess from the checkpoint file:  "/dev/shm/pet_mono_843_freq2tzvp.chk"
 B after Tr=     0.000000    0.000000    0.000000
         Rot=    1.000000    0.000000    0.000000    0.000000 Ang=   0.00 deg.
 Requested convergence on RMS density matrix=1.00D-08 within  32 cycles.
 Requested convergence on MAX density matrix=1.00D-06.
 Requested convergence on             energy=1.00D-06.
 No special actions if energy rises.
 SCF Done:  E(RM062X) =  -917.070565180     A.U. after   12 cycles
            NFock= 12  Conv=0.39D-08     -V/T= 2.0047
 QCSCF skips out because SCF is already converged.

 **********************************************************************

            Population analysis using the SCF Density.

 **********************************************************************

 Alpha  occ. eigenvalues --  -19.69450 -19.69449 -19.64095 -19.64094 -19.61286
 Alpha  occ. eigenvalues --  -19.61278 -10.69994 -10.69992 -10.61151 -10.61149
 Alpha  occ. eigenvalues --  -10.59303 -10.59300 -10.58626 -10.58624 -10.57736
 Alpha  occ. eigenvalues --  -10.57656 -10.57443 -10.57362  -1.26527  -1.26522
 Alpha  occ. eigenvalues --   -1.16943  -1.16939  -1.14478  -1.14468  -0.99840
 Alpha  occ. eigenvalues --   -0.91556  -0.88258  -0.87103  -0.85930  -0.78887
 Alpha  occ. eigenvalues --   -0.76109  -0.72729  -0.72034  -0.66919  -0.65812
 Alpha  occ. eigenvalues --   -0.65053  -0.62970  -0.61262  -0.60868  -0.60203
 Alpha  occ. eigenvalues --   -0.59424  -0.55872  -0.55503  -0.54849  -0.54550
 Alpha  occ. eigenvalues --   -0.54102  -0.53208  -0.51874  -0.49847  -0.49493
 Alpha  occ. eigenvalues --   -0.49386  -0.47996  -0.47009  -0.46176  -0.45930
 Alpha  occ. eigenvalues --   -0.45159  -0.42992  -0.42581  -0.42542  -0.39358
 Alpha  occ. eigenvalues --   -0.39155  -0.38065  -0.37795  -0.34931  -0.34787
 Alpha  occ. eigenvalues --   -0.34041  -0.33849
 Alpha virt. eigenvalues --   -0.06141  -0.00603   0.03071   0.06602   0.07137
 Alpha virt. eigenvalues --    0.08757   0.09606   0.09620   0.09869   0.10428
 Alpha virt. eigenvalues --    0.10748   0.11173   0.11788   0.12798   0.12969
 Alpha virt. eigenvalues --    0.13480   0.14227   0.14280   0.14995   0.14998
 Alpha virt. eigenvalues --    0.15918   0.16557   0.17339   0.18506   0.20558
 Alpha virt. eigenvalues --    0.20704   0.21331   0.21911   0.22492   0.23511
 Alpha virt. eigenvalues --    0.24116   0.24295   0.24986   0.25845   0.26047
 Alpha virt. eigenvalues --    0.26345   0.26809   0.27117   0.28041   0.28940
 Alpha virt. eigenvalues --    0.30911   0.30945   0.31837   0.32083   0.32763
 Alpha virt. eigenvalues --    0.33180   0.34644   0.35301   0.35529   0.36423
 Alpha virt. eigenvalues --    0.36473   0.36920   0.38094   0.38403   0.38683
 Alpha virt. eigenvalues --    0.38887   0.39465   0.39581   0.40235   0.40408
 Alpha virt. eigenvalues --    0.41740   0.42007   0.42199   0.42255   0.42923
 Alpha virt. eigenvalues --    0.43789   0.43919   0.43947   0.44594   0.45546
 Alpha virt. eigenvalues --    0.45753   0.46590   0.47594   0.48363   0.48710
 Alpha virt. eigenvalues --    0.49070   0.49775   0.50300   0.50649   0.50807
 Alpha virt. eigenvalues --    0.51822   0.52188   0.53660   0.53680   0.54503
 Alpha virt. eigenvalues --    0.54547   0.55134   0.55706   0.56067   0.57035
 Alpha virt. eigenvalues --    0.59142   0.59449   0.59989   0.62790   0.63120
 Alpha virt. eigenvalues --    0.63572   0.65224   0.65749   0.66170   0.66182
 Alpha virt. eigenvalues --    0.67436   0.67737   0.68427   0.68731   0.69519
 Alpha virt. eigenvalues --    0.71058   0.71903   0.72134   0.72186   0.72768
 Alpha virt. eigenvalues --    0.73755   0.75642   0.76053   0.76363   0.76501
 Alpha virt. eigenvalues --    0.77632   0.77836   0.79450   0.79777   0.81121
 Alpha virt. eigenvalues --    0.82584   0.84105   0.85940   0.86391   0.87275
 Alpha virt. eigenvalues --    0.87626   0.88542   0.88855   0.89003   0.90078
 Alpha virt. eigenvalues --    0.90827   0.93324   0.93590   0.93669   0.94993
 Alpha virt. eigenvalues --    0.95501   0.96538   0.97298   0.98418   0.99212
 Alpha virt. eigenvalues --    1.00583   1.01856   1.03222   1.03250   1.04234
 Alpha virt. eigenvalues --    1.05104   1.06807   1.08665   1.09028   1.10134
 Alpha virt. eigenvalues --    1.10635   1.11728   1.12137   1.12747   1.13429
 Alpha virt. eigenvalues --    1.14508   1.15742   1.16436   1.17202   1.18791
 Alpha virt. eigenvalues --    1.21280   1.21539   1.23600   1.24399   1.25337
 Alpha virt. eigenvalues --    1.26341   1.27984   1.29496   1.29967   1.30741
 Alpha virt. eigenvalues --    1.31695   1.32392   1.34928   1.35598   1.39746
 Alpha virt. eigenvalues --    1.41051   1.41185   1.41749   1.43155   1.43890
 Alpha virt. eigenvalues --    1.45022   1.47999   1.48680   1.49317   1.50071
 Alpha virt. eigenvalues --    1.50645   1.51474   1.52926   1.53428   1.54313
 Alpha virt. eigenvalues --    1.54674   1.55572   1.56137   1.56763   1.58815
 Alpha virt. eigenvalues --    1.59109   1.60131   1.60194   1.61547   1.61978
 Alpha virt. eigenvalues --    1.62441   1.64070   1.64230   1.64619   1.67386
 Alpha virt. eigenvalues --    1.68432   1.69026   1.69081   1.71233   1.72791
 Alpha virt. eigenvalues --    1.73468   1.73693   1.74167   1.74369   1.75615
 Alpha virt. eigenvalues --    1.76378   1.77716   1.79890   1.82127   1.82174
 Alpha virt. eigenvalues --    1.83711   1.83841   1.84312   1.84469   1.86820
 Alpha virt. eigenvalues --    1.86850   1.88296   1.89205   1.90394   1.91230
 Alpha virt. eigenvalues --    1.92885   1.92960   1.94972   1.95147   1.98490
 Alpha virt. eigenvalues --    1.99565   1.99991   2.00758   2.02038   2.02577
 Alpha virt. eigenvalues --    2.03197   2.03570   2.04532   2.05916   2.06113
 Alpha virt. eigenvalues --    2.07795   2.08672   2.11038   2.12618   2.13819
 Alpha virt. eigenvalues --    2.14510   2.15711   2.16376   2.16897   2.17795
 Alpha virt. eigenvalues --    2.17854   2.20719   2.23216   2.23751   2.25084
 Alpha virt. eigenvalues --    2.27205   2.27324   2.29227   2.29624   2.30923
 Alpha virt. eigenvalues --    2.30982   2.31590   2.32680   2.32954   2.33665
 Alpha virt. eigenvalues --    2.34011   2.34470   2.35767   2.36240   2.37036
 Alpha virt. eigenvalues --    2.37698   2.38714   2.40413   2.41690   2.45147
 Alpha virt. eigenvalues --    2.47005   2.47619   2.48640   2.48651   2.49434
 Alpha virt. eigenvalues --    2.52092   2.54431   2.54601   2.54896   2.56111
 Alpha virt. eigenvalues --    2.56460   2.58420   2.58517   2.59051   2.59768
 Alpha virt. eigenvalues --    2.60232   2.60911   2.62758   2.65117   2.65183
 Alpha virt. eigenvalues --    2.66352   2.67913   2.68778   2.69225   2.70095
 Alpha virt. eigenvalues --    2.70510   2.71850   2.71940   2.72390   2.72405
 Alpha virt. eigenvalues --    2.73514   2.75504   2.77013   2.77355   2.78909
 Alpha virt. eigenvalues --    2.82338   2.82438   2.82739   2.83393   2.83840
 Alpha virt. eigenvalues --    2.84327   2.86279   2.86320   2.87737   2.88915
 Alpha virt. eigenvalues --    2.89786   2.90576   2.92373   2.93588   2.93824
 Alpha virt. eigenvalues --    2.94936   2.95070   2.95850   2.96415   2.97174
 Alpha virt. eigenvalues --    2.97368   2.98437   2.98913   3.00075   3.01268
 Alpha virt. eigenvalues --    3.03307   3.03506   3.04909   3.05507   3.06941
 Alpha virt. eigenvalues --    3.08076   3.09256   3.09642   3.11400   3.11410
 Alpha virt. eigenvalues --    3.11819   3.12815   3.12958   3.13402   3.14626
 Alpha virt. eigenvalues --    3.15259   3.16570   3.18818   3.19170   3.19829
 Alpha virt. eigenvalues --    3.20987   3.21343   3.21916   3.22157   3.23047
 Alpha virt. eigenvalues --    3.23167   3.25317   3.25731   3.25770   3.27925
 Alpha virt. eigenvalues --    3.27995   3.29198   3.29634   3.30584   3.30901
 Alpha virt. eigenvalues --    3.31339   3.33129   3.33334   3.33483   3.34242
 Alpha virt. eigenvalues --    3.35692   3.36221   3.36465   3.37229   3.38542
 Alpha virt. eigenvalues --    3.38617   3.39169   3.40458   3.41176   3.41757
 Alpha virt. eigenvalues --    3.43544   3.44719   3.45514   3.46263   3.46786
 Alpha virt. eigenvalues --    3.47813   3.49124   3.49834   3.50066   3.50831
 Alpha virt. eigenvalues --    3.52631   3.54108   3.54268   3.55465   3.55711
 Alpha virt. eigenvalues --    3.58488   3.59558   3.60019   3.61359   3.62127
 Alpha virt. eigenvalues --    3.63157   3.65408   3.68392   3.69898   3.74074
 Alpha virt. eigenvalues --    3.75035   3.76112   3.77153   3.79126   3.80809
 Alpha virt. eigenvalues --    3.81599   3.85052   3.86106   3.87204   3.87836
 Alpha virt. eigenvalues --    3.89739   3.89870   3.90613   3.93487   3.93784
 Alpha virt. eigenvalues --    3.95965   3.97274   3.99301   4.03242   4.04372
 Alpha virt. eigenvalues --    4.05166   4.05431   4.11536   4.12576   4.13220
 Alpha virt. eigenvalues --    4.14708   4.16951   4.17806   4.17974   4.18471
 Alpha virt. eigenvalues --    4.22300   4.23169   4.23289   4.25126   4.27459
 Alpha virt. eigenvalues --    4.29477   4.31141   4.31206   4.38353   4.38574
 Alpha virt. eigenvalues --    4.41845   4.43435   4.43666   4.46839   4.47383
 Alpha virt. eigenvalues --    4.49679   4.55259   4.56961   4.58686   4.60932
 Alpha virt. eigenvalues --    4.62076   4.62191   4.63925   4.66418   4.71107
 Alpha virt. eigenvalues --    4.74975   4.76256   4.78303   4.86635   4.87755
 Alpha virt. eigenvalues --    4.89417   4.89924   5.01418   5.03520   5.12143
 Alpha virt. eigenvalues --    5.16590   5.16872   5.18985   5.22218   5.26015
 Alpha virt. eigenvalues --    5.26664   5.29313   5.29754   5.30044   5.30158
 Alpha virt. eigenvalues --    5.36185   5.39223   5.39305   5.42856   5.45072
 Alpha virt. eigenvalues --    5.47737   5.49237   5.49291   5.49475   5.49810
 Alpha virt. eigenvalues --    5.57848   5.64803   5.66975   5.67288   5.68929
 Alpha virt. eigenvalues --    5.76099   5.76439   5.81015   5.81178   5.83782
 Alpha virt. eigenvalues --    5.86828   5.95401   5.95580   5.99335   5.99703
 Alpha virt. eigenvalues --    6.11231   6.14295   6.15502   6.15879   6.18387
 Alpha virt. eigenvalues --    6.25670   6.27061   6.30565   6.37522   6.37551
 Alpha virt. eigenvalues --    6.38666   6.40917   6.46238   6.47101   6.54082
 Alpha virt. eigenvalues --    6.56998   6.65089   6.65357   6.67970   6.69489
 Alpha virt. eigenvalues --    6.71556   6.74052   6.75462   6.75767   6.78498
 Alpha virt. eigenvalues --    6.78603   6.88666   6.89558   6.90454   6.93650
 Alpha virt. eigenvalues --    6.98824   6.99032   7.04062   7.05561   7.12361
 Alpha virt. eigenvalues --    7.14585   7.18013   7.18307   7.30237   7.34157
 Alpha virt. eigenvalues --    7.40143   7.42953  22.32132  22.49959  22.50931
 Alpha virt. eigenvalues --   22.58467  22.58704  22.76572  22.78805  22.82347
 Alpha virt. eigenvalues --   22.96094  23.34995  23.51951  23.64206  43.96052
 Alpha virt. eigenvalues --   43.96106  44.06890  44.09961  44.35606  44.43061
          Condensed to atoms (all electrons):
               1          2          3          4          5          6
     1  O    8.040516   0.317711  -0.000000  -0.000000   0.000135   0.000012
     2  H    0.317711   0.361007   0.000011  -0.000000   0.000219   0.000046
     3  C   -0.000000   0.000011   4.995408   0.400882   0.488973  -0.032290
     4  H   -0.000000  -0.000000   0.400882   0.453942  -0.032235  -0.002087
     5  C    0.000135   0.000219   0.488973  -0.032235   4.995251   0.400917
     6  H    0.000012   0.000046  -0.032290  -0.002087   0.400917   0.453937
     7  O   -0.027616   0.014481   0.001181  -0.000049   0.024742   0.012734
     8  C   -0.033905  -0.002050   0.000013   0.000000  -0.002109  -0.000136
     9  H    0.007748  -0.000263  -0.000005   0.000000   0.000128   0.000001
    10  H    0.000085  -0.000287  -0.000006  -0.000000  -0.000200  -0.000005
    11  C    0.248894  -0.044051   0.000002   0.000000   0.000112   0.000022
    12  H   -0.037738   0.008662   0.000000  -0.000000   0.000005  -0.000000
    13  H   -0.047087  -0.004870  -0.000011  -0.000000  -0.000017   0.000002
    14  C    0.000933   0.000883  -0.045250   0.003813   0.460073  -0.016418
    15  C   -0.001400  -0.001643   0.000503  -0.000141  -0.048604  -0.012175
    16  O   -0.000000  -0.000000   0.004276   0.000532  -0.000141   0.000003
    17  C    0.000000   0.000001   0.459940  -0.016446  -0.045199   0.003815
    18  C    0.000000   0.000000  -0.048543  -0.012166   0.000472  -0.000143
    19  O    0.003649   0.000969  -0.000143   0.000003   0.004275   0.000531
    20  C   -0.000089  -0.000143  -0.036399  -0.000776  -0.060707   0.006559
    21  H   -0.000001  -0.000007  -0.000724   0.000052   0.005123  -0.000183
    22  C   -0.000002  -0.000000  -0.060727   0.006562  -0.036450  -0.000776
    23  H    0.000000  -0.000000   0.005117  -0.000183  -0.000722   0.000052
    24  O   -0.000000  -0.000000   0.024755   0.012742   0.001198  -0.000049
    25  C   -0.000000   0.000000   0.000115   0.000022   0.000002   0.000000
    26  H   -0.000000  -0.000000  -0.000017   0.000002  -0.000011  -0.000000
    27  H    0.000000   0.000000   0.000005  -0.000000   0.000000  -0.000000
    28  C    0.000000  -0.000000  -0.002110  -0.000136   0.000011   0.000000
    29  H   -0.000000   0.000000  -0.000201  -0.000005  -0.000006  -0.000000
    30  H    0.000000  -0.000000   0.000128   0.000001  -0.000005   0.000000
    31  O   -0.000000   0.000000   0.000134   0.000012  -0.000000  -0.000000
    32  H    0.000000   0.000000   0.000218   0.000046   0.000011  -0.000000
               7          8          9         10         11         12
     1  O   -0.027616  -0.033905   0.007748   0.000085   0.248894  -0.037738
     2  H    0.014481  -0.002050  -0.000263  -0.000287  -0.044051   0.008662
     3  C    0.001181   0.000013  -0.000005  -0.000006   0.000002   0.000000
     4  H   -0.000049   0.000000   0.000000  -0.000000   0.000000  -0.000000
     5  C    0.024742  -0.002109   0.000128  -0.000200   0.000112   0.000005
     6  H    0.012734  -0.000136   0.000001  -0.000005   0.000022  -0.000000
     7  O    8.012281   0.024823   0.000845  -0.000048   0.014466   0.000337
     8  C    0.024823   5.077325   0.379780   0.439574   0.253096  -0.037545
     9  H    0.000845   0.379780   0.557181  -0.019539  -0.038476  -0.006646
    10  H   -0.000048   0.439574  -0.019539   0.505172  -0.063936  -0.000466
    11  C    0.014466   0.253096  -0.038476  -0.063936   4.939150   0.399850
    12  H    0.000337  -0.037545  -0.006646  -0.000466   0.399850   0.575368
    13  H   -0.003717  -0.062276   0.007946   0.009586   0.410092  -0.039178
    14  C   -0.133422   0.007342   0.001524  -0.001355  -0.003072   0.000426
    15  C    0.560922  -0.055267   0.002705  -0.008850   0.006496   0.001751
    16  O    0.000000   0.000000  -0.000000  -0.000000   0.000000  -0.000000
    17  C   -0.000036   0.000010   0.000002   0.000001  -0.000002   0.000000
    18  C   -0.000014  -0.000001   0.000000  -0.000000  -0.000000   0.000000
    19  O   -0.086263   0.190194  -0.035486  -0.032951  -0.042206   0.003807
    20  C    0.004071  -0.000146  -0.000900   0.000727   0.000369  -0.000048
    21  H    0.000295   0.000029  -0.000267   0.000128   0.000029  -0.000000
    22  C    0.000303  -0.000236  -0.000100   0.000015   0.000048  -0.000002
    23  H    0.000005  -0.000004   0.000000  -0.000000   0.000000   0.000000
    24  O    0.000000  -0.000000  -0.000000   0.000000  -0.000000  -0.000000
    25  C   -0.000000   0.000000  -0.000000   0.000000   0.000000   0.000000
    26  H    0.000000  -0.000000  -0.000000   0.000000  -0.000000  -0.000000
    27  H   -0.000000  -0.000000   0.000000   0.000000   0.000000   0.000000
    28  C   -0.000000  -0.000000  -0.000000  -0.000000   0.000000  -0.000000
    29  H    0.000000  -0.000000  -0.000000   0.000000   0.000000   0.000000
    30  H   -0.000000  -0.000000   0.000000  -0.000000  -0.000000   0.000000
    31  O   -0.000000   0.000000   0.000000  -0.000000  -0.000000   0.000000
    32  H   -0.000000  -0.000000  -0.000000   0.000000   0.000000   0.000000
              13         14         15         16         17         18
     1  O   -0.047087   0.000933  -0.001400  -0.000000   0.000000   0.000000
     2  H   -0.004870   0.000883  -0.001643  -0.000000   0.000001   0.000000
     3  C   -0.000011  -0.045250   0.000503   0.004276   0.459940  -0.048543
     4  H   -0.000000   0.003813  -0.000141   0.000532  -0.016446  -0.012166
     5  C   -0.000017   0.460073  -0.048604  -0.000141  -0.045199   0.000472
     6  H    0.000002  -0.016418  -0.012175   0.000003   0.003815  -0.000143
     7  O   -0.003717  -0.133422   0.560922   0.000000  -0.000036  -0.000014
     8  C   -0.062276   0.007342  -0.055267   0.000000   0.000010  -0.000001
     9  H    0.007946   0.001524   0.002705  -0.000000   0.000002   0.000000
    10  H    0.009586  -0.001355  -0.008850  -0.000000   0.000001  -0.000000
    11  C    0.410092  -0.003072   0.006496   0.000000  -0.000002  -0.000000
    12  H   -0.039178   0.000426   0.001751  -0.000000   0.000000   0.000000
    13  H    0.604826  -0.003513  -0.003966   0.000000   0.000002  -0.000000
    14  C   -0.003513   5.191847   0.307030   0.000214  -0.041762  -0.002096
    15  C   -0.003966   0.307030   4.506225  -0.000008  -0.002090  -0.001162
    16  O    0.000000   0.000214  -0.000008   7.967862  -0.150498   0.388548
    17  C    0.000002  -0.041762  -0.002090  -0.150498   5.193559   0.305697
    18  C   -0.000000  -0.002096  -0.001162   0.388548   0.305697   4.507496
    19  O    0.005202  -0.150362   0.388609   0.000000   0.000215  -0.000008
    20  C    0.000564   0.454242  -0.058292   0.000970  -0.045810   0.005857
    21  H    0.000087  -0.019216  -0.011548  -0.000067   0.004580  -0.000127
    22  C   -0.000004  -0.045769   0.005852   0.031279   0.454177  -0.058174
    23  H   -0.000000   0.004579  -0.000127   0.014391  -0.019194  -0.011559
    24  O    0.000000  -0.000037  -0.000014  -0.086269  -0.133524   0.561269
    25  C   -0.000000  -0.000002  -0.000000  -0.042244  -0.003054   0.006511
    26  H    0.000000   0.000002  -0.000000   0.005219  -0.003545  -0.004004
    27  H   -0.000000   0.000000   0.000000   0.003810   0.000428   0.001759
    28  C   -0.000000   0.000010  -0.000001   0.190149   0.007285  -0.055292
    29  H    0.000000   0.000001  -0.000000  -0.032949  -0.001369  -0.008869
    30  H   -0.000000   0.000002   0.000000  -0.035487   0.001510   0.002701
    31  O   -0.000000   0.000000   0.000000   0.003644   0.000944  -0.001404
    32  H   -0.000000   0.000001   0.000000   0.000959   0.000890  -0.001627
              19         20         21         22         23         24
     1  O    0.003649  -0.000089  -0.000001  -0.000002   0.000000  -0.000000
     2  H    0.000969  -0.000143  -0.000007  -0.000000  -0.000000  -0.000000
     3  C   -0.000143  -0.036399  -0.000724  -0.060727   0.005117   0.024755
     4  H    0.000003  -0.000776   0.000052   0.006562  -0.000183   0.012742
     5  C    0.004275  -0.060707   0.005123  -0.036450  -0.000722   0.001198
     6  H    0.000531   0.006559  -0.000183  -0.000776   0.000052  -0.000049
     7  O   -0.086263   0.004071   0.000295   0.000303   0.000005   0.000000
     8  C    0.190194  -0.000146   0.000029  -0.000236  -0.000004  -0.000000
     9  H   -0.035486  -0.000900  -0.000267  -0.000100   0.000000  -0.000000
    10  H   -0.032951   0.000727   0.000128   0.000015  -0.000000   0.000000
    11  C   -0.042206   0.000369   0.000029   0.000048   0.000000  -0.000000
    12  H    0.003807  -0.000048  -0.000000  -0.000002   0.000000  -0.000000
    13  H    0.005202   0.000564   0.000087  -0.000004  -0.000000   0.000000
    14  C   -0.150362   0.454242  -0.019216  -0.045769   0.004579  -0.000037
    15  C    0.388609  -0.058292  -0.011548   0.005852  -0.000127  -0.000014
    16  O    0.000000   0.000970  -0.000067   0.031279   0.014391  -0.086269
    17  C    0.000215  -0.045810   0.004580   0.454177  -0.019194  -0.133524
    18  C   -0.000008   0.005857  -0.000127  -0.058174  -0.011559   0.561269
    19  O    7.967655   0.031271   0.014394   0.000969  -0.000067   0.000000
    20  C    0.031271   5.018634   0.402254   0.476053  -0.033704   0.000303
    21  H    0.014394   0.402254   0.469802  -0.033684  -0.003119   0.000005
    22  C    0.000969   0.476053  -0.033684   5.018540   0.402260   0.004077
    23  H   -0.000067  -0.033704  -0.003119   0.402260   0.469798   0.000295
    24  O    0.000000   0.000303   0.000005   0.004077   0.000295   8.011660
    25  C    0.000000   0.000048   0.000000   0.000368   0.000028   0.014346
    26  H    0.000000  -0.000004  -0.000000   0.000565   0.000087  -0.003691
    27  H   -0.000000  -0.000002   0.000000  -0.000048  -0.000000   0.000333
    28  C    0.000000  -0.000236  -0.000004  -0.000145   0.000028   0.024812
    29  H   -0.000000   0.000015  -0.000000   0.000728   0.000128  -0.000036
    30  H   -0.000000  -0.000100   0.000000  -0.000900  -0.000268   0.000848
    31  O   -0.000000  -0.000002   0.000000  -0.000089  -0.000001  -0.027450
    32  H   -0.000000  -0.000000  -0.000000  -0.000143  -0.000007   0.014481
              25         26         27         28         29         30
     1  O   -0.000000  -0.000000   0.000000   0.000000  -0.000000   0.000000
     2  H    0.000000  -0.000000   0.000000  -0.000000   0.000000  -0.000000
     3  C    0.000115  -0.000017   0.000005  -0.002110  -0.000201   0.000128
     4  H    0.000022   0.000002  -0.000000  -0.000136  -0.000005   0.000001
     5  C    0.000002  -0.000011   0.000000   0.000011  -0.000006  -0.000005
     6  H    0.000000  -0.000000  -0.000000   0.000000  -0.000000   0.000000
     7  O   -0.000000   0.000000  -0.000000  -0.000000   0.000000  -0.000000
     8  C    0.000000  -0.000000  -0.000000  -0.000000  -0.000000  -0.000000
     9  H   -0.000000  -0.000000   0.000000  -0.000000  -0.000000   0.000000
    10  H    0.000000   0.000000   0.000000  -0.000000   0.000000  -0.000000
    11  C    0.000000  -0.000000   0.000000   0.000000   0.000000  -0.000000
    12  H    0.000000  -0.000000   0.000000  -0.000000   0.000000   0.000000
    13  H   -0.000000   0.000000  -0.000000  -0.000000   0.000000  -0.000000
    14  C   -0.000002   0.000002   0.000000   0.000010   0.000001   0.000002
    15  C   -0.000000  -0.000000   0.000000  -0.000001  -0.000000   0.000000
    16  O   -0.042244   0.005219   0.003810   0.190149  -0.032949  -0.035487
    17  C   -0.003054  -0.003545   0.000428   0.007285  -0.001369   0.001510
    18  C    0.006511  -0.004004   0.001759  -0.055292  -0.008869   0.002701
    19  O    0.000000   0.000000  -0.000000   0.000000  -0.000000  -0.000000
    20  C    0.000048  -0.000004  -0.000002  -0.000236   0.000015  -0.000100
    21  H    0.000000  -0.000000   0.000000  -0.000004  -0.000000   0.000000
    22  C    0.000368   0.000565  -0.000048  -0.000145   0.000728  -0.000900
    23  H    0.000028   0.000087  -0.000000   0.000028   0.000128  -0.000268
    24  O    0.014346  -0.003691   0.000333   0.024812  -0.000036   0.000848
    25  C    4.939119   0.410003   0.399879   0.253275  -0.063938  -0.038542
    26  H    0.410003   0.604845  -0.039205  -0.062149   0.009576   0.007960
    27  H    0.399879  -0.039205   0.575473  -0.037577  -0.000458  -0.006660
    28  C    0.253275  -0.062149  -0.037577   5.077295   0.439638   0.379800
    29  H   -0.063938   0.009576  -0.000458   0.439638   0.505104  -0.019534
    30  H   -0.038542   0.007960  -0.006660   0.379800  -0.019534   0.557254
    31  O    0.248846  -0.047105  -0.037760  -0.033845   0.000052   0.007753
    32  H   -0.044026  -0.004832   0.008666  -0.002071  -0.000286  -0.000257
              31         32
     1  O   -0.000000   0.000000
     2  H    0.000000   0.000000
     3  C    0.000134   0.000218
     4  H    0.000012   0.000046
     5  C   -0.000000   0.000011
     6  H   -0.000000  -0.000000
     7  O   -0.000000  -0.000000
     8  C    0.000000  -0.000000
     9  H    0.000000  -0.000000
    10  H   -0.000000   0.000000
    11  C   -0.000000   0.000000
    12  H    0.000000   0.000000
    13  H   -0.000000  -0.000000
    14  C    0.000000   0.000001
    15  C    0.000000   0.000000
    16  O    0.003644   0.000959
    17  C    0.000944   0.000890
    18  C   -0.001404  -0.001627
    19  O   -0.000000  -0.000000
    20  C   -0.000002  -0.000000
    21  H    0.000000  -0.000000
    22  C   -0.000089  -0.000143
    23  H   -0.000001  -0.000007
    24  O   -0.027450   0.014481
    25  C    0.248846  -0.044026
    26  H   -0.047105  -0.004832
    27  H   -0.037760   0.008666
    28  C   -0.033845  -0.002071
    29  H    0.000052  -0.000286
    30  H    0.007753  -0.000257
    31  O    8.040238   0.317666
    32  H    0.317666   0.361133
 Mulliken charges:
               1
     1  O   -0.471845
     2  H    0.349326
     3  C   -0.155234
     4  H    0.185615
     5  C   -0.155241
     6  H    0.185629
     7  O   -0.420319
     8  C   -0.178512
     9  H    0.143820
    10  H    0.172357
    11  C   -0.080885
    12  H    0.131415
    13  H    0.126332
    14  C    0.029353
    15  C    0.425194
    16  O   -0.264194
    17  C    0.029471
    18  C    0.424879
    19  O   -0.264258
    20  C   -0.164580
    21  H    0.172172
    22  C   -0.164549
    23  H    0.172189
    24  O   -0.420053
    25  C   -0.080757
    26  H    0.126306
    27  H    0.131357
    28  C   -0.178736
    29  H    0.172410
    30  H    0.143794
    31  O   -0.471635
    32  H    0.349179
 Sum of Mulliken charges =  -0.00000
 Mulliken charges with hydrogens summed into heavy atoms:
               1
     1  O   -0.122519
     3  C    0.030381
     5  C    0.030388
     7  O   -0.420319
     8  C    0.137665
    11  C    0.176862
    14  C    0.029353
    15  C    0.425194
    16  O   -0.264194
    17  C    0.029471
    18  C    0.424879
    19  O   -0.264258
    20  C    0.007592
    22  C    0.007640
    24  O   -0.420053
    25  C    0.176905
    28  C    0.137468
    31  O   -0.122456
 Electronic spatial extent (au):  <R**2>=          21646.5893
 Charge=             -0.0000 electrons
 Dipole moment (field-independent basis, Debye):
    X=              0.6657    Y=              4.5356    Z=              0.8087  Tot=              4.6549
 Quadrupole moment (field-independent basis, Debye-Ang):
   XX=           -129.1700   YY=            -68.3327   ZZ=           -103.7910
   XY=              3.4911   XZ=             14.3352   YZ=             20.4427
 Traceless Quadrupole moment (field-independent basis, Debye-Ang):
   XX=            -28.7388   YY=             32.0986   ZZ=             -3.3598
   XY=              3.4911   XZ=             14.3352   YZ=             20.4427
 Octapole moment (field-independent basis, Debye-Ang**2):
  XXX=            129.9973  YYY=           -908.0046  ZZZ=          -1214.8630  XYY=             32.4026
  XXY=           -352.0668  XXZ=           -509.3445  XZZ=            104.6376  YZZ=           -246.6260
  YYZ=           -252.3907  XYZ=            -22.7574
 Hexadecapole moment (field-independent basis, Debye-Ang**3):
 XXXX=          -7622.1312 YYYY=          -7577.5051 ZZZZ=         -12676.7997 XXXY=            480.8268
 XXXZ=           3343.7146 YYYX=            287.0367 YYYZ=          -3535.7251 ZZZX=           2967.3628
 ZZZY=          -3523.5993 XXYY=          -2044.9629 XXZZ=          -3998.3614 YYZZ=          -2594.4086
 XXYZ=          -1426.6412 YYXZ=            426.1007 ZZXY=           -202.5451
 N-N= 1.271911117026D+03 E-N=-4.688897056190D+03  KE= 9.127809457017D+02
   1 Symmetry operations used in ECPInt.
 ECPInt:  NShTT=   32385 NPrTT=   99228 LenC2=   26085 LenP2D=   57351.
 LDataN:  DoStor=T MaxTD1= 7 Len=  274
 Calling FoFJK, ICntrl=      2127 FMM=F ISym2X=0 I1Cent= 0 IOpClX= 0 NMat=1 NMatS=1 NMatT=0.
 -------------------------------------------------------------------
 Center     Atomic                   Forces (Hartrees/Bohr)
 Number     Number              X              Y              Z
 -------------------------------------------------------------------
      1        8          -0.000474073   -0.004637527   -0.000580218
      2        1           0.001328732    0.000187358   -0.001015215
      3        6           0.000152348    0.000671879    0.000009430
      4        1           0.003377846    0.004956044   -0.001407937
      5        6           0.000051278    0.000685384    0.000228040
      6        1          -0.001929545    0.004913638    0.003158406
      7        8          -0.001414894    0.000775575    0.000895995
      8        6           0.002006787    0.001757116   -0.008164651
      9        1          -0.001038724   -0.005375086    0.000394617
     10        1           0.001217618    0.001685439    0.005317717
     11        6           0.004046162    0.010830553    0.006928239
     12        1          -0.004328008   -0.003505274    0.001251842
     13        1          -0.000591968   -0.001592840   -0.006077395
     14        6          -0.003215458   -0.000130504    0.002719378
     15        6          -0.000598375   -0.001259388    0.000451377
     16        8           0.002344595    0.001311892   -0.001672385
     17        6           0.003192306   -0.000056492   -0.002758824
     18        6           0.000266039   -0.001179617   -0.000874537
     19        8          -0.001962399    0.001279918    0.002146076
     20        6           0.000065657   -0.000759517   -0.000241904
     21        1          -0.003421777   -0.004921802    0.001453922
     22        6          -0.000293413   -0.000781933   -0.000030878
     23        1           0.001982439   -0.004877419   -0.003192157
     24        8           0.001633366    0.000601505   -0.000664765
     25        6          -0.000475919    0.013203942   -0.002672103
     26        1          -0.000181265   -0.003652135    0.005139420
     27        1           0.003228988   -0.003937570   -0.002570849
     28        6          -0.001853064   -0.000594248    0.008368277
     29        1          -0.000435592    0.003655394   -0.004379086
     30        1          -0.000483805   -0.004991115   -0.002241141
     31        8          -0.000860245   -0.004503933   -0.001026068
     32        1          -0.001335639    0.000240763    0.001107376
 -------------------------------------------------------------------
 Cartesian Forces:  Max     0.013203942 RMS     0.003310944

 GradGradGradGradGradGradGradGradGradGradGradGradGradGradGradGradGradGrad
 Berny optimization.
 FormGI is forming the generalized inverse of G from B-inverse, IUseBI=4.
 Internal  Forces:  Max     0.006875638 RMS     0.002326645
 Search for a local minimum.
 Step number   1 out of a maximum of  160
 All quantities printed in internal units (Hartrees-Bohrs-Radians)
 Mixed Optimization -- RFO/linear search
 Second derivative matrix not updated -- first step.
 ITU=  0
     Eigenvalues ---    0.00228   0.00231   0.00428   0.00448   0.00622
     Eigenvalues ---    0.00642   0.01178   0.01191   0.01676   0.01780
     Eigenvalues ---    0.01885   0.02172   0.02223   0.02545   0.02803
     Eigenvalues ---    0.02809   0.02963   0.03258   0.03410   0.04682
     Eigenvalues ---    0.04691   0.05056   0.05063   0.05417   0.05455
     Eigenvalues ---    0.06682   0.06688   0.07307   0.07319   0.09766
     Eigenvalues ---    0.09784   0.10760   0.10775   0.10832   0.11080
     Eigenvalues ---    0.11373   0.12153   0.12668   0.12707   0.14533
     Eigenvalues ---    0.14555   0.17954   0.18915   0.19518   0.19541
     Eigenvalues ---    0.20005   0.21058   0.21388   0.22419   0.22461
     Eigenvalues ---    0.24060   0.24152   0.24754   0.25272   0.26924
     Eigenvalues ---    0.28343   0.29386   0.29547   0.30763   0.31775
     Eigenvalues ---    0.31988   0.32071   0.32166   0.34074   0.34085
     Eigenvalues ---    0.34587   0.34651   0.35409   0.35504   0.36920
     Eigenvalues ---    0.37022   0.37276   0.37315   0.38739   0.40543
     Eigenvalues ---    0.44070   0.44340   0.44796   0.45964   0.48380
     Eigenvalues ---    0.48593   0.49349   0.49680   0.52553   0.52639
     Eigenvalues ---    0.53763   0.84560   0.88070   0.92407   0.92705
 RFO step:  Lambda=-2.42054035D-03 EMin= 2.27756937D-03
 Linear search not attempted -- first point.
 Iteration  1 RMS(Cart)=  0.02341088 RMS(Int)=  0.00026388
 Iteration  2 RMS(Cart)=  0.00044007 RMS(Int)=  0.00002933
 Iteration  3 RMS(Cart)=  0.00000018 RMS(Int)=  0.00002933
 Variable       Old X    -DE/DX   Delta X   Delta X   Delta X     New X
                                 (Linear)    (Quad)   (Total)
    R1        1.82920  -0.00145   0.00000  -0.00319  -0.00319   1.82602
    R2        2.63076   0.00471   0.00000   0.01780   0.01780   2.64856
    R3        2.06054  -0.00615   0.00000  -0.01644  -0.01644   2.04410
    R4        2.62510  -0.00688   0.00000  -0.01231  -0.01231   2.61279
    R5        2.64263  -0.00662   0.00000  -0.01236  -0.01236   2.63027
    R6        2.06056  -0.00614   0.00000  -0.01643  -0.01643   2.04414
    R7        2.64253  -0.00663   0.00000  -0.01237  -0.01237   2.63015
    R8        2.28290  -0.00146   0.00000  -0.00165  -0.00165   2.28126
    R9        2.07089  -0.00547   0.00000  -0.01525  -0.01525   2.05564
   R10        2.08054  -0.00564   0.00000  -0.01746  -0.01746   2.06308
   R11        2.88756  -0.00061   0.00000  -0.00605  -0.00605   2.88151
   R12        2.71276   0.00285   0.00000   0.01013   0.01013   2.72289
   R13        2.07952  -0.00564   0.00000  -0.01718  -0.01718   2.06234
   R14        2.09573  -0.00601   0.00000  -0.02036  -0.02036   2.07536
   R15        2.82451  -0.00239   0.00000  -0.00581  -0.00581   2.81870
   R16        2.64243  -0.00670   0.00000  -0.01287  -0.01287   2.62957
   R17        2.50723   0.00064   0.00000   0.00211   0.00211   2.50934
   R18        2.50727   0.00067   0.00000   0.00217   0.00217   2.50944
   R19        2.71260   0.00289   0.00000   0.00989   0.00989   2.72249
   R20        2.82452  -0.00237   0.00000  -0.00570  -0.00570   2.81881
   R21        2.64233  -0.00671   0.00000  -0.01286  -0.01286   2.62947
   R22        2.28292  -0.00146   0.00000  -0.00170  -0.00170   2.28121
   R23        2.05863  -0.00615   0.00000  -0.01629  -0.01629   2.04234
   R24        2.62888  -0.00668   0.00000  -0.01150  -0.01150   2.61738
   R25        2.05865  -0.00614   0.00000  -0.01629  -0.01629   2.04236
   R26        2.09573  -0.00600   0.00000  -0.02039  -0.02039   2.07534
   R27        2.07952  -0.00563   0.00000  -0.01720  -0.01720   2.06232
   R28        2.88751  -0.00059   0.00000  -0.00602  -0.00602   2.88148
   R29        2.63070   0.00470   0.00000   0.01781   0.01781   2.64852
   R30        2.08053  -0.00565   0.00000  -0.01747  -0.01747   2.06306
   R31        2.07089  -0.00548   0.00000  -0.01527  -0.01527   2.05562
   R32        1.82904  -0.00153   0.00000  -0.00339  -0.00339   1.82565
    A1        1.87121   0.00144   0.00000   0.00430   0.00430   1.87552
    A2        2.12123  -0.00040   0.00000  -0.00418  -0.00418   2.11705
    A3        2.07218   0.00029   0.00000   0.00319   0.00319   2.07537
    A4        2.08977   0.00010   0.00000   0.00099   0.00099   2.09076
    A5        2.12108  -0.00041   0.00000  -0.00421  -0.00421   2.11687
    A6        2.08977   0.00012   0.00000   0.00108   0.00108   2.09085
    A7        2.07233   0.00029   0.00000   0.00313   0.00313   2.07546
    A8        1.90876   0.00010   0.00000   0.00444   0.00441   1.91317
    A9        1.93498  -0.00088   0.00000  -0.00254  -0.00258   1.93240
   A10        1.80419  -0.00067   0.00000  -0.00470  -0.00474   1.79945
   A11        1.90347   0.00099   0.00000   0.01241   0.01240   1.91587
   A12        1.90853  -0.00071   0.00000  -0.00424  -0.00422   1.90431
   A13        2.00083   0.00104   0.00000  -0.00595  -0.00596   1.99487
   A14        1.99691   0.00141   0.00000  -0.00185  -0.00184   1.99507
   A15        1.86328  -0.00106   0.00000  -0.01030  -0.01030   1.85298
   A16        1.97675  -0.00159   0.00000  -0.01751  -0.01750   1.95925
   A17        1.87748   0.00001   0.00000   0.00806   0.00800   1.88548
   A18        1.88171   0.00078   0.00000   0.01048   0.01041   1.89212
   A19        1.86050   0.00043   0.00000   0.01326   0.01308   1.87358
   A20        2.05442   0.00002   0.00000   0.00063   0.00063   2.05505
   A21        2.10443  -0.00020   0.00000  -0.00199  -0.00199   2.10244
   A22        2.12434   0.00018   0.00000   0.00136   0.00136   2.12570
   A23        2.15070  -0.00093   0.00000  -0.00092  -0.00092   2.14979
   A24        2.16067   0.00147   0.00000   0.00079   0.00079   2.16145
   A25        1.97181  -0.00054   0.00000   0.00013   0.00013   1.97194
   A26        2.06700   0.00156   0.00000  -0.00962  -0.00962   2.05738
   A27        2.05452   0.00006   0.00000   0.00080   0.00080   2.05532
   A28        2.10442  -0.00020   0.00000  -0.00201  -0.00201   2.10241
   A29        2.12424   0.00014   0.00000   0.00121   0.00121   2.12545
   A30        1.97163  -0.00066   0.00000  -0.00034  -0.00034   1.97129
   A31        2.16070   0.00155   0.00000   0.00093   0.00093   2.16164
   A32        2.15085  -0.00089   0.00000  -0.00059  -0.00059   2.15026
   A33        2.06706   0.00126   0.00000  -0.01018  -0.01018   2.05688
   A34        2.08531   0.00046   0.00000   0.00438   0.00438   2.08968
   A35        2.08898   0.00008   0.00000   0.00091   0.00091   2.08989
   A36        2.10890  -0.00053   0.00000  -0.00529  -0.00529   2.10361
   A37        2.08900   0.00009   0.00000   0.00102   0.00102   2.09002
   A38        2.08542   0.00045   0.00000   0.00436   0.00436   2.08977
   A39        2.10877  -0.00055   0.00000  -0.00538  -0.00538   2.10340
   A40        1.86055   0.00044   0.00000   0.01330   0.01312   1.87367
   A41        1.88158   0.00077   0.00000   0.01072   0.01064   1.89223
   A42        1.97667  -0.00160   0.00000  -0.01744  -0.01743   1.95925
   A43        1.87757  -0.00001   0.00000   0.00807   0.00801   1.88558
   A44        1.86327  -0.00111   0.00000  -0.01057  -0.01056   1.85271
   A45        1.99699   0.00148   0.00000  -0.00195  -0.00194   1.99505
   A46        2.00059   0.00116   0.00000  -0.00575  -0.00576   1.99482
   A47        1.90861  -0.00074   0.00000  -0.00412  -0.00410   1.90451
   A48        1.80416  -0.00072   0.00000  -0.00482  -0.00485   1.79931
   A49        1.90386   0.00099   0.00000   0.01219   0.01218   1.91604
   A50        1.93476  -0.00092   0.00000  -0.00248  -0.00252   1.93224
   A51        1.90876   0.00011   0.00000   0.00438   0.00436   1.91311
   A52        1.87133   0.00145   0.00000   0.00417   0.00417   1.87549
    D1       -0.90761  -0.00006   0.00000   0.01878   0.01876  -0.88885
    D2       -2.98242  -0.00019   0.00000   0.01687   0.01689  -2.96553
    D3        1.25854   0.00084   0.00000   0.01696   0.01696   1.27550
    D4        0.00069   0.00000   0.00000   0.00016   0.00016   0.00085
    D5        3.14156  -0.00001   0.00000   0.00003   0.00003   3.14159
    D6        3.14154  -0.00000   0.00000   0.00008   0.00008  -3.14157
    D7       -0.00078  -0.00001   0.00000  -0.00005  -0.00005  -0.00083
    D8        0.00019  -0.00000   0.00000  -0.00003  -0.00003   0.00016
    D9        3.14110   0.00001   0.00000   0.00013   0.00013   3.14123
   D10       -3.14068   0.00001   0.00000   0.00006   0.00006  -3.14062
   D11        0.00023   0.00001   0.00000   0.00021   0.00021   0.00045
   D12       -3.14086   0.00002   0.00000   0.00021   0.00021  -3.14064
   D13        0.00020   0.00002   0.00000   0.00025   0.00025   0.00045
   D14        0.00003   0.00001   0.00000   0.00008   0.00008   0.00011
   D15        3.14109   0.00000   0.00000   0.00012   0.00012   3.14121
   D16       -2.57527  -0.00005   0.00000   0.01029   0.01029  -2.56498
   D17       -0.50850  -0.00052   0.00000   0.00179   0.00174  -0.50676
   D18        1.49189   0.00038   0.00000   0.02640   0.02645   1.51835
   D19       -0.47263   0.00017   0.00000   0.02222   0.02222  -0.45041
   D20        1.59415  -0.00031   0.00000   0.01371   0.01368   1.60782
   D21       -2.68865   0.00059   0.00000   0.03832   0.03839  -2.65026
   D22        1.67355   0.00074   0.00000   0.02200   0.02199   1.69554
   D23       -2.54286   0.00027   0.00000   0.01350   0.01344  -2.52942
   D24       -0.54247   0.00117   0.00000   0.03811   0.03815  -0.50432
   D25        3.00846  -0.00026   0.00000  -0.01742  -0.01743   2.99103
   D26        0.97684   0.00028   0.00000  -0.01824  -0.01824   0.95860
   D27       -1.16662  -0.00121   0.00000  -0.02699  -0.02698  -1.19360
   D28        0.01468   0.00013   0.00000   0.00219   0.00219   0.01686
   D29       -3.12534  -0.00011   0.00000   0.00030   0.00030  -3.12504
   D30       -3.12638   0.00013   0.00000   0.00215   0.00215  -3.12423
   D31        0.01679  -0.00011   0.00000   0.00026   0.00026   0.01705
   D32       -3.14140  -0.00000   0.00000  -0.00022  -0.00022   3.14156
   D33        0.00092  -0.00001   0.00000  -0.00060  -0.00060   0.00032
   D34       -0.00036  -0.00001   0.00000  -0.00018  -0.00018  -0.00054
   D35       -3.14122  -0.00001   0.00000  -0.00057  -0.00057   3.14140
   D36        0.08273  -0.00054   0.00000  -0.01370  -0.01370   0.06903
   D37       -3.06045  -0.00029   0.00000  -0.01180  -0.01179  -3.07224
   D38       -3.05991  -0.00033   0.00000  -0.01244  -0.01244  -3.07235
   D39        0.08312  -0.00056   0.00000  -0.01408  -0.01408   0.06904
   D40       -1.16900  -0.00127   0.00000  -0.02536  -0.02535  -1.19435
   D41        0.97486   0.00028   0.00000  -0.01667  -0.01667   0.95820
   D42        3.00651  -0.00028   0.00000  -0.01591  -0.01592   2.99059
   D43       -3.12503  -0.00010   0.00000   0.00042   0.00042  -3.12461
   D44        0.01514   0.00012   0.00000   0.00205   0.00205   0.01719
   D45        0.01725  -0.00011   0.00000   0.00027   0.00027   0.01752
   D46       -3.12577   0.00012   0.00000   0.00189   0.00189  -3.12387
   D47        0.00089  -0.00001   0.00000  -0.00057  -0.00057   0.00033
   D48       -3.14140  -0.00001   0.00000  -0.00024  -0.00024   3.14154
   D49       -3.14140  -0.00000   0.00000  -0.00041  -0.00041   3.14137
   D50       -0.00051  -0.00000   0.00000  -0.00008  -0.00008  -0.00059
   D51       -0.00146   0.00001   0.00000   0.00076   0.00076  -0.00070
   D52        3.14084   0.00001   0.00000   0.00042   0.00043   3.14127
   D53        3.14088  -0.00000   0.00000   0.00036   0.00036   3.14124
   D54       -0.00001  -0.00000   0.00000   0.00003   0.00003   0.00002
   D55       -0.54184   0.00119   0.00000   0.04017   0.04021  -0.50163
   D56       -2.68825   0.00058   0.00000   0.04025   0.04031  -2.64794
   D57        1.49218   0.00038   0.00000   0.02849   0.02855   1.52072
   D58       -2.54227   0.00030   0.00000   0.01538   0.01532  -2.52695
   D59        1.59450  -0.00032   0.00000   0.01546   0.01543   1.60992
   D60       -0.50826  -0.00052   0.00000   0.00371   0.00366  -0.50460
   D61        1.67404   0.00080   0.00000   0.02427   0.02425   1.69829
   D62       -0.47238   0.00018   0.00000   0.02435   0.02436  -0.44802
   D63       -2.57513  -0.00002   0.00000   0.01259   0.01259  -2.56254
   D64        1.26070   0.00086   0.00000   0.01488   0.01488   1.27558
   D65       -2.98024  -0.00020   0.00000   0.01471   0.01474  -2.96551
   D66       -0.90528  -0.00009   0.00000   0.01640   0.01638  -0.88890
         Item               Value     Threshold  Converged?
 Maximum Force            0.006876     0.000450     NO 
 RMS     Force            0.002327     0.000300     NO 
 Maximum Displacement     0.068154     0.001800     NO 
 RMS     Displacement     0.023444     0.001200     NO 
 Predicted change in Energy=-1.239034D-03
 GradGradGradGradGradGradGradGradGradGradGradGradGradGradGradGradGradGrad

                          Input orientation:                          
 ---------------------------------------------------------------------
 Center     Atomic      Atomic             Coordinates (Angstroms)
 Number     Number       Type             X           Y           Z
 ---------------------------------------------------------------------
      1          8           0        4.902810    2.608345    0.536512
      2          1           0        4.070659    2.153062    0.720770
      3          6           0       -0.925600    2.244447    4.097418
      4          1           0       -1.481859    1.340400    4.305577
      5          6           0        0.118763    2.252635    3.191382
      6          1           0        0.410767    1.355305    2.662582
      7          8           0        2.243359    2.391622    1.359268
      8          6           0        3.579518    4.661644    0.822641
      9          1           0        3.793614    5.727834    0.796108
     10          1           0        3.182889    4.343303   -0.143396
     11          6           0        4.838661    3.866586    1.150582
     12          1           0        5.698570    4.428677    0.782285
     13          1           0        4.933265    3.801707    2.242809
     14          6           0        0.813424    3.433752    2.947330
     15          6           0        1.930954    3.390825    1.960351
     16          8           0       -2.672451    4.530677    6.290424
     17          6           0       -1.275067    3.417259    4.760526
     18          6           0       -2.407818    3.356646    5.729146
     19          8           0        2.539972    4.561879    1.815391
     20          6           0        0.464633    4.606943    3.609340
     21          1           0        1.012072    5.517408    3.410837
     22          6           0       -0.580970    4.598524    4.517646
     23          1           0       -0.862252    5.502445    5.039056
     24          8           0       -3.015824    2.342590    5.972607
     25          6           0       -5.103853    4.324633    6.794508
     26          1           0       -5.157547    4.658607    5.749676
     27          1           0       -5.789265    4.948088    7.371156
     28          6           0       -3.690590    4.576362    7.308688
     29          1           0       -3.447531    3.853723    8.090082
     30          1           0       -3.599034    5.585794    7.703586
     31          8           0       -5.549228    3.005310    6.953647
     32          1           0       -4.870041    2.423970    6.587466
 ---------------------------------------------------------------------
                    Distance matrix (angstroms):
                    1          2          3          4          5
     1  O    0.000000
     2  H    0.966286   0.000000
     3  C    6.839798   6.030979   0.000000
     4  H    7.521804   6.658958   1.081691   0.000000
     5  C    5.482880   4.661687   1.382628   2.153043   0.000000
     6  H    5.125304   4.219225   2.152952   2.506329   1.081711
     7  O    2.792235   1.950286   4.190635   4.864468   2.808891
     8  C    2.459473   2.558238   6.071498   6.984199   4.836433
     9  H    3.320981   3.586283   6.730796   7.706917   5.596327
    10  H    2.535840   2.516362   6.266528   7.111305   4.988037
    11  C    1.401559   1.926326   6.673970   7.502305   5.389540
    12  H    2.001811   2.798625   7.722732   8.573774   6.455475
    13  H    2.082424   2.403898   6.339632   7.174041   5.145760
    14  C    4.818342   4.148170   2.400282   3.390469   1.391816
    15  C    3.386963   2.765313   3.747151   4.620782   2.468796
    16  O    9.705022   9.063313   3.617681   3.941446   4.752306
    17  C    7.527470   6.818696   1.391879   2.136137   2.400275
    18  C    8.998260   8.276661   2.469108   2.636133   3.747358
    19  O    3.321872   3.056731   4.752718   5.723118   3.617764
    20  C    5.756221   5.231519   2.784305   3.865732   2.416005
    21  H    5.644664   5.283014   3.865002   4.946479   3.391888
    22  C    7.062725   6.483380   2.415996   3.387026   2.784205
    23  H    7.866681   7.362037   3.391938   4.271361   3.864913
    24  O    9.608669   8.822469   2.809804   2.477180   4.191531
    25  C   11.926503  11.215065   5.390665   5.312181   6.674684
    26  H   11.514835  10.804047   5.144657   5.158158   6.338218
    27  H   12.903768  12.217116   6.456181   6.400542   7.722744
    28  C   11.116744  10.464705   4.836864   4.936459   6.071498
    29  H   11.328529  10.664061   4.989115   4.950064   6.267311
[...]
 1,-0.00004329,-0.00000576,-0.00000388,0.00000244,-0.00000643,0.0000012
 4,0.00000478,0.00000587,-0.00000734,0.00000277,-0.00000655,0.00000040,
 0.00000275,0.00000419,0.00000117,0.00000175,-0.00009340,0.00002962,0.0
 0008946,0.00019683,0.00004066,-0.00016192,-0.00731146,0.00143274,-0.00
 049139,0.00009185,0.00017602,0.00032405,-0.00001808,-0.00317028,-0.001
 39818,-0.00010843,-0.00007269,0.00007010,0.00003651,0.00000451,-0.0000
 1333,-0.00000856,-0.00000240,0.00000622,-0.00005007,0.00003734,0.00005
 121,0.00002705,0.00005806,-0.00003838,0.00066635,0.00111238,-0.0000957
 0,-0.16167369,0.10110289,0.08856486,0.00267386,-0.00195647,-0.00163683
 ,0.17252629,0.00000227,0.00000088,-0.00000028,-0.00000228,-0.00000038,
 0.00000070,-0.00002774,-0.00003438,0.00001519,-0.00001009,0.00000748,0
 .00000954,-0.00001664,0.00001982,0.00000870,-0.00000517,-0.00000124,0.
 00000384,0.00000356,0.00000244,-0.00000081,-0.00000369,-0.00000128,0.0
 0000295,0.00000030,0.00000036,-0.00000018,0.00000029,-0.00000013,-0.00
 000023,-0.00000068,-0.00000033,-0.00000052,0.00000057,0.00000013,-0.00
 000026,-0.00000030,-0.00000017,0.00000003,0.00000277,0.00001689,0.0000
 0254,-0.00000838,-0.00000422,0.00000408,-0.00264879,0.00164917,0.00069
 549,0.00011615,0.00019906,0.00012946,-0.00055953,-0.00170235,-0.000107
 06,0.00000814,0.00000630,-0.00000438,0.00002062,0.00000572,-0.00001437
 ,0.00000144,-0.00000004,-0.00000051,0.00000473,-0.00000971,-0.00001202
 ,0.00000660,0.00000886,-0.00001019,0.00085787,0.00098577,-0.00032642,0
 .09407756,-0.12511275,-0.07393550,-0.00430441,0.00580725,0.00255627,-0
 .10028306,0.15852997,0.00001058,-0.00000068,-0.00000424,-0.00001211,0.
 00000177,0.00000534,-0.00001355,0.00000407,0.00002553,-0.00000819,0.00
 001315,0.00000528,-0.00001028,0.00001758,0.00000757,-0.00000348,0.0000
 0029,0.00000033,0.00003353,-0.00000896,-0.00002838,-0.00002102,-0.0000
 0753,0.00001790,0.00000239,0.00000174,-0.00000081,0.00000237,-0.000000
 67,-0.00000187,-0.00000251,0.00000201,-0.00000071,0.00000280,-0.000000
 06,-0.00000119,-0.00000167,-0.00000049,-0.00000084,0.00002761,0.000008
 49,-0.00002184,-0.00007578,-0.00001801,0.00005684,-0.00241612,0.000507
 99,0.00106900,0.00003557,0.00013129,0.00005384,-0.00108178,-0.00079565
 ,-0.00003582,0.00004438,0.00003076,-0.00002785,0.00000638,0.00000213,0
 .00000119,0.00000226,-0.00000011,-0.00000204,-0.00000176,-0.00003431,-
 0.00000032,-0.00000135,0.00000187,-0.00001116,0.00045874,0.00028036,0.
 00002393,0.09018978,-0.07995973,-0.12533699,0.02109697,-0.01691660,-0.
 01549555,-0.09586696,0.08490749,0.12586472,0.00018393,-0.00005327,-0.0
 0007700,-0.00020960,0.00005124,0.00009273,0.00052743,0.00051651,0.0000
 6155,-0.00006029,0.00007789,0.00023584,0.00014332,0.00003365,-0.000499
 73,0.00005192,0.00000233,-0.00008009,0.00063753,-0.00026251,-0.0005918
 8,-0.00035458,-0.00011353,0.00031677,0.00003875,0.00002544,-0.00001510
 ,0.00004472,-0.00001011,-0.00003438,-0.00004358,0.00006394,-0.00001083
 ,0.00004521,-0.00000303,-0.00001904,-0.00002981,-0.00000749,-0.0000155
 2,0.00051111,-0.00017420,-0.00050206,-0.00134484,-0.00023106,0.0010575
 3,-0.12395972,-0.00584713,0.06340279,0.00458240,-0.00272507,-0.0003045
 1,-0.00927954,0.02872050,0.01856728,0.00075170,0.00045989,-0.00049426,
 -0.00001991,-0.00013816,0.00010732,0.00005530,0.00001707,-0.00002067,0
 .00019638,-0.00006759,-0.00042402,-0.00043027,-0.00032487,0.00011965,-
 0.00579362,-0.01285205,-0.00400711,-0.16795031,-0.01576937,-0.04852418
 ,-0.00675355,0.00258099,0.00080470,-0.01730241,-0.00213503,-0.00814451
 ,0.44589404,-0.00005464,0.00000064,0.00001967,0.00006317,-0.00001009,-
 0.00002892,0.00094956,0.00031215,-0.00079400,-0.00000671,-0.00004470,-
 0.00005340,-0.00009265,-0.00049528,0.00000155,0.00007276,0.00001480,-0
 .00005069,-0.00020110,0.00008460,0.00018459,0.00010690,0.00004126,-0.0
 0009297,-0.00001307,-0.00000938,0.00000593,-0.00001382,0.00000260,0.00
 001029,0.00001099,-0.00000835,0.00000806,-0.00001469,0.00000068,0.0000
 0663,0.00000931,0.00000304,0.00000340,-0.00028149,0.00011202,0.0003013
 8,0.00046324,0.00011742,-0.00033758,-0.01815046,-0.08521094,0.01360728
 ,-0.00126011,-0.00422242,-0.00168082,0.03179747,-0.00620060,-0.0328677
 7,-0.00023512,-0.00016722,0.00014649,0.00012181,0.00028189,-0.00010412
 ,-0.00001670,-0.00000079,0.00000220,-0.00063245,-0.00019523,0.00052021
 ,0.00024760,0.00062327,0.00011170,0.00117438,0.00257674,0.00079708,-0.
 00405774,-0.08079900,-0.00439546,0.00773010,0.00448688,0.00187266,0.01
 422594,0.00176296,0.00599709,-0.00544360,0.65464558,-0.00020519,0.0000
 5881,0.00006943,0.00023156,-0.00005717,-0.00009126,0.00001852,-0.00050
 669,0.00028169,0.00020147,-0.00013443,-0.00007724,-0.00049931,0.000030
 21,0.00005006,-0.00008167,0.00001625,0.00001664,-0.00068139,0.00028542
 ,0.00065347,0.00038881,0.00012096,-0.00033106,-0.00004057,-0.00002719,
 0.00001839,-0.00004952,0.00000740,0.00003531,0.00005277,-0.00006827,0.
 00002154,-0.00004917,0.00000356,0.00002069,0.00003103,0.00000877,0.000
 01186,-0.00059778,0.00017162,0.00058883,0.00142882,0.00027053,-0.00118
 070,0.06013297,-0.00092378,-0.13234790,0.00048617,0.00002297,0.0055931
 2,0.01832019,-0.03243130,-0.02756349,-0.00081628,-0.00049902,0.0005298
 0,0.00013937,0.00020129,-0.00000546,-0.00003132,-0.00002769,0.00005336
 ,-0.00062675,0.00002340,0.00034367,0.00033559,0.00063608,-0.00031949,0
 .00169755,0.01531757,-0.00254386,-0.04064841,-0.00530300,-0.10145467,-
 0.03241078,-0.00236360,-0.01393585,0.01687676,0.00120006,0.00566040,0.
 04311796,-0.00973539,0.52099652,-0.00002779,0.00000542,0.00000782,0.00
 003207,-0.00000739,-0.00001258,-0.00003825,-0.00010953,-0.00004995,0.0
 0001063,0.00000249,-0.00002044,-0.00003295,-0.00002249,0.00008069,-0.0
 0000652,-0.00000162,0.00001311,-0.00010381,0.00004493,0.00009230,0.000
 05249,0.00001694,-0.00004591,-0.00000607,-0.00000392,0.00000288,-0.000
 00752,0.00000131,0.00000495,0.00000644,-0.00000725,0.00000657,-0.00000
 676,0.00000072,0.00000266,0.00000432,0.00000096,0.00000096,-0.00010942
 ,0.00004846,0.00011968,0.00022814,0.00004009,-0.00016631,-0.00296390,-
 0.01456315,0.02953513,-0.00071852,0.00025529,-0.00032496,0.00142039,-0
 .00542207,-0.00109544,-0.00011719,-0.00007484,0.00007242,0.00001435,0.
 00004565,-0.00005279,-0.00001069,-0.00000405,0.00000631,-0.00009407,-0
 .00000110,0.00009172,0.00012301,0.00008645,0.00001643,0.00060420,0.001
 71024,0.00003415,-0.00696142,0.01975018,-0.02426130,-0.00478444,-0.001
 26379,-0.00110620,-0.00034754,-0.00000402,0.00024906,-0.06432173,0.048
 28853,-0.04977742,0.07349516,-0.00000539,0.00000026,-0.00000218,0.0000
 0488,-0.00000057,0.00000039,-0.00001473,0.00001605,0.00000648,0.000016
 73,-0.00000838,-0.00001882,-0.00000315,0.00002492,-0.00001032,0.000000
 07,0.00000047,-0.00000114,-0.00000726,-0.00000410,0.00000178,0.0000082
 7,0.00000090,-0.00000386,0.00000015,-0.00000042,0.00000071,-0.00000083
 ,-0.00000036,0.00000010,0.00000254,-0.00000005,0.00000316,-0.00000091,
 -0.00000004,0.00000053,0.00000035,0.00000045,-0.00000111,0.00002192,-0
 .00002926,-0.00002340,0.00000086,0.00000619,-0.00000007,-0.00374343,0.
 00500296,-0.00331174,0.00039353,-0.00013654,0.00058232,0.00044119,0.00
 145272,-0.00188196,-0.00001401,-0.00000387,0.00000618,-0.00006679,0.00
 001102,0.00002210,0.00000514,-0.00000278,0.00000783,0.00000599,-0.0000
 1012,-0.00005085,0.00003495,-0.00000392,-0.00000105,-0.00015911,-0.000
 47524,-0.00016229,-0.00353158,0.00293579,-0.00480799,-0.00089492,-0.00
 019227,-0.00098149,0.00011962,0.00003672,0.00027838,0.04523498,-0.1734
 1180,0.12907889,-0.04585026,0.17972512,0.00001873,-0.00000571,-0.00000
 538,-0.00002137,0.00000600,0.00000795,-0.00001199,0.00014133,0.0001030
 9,0.00001102,-0.00002679,-0.00000382,0.00006982,0.00001862,-0.00011859
 ,0.00000559,0.00000374,-0.00001268,0.00006995,-0.00003169,-0.00006135,
 -0.00003408,-0.00001083,0.00002936,0.00000361,0.00000231,-0.00000180,0
 .00000442,-0.00000057,-0.00000298,-0.00000471,0.00000618,-0.00000324,0
 .00000435,-0.00000049,-0.00000171,-0.00000265,-0.00000069,-0.00000074,
 0.00005499,-0.00009908,-0.00007854,-0.00014456,-0.00002932,0.00010340,
 0.00692217,0.01127653,-0.02802277,0.00057851,-0.00047400,0.00014156,0.
 00030576,0.00838415,0.00107059,0.00007271,0.00004349,-0.00004477,-0.00
 007044,-0.00004303,0.00007843,0.00000280,0.00000251,-0.00000033,0.0000
 6315,0.00003146,-0.00004690,-0.00011640,-0.00010609,-0.00001099,-0.001
 96602,-0.00260838,0.00110736,-0.00643226,0.00980385,-0.00803918,-0.001
 56826,0.00007412,-0.00004473,-0.00105782,-0.00026892,-0.00074292,-0.04
 467026,0.12021101,-0.17785802,0.04269358,-0.13781055,0.19990898,-0.000
 01833,0.00000181,0.00000362,0.00002113,-0.00000442,-0.00000792,-0.0002
 8778,-0.00018243,0.00016886,0.00001553,-0.00000996,-0.00002017,-0.0000
 1695,0.00008934,0.00004535,-0.00002686,-0.00000536,0.00002393,-0.00006
 387,0.00001932,0.00005634,0.00003376,0.00001121,-0.00002810,-0.0000041
 2,-0.00000274,0.00000269,-0.00000481,0.00000020,0.00000289,0.00000435,
 -0.00000347,0.00000571,-0.00000450,0.00000046,0.00000189,0.00000273,0.
 00000108,0.,-0.00005793,0.00001935,0.00005887,0.00014596,0.00002938,-0
 .00011266,-0.00725644,0.02831085,0.01989463,-0.00003889,0.00110760,0.0
 0028146,-0.00269495,-0.00277866,0.00307497,-0.00008017,-0.00005612,0.0
 0004667,0.00000314,-0.00006105,-0.00001967,-0.00001411,-0.00000173,0.0
 0001513,-0.00001320,0.00012726,0.00001543,-0.00000774,-0.00002645,0.00
 005548,0.00103459,0.00074900,-0.00038974,-0.00041302,-0.02590927,-0.00
 712437,-0.00049799,0.00107031,-0.00116048,0.00045370,-0.00120227,0.000
 60271,-0.04813720,-0.02967627,-0.01698218,0.00143932,0.00788743,0.0027
 9905,0.06287616,0.00001757,0.00000015,-0.00000269,-0.00001969,0.000002
 93,0.00000668,0.00005960,0.00003410,-0.00002558,-0.00001706,0.00002705
 ,0.00001561,0.00000462,0.00000213,0.00001246,0.00000209,0.00000119,-0.
 00000421,0.00005547,-0.00001514,-0.00004651,-0.00003191,-0.00001096,0.
 00002597,0.00000353,0.00000269,-0.00000223,0.00000416,-0.00000047,-0.0
 0000262,-0.00000439,0.00000204,-0.00000523,0.00000434,-0.00000021,-0.0
 0000195,-0.00000258,-0.00000103,0.00000017,0.00006217,0.00000824,-0.00
 005208,-0.00012668,-0.00003089,0.00009255,0.00191602,0.00124940,-0.001
 00395,-0.00006514,-0.00001609,-0.00009865,-0.00128071,0.00064029,0.000
 92527,0.00007254,0.00005108,-0.00004195,0.00001294,-0.00000460,-0.0000
 0240,0.00000655,0.00000206,-0.00000834,0.00005284,-0.00001153,-0.00003
 080,-0.00000129,-0.00004805,-0.00004755,0.00079707,0.00059586,-0.00077
 085,0.00134893,-0.00296378,0.00027075,-0.00043477,-0.00020601,0.000061
 86,-0.00051063,0.00101623,0.00021301,-0.02058713,-0.29358763,-0.092025
 36,-0.00276244,-0.01649296,-0.00789711,0.02316971,0.30901017,0.0000139
 3,0.00000064,-0.00000532,-0.00001720,0.00000264,0.00000803,0.00029167,
 0.00020450,-0.00016725,-0.00000919,-0.00000215,0.00002196,0.00000173,-
 0.00008802,-0.00007589,0.00002829,0.00000577,-0.00002353,0.00005346,-0
 .00001182,-0.00005079,-0.00002801,-0.00001110,0.00002502,0.00000458,0.
 00000279,-0.00000178,0.00000406,-0.00000106,-0.00000301,-0.00000198,0.
 00000193,-0.00000281,0.00000394,-0.00000031,-0.00000149,-0.00000257,-0
 .00000059,-0.00000102,0.00005609,-0.00003238,-0.00005192,-0.00012509,-
 0.00003699,0.00010793,0.00927357,-0.03017365,-0.02007161,0.00018211,-0
 .00128381,-0.00015923,0.00352245,0.00475566,-0.00253630,0.00006876,0.0
 0005622,-0.00004420,-0.00003107,0.00007276,0.00001305,0.00001814,0.000
 00014,-0.00001119,-0.00000873,-0.00010235,-0.00007283,0.00008234,-0.00
 001051,-0.00001297,-0.00131056,-0.00073127,0.00152181,0.00052653,-0.01
 186145,-0.00211722,-0.00010922,0.00050909,-0.00036811,0.00090431,0.000
 81849,0.00138613,-0.01434738,-0.08283821,-0.08188620,0.00203072,0.0201
 0102,0.01148783,0.00094184,0.10088038,0.09331992,-0.00010758,0.0000453
 8,0.00005774,0.00012343,-0.00003501,-0.00006042,-0.00021267,-0.0002589
 6,0.00012616,0.00005760,-0.00011127,-0.00014873,0.00004897,0.00001366,
 -0.00002070,-0.00003621,0.00000030,0.00001642,-0.00037554,0.00019260,0
 .00038351,0.00021187,0.00006545,-0.00019407,-0.00002291,-0.00001440,0.
 00000766,-0.00002648,0.00000598,0.00002179,0.00002544,-0.00005001,-0.0
 0000483,-0.00002671,0.00000204,0.00001063,0.00001754,0.00000447,0.0000
 1322,-0.00039027,-0.00008325,0.00032097,0.00081855,0.00007932,-0.00070
 033,-0.00195294,-0.00061021,0.00096741,-0.00051341,-0.00072096,0.00043
 073,0.00251685,0.00450044,-0.00132948,-0.00045139,-0.00026494,0.000309
 12,-0.00008024,-0.00000479,0.00006774,-0.00004385,-0.00000677,0.000020
 01,-0.00014614,0.00026086,0.00028725,0.00008501,0.00008245,-0.00008701
 ,-0.01194790,-0.00057133,0.00505281,-0.10451772,-0.02627497,0.02115084
 ,0.00198788,-0.00595470,0.00254592,0.01040230,0.02084457,-0.00474309,-
 0.01115156,-0.04165773,0.00200196,0.00375483,0.00002531,0.00294549,-0.
 00568371,-0.00203606,-0.00177654,0.38908306,-0.00001542,0.00005434,0.0
 0001626,0.00001448,-0.00002510,-0.00000517,-0.00011821,-0.00021347,0.0
 0006956,-0.00009820,0.00003884,0.00007266,-0.00007231,0.00012753,0.000
 11970,-0.00002949,-0.00001192,0.00002075,-0.00005830,0.00011257,0.0000
 7920,0.00002131,-0.00000688,-0.00002250,0.00000334,0.00000398,-0.00000
 119,-0.00000048,-0.00000243,0.00000108,0.00001007,-0.00004002,-0.00001
 661,-0.00000015,0.00000162,-0.00000031,-0.00000004,0.00000005,0.000004
 61,0.00000710,0.00010915,0.00002013,0.00005492,-0.00011164,-0.00007843
 ,-0.00690695,0.00754485,0.00539161,0.00004419,0.00140044,-0.00038813,-
 0.00147882,-0.01550122,-0.00244646,-0.00001057,0.00006982,0.00002042,0
 .00017135,0.00013069,-0.00003837,0.00004018,-0.00000704,-0.00002592,0.
 00004038,-0.00029352,-0.00019206,0.00016115,0.00011920,-0.00005790,0.0
 0847892,0.00837653,-0.00147078,-0.06577170,-0.24700187,0.03168794,-0.0
 1035285,-0.02597815,0.01080722,-0.00951126,-0.03818598,0.00318690,-0.0
 0964973,-0.02241474,-0.00308856,0.00039212,0.00158864,-0.00004109,-0.0
 0330449,0.00019325,-0.00048394,-0.11776331,0.53476300,0.00004341,-0.00
 001093,-0.00000026,-0.00004551,0.00001078,0.00000798,0.00002979,-0.000
 00769,0.00004277,-0.00006222,0.00005424,-0.00001365,-0.00003466,0.0000
 2478,0.00005874,-0.00001428,0.00000341,-0.00000849,0.00011310,-0.00003
 694,-0.00007310,-0.00006996,-0.00001961,0.00004865,0.00000485,0.000003
 98,-0.00000456,0.00000736,0.00000107,-0.00000363,-0.00001524,0.0000106
 2,-0.00001085,0.00000865,-0.00000032,-0.00000426,-0.00000441,-0.000002
 07,0.00000217,0.00008416,0.00005499,-0.00006441,-0.00023483,-0.0000358
 8,0.00015531,-0.00217536,0.00071767,0.00287364,0.00000982,0.00044336,-
 0.00017118,-0.00111132,-0.00478139,-0.00083776,0.00014155,0.00008128,-
 0.00007388,0.00007296,0.00000257,0.00000504,0.00000088,0.00000191,-0.0
 0001400,-0.00000807,-0.00013515,-0.00003386,-0.00002480,0.00002923,-0.
 00006040,0.00624850,0.00161275,0.00088025,0.02239970,0.01727803,-0.074
 54990,0.01106991,0.03503214,0.00415089,-0.00628051,-0.01632125,0.00679
 822,-0.00481024,-0.01124551,0.00203691,0.00270176,-0.00043410,0.001880
 12,-0.00243260,-0.00093891,-0.00004858,-0.16638097,0.07069357,0.139345
 36,0.00012122,-0.00003903,-0.00005681,-0.00013963,0.00003558,0.0000656
 1,0.00024188,0.00020673,-0.00014493,-0.00010794,0.00017018,0.00021115,
 -0.00012723,0.00003852,0.00011921,0.00003258,-0.00000401,-0.00001642,0
 .00042155,-0.00020123,-0.00042071,-0.00023778,-0.00007650,0.00021375,0
 .00002719,0.00001739,-0.00001061,0.00003106,-0.00000611,-0.00002427,-0
 .00002774,0.00004747,-0.00000388,0.00003060,-0.00000241,-0.00001238,-0
 .00001992,-0.00000540,-0.00001198,0.00049459,0.00019352,-0.00037440,-0
 .00095376,-0.00010530,0.00079871,-0.00229342,0.00618021,0.00381500,0.0
 0070430,0.00166719,-0.00082698,-0.00540193,-0.01508669,0.00046868,0.00
 052355,0.00032582,-0.00034838,0.00021039,0.00003954,-0.00012017,0.0000
 6630,0.00000668,-0.00004351,0.00017890,-0.00050698,-0.00038345,-0.0000
 3262,-0.00002547,0.00003576,0.00207378,0.00887099,-0.00006524,0.011385
 88,-0.01012848,-0.00593070,-0.00073880,-0.00125754,0.00113469,-0.00002
 877,-0.00473535,-0.00036094,0.00347876,-0.00345339,-0.00196376,-0.0005
 2675,0.00008848,-0.00052484,-0.00070781,0.00029035,-0.00024099,-0.2714
 4609,0.21570273,0.14076856,0.26276767,0.00001229,-0.00002351,-0.000007
 79,-0.00001349,0.00001296,0.00000482,0.00012997,0.00015458,-0.00006118
 ,0.00005701,0.00003822,-0.00000897,-0.00001833,-0.00005388,-0.00001871
 ,0.00001773,0.00000696,-0.00001683,0.00005122,-0.00006338,-0.00005931,
 -0.00002172,-0.00000242,0.00001911,0.00000085,-0.00000051,-0.00000062,
 0.00000252,0.00000099,-0.00000202,-0.00000499,0.00001834,0.00000475,0.
 00000177,-0.00000116,-0.00000049,-0.00000106,-0.00000023,-0.00000197,0
 .00005441,0.00000273,-0.00004446,-0.00009360,0.00004219,0.00009401,0.0
 0128849,-0.00217275,-0.00133251,-0.00007579,-0.00028369,-0.00015447,-0
 .00241659,0.00284532,0.00193496,0.00003731,-0.00000516,-0.00002963,-0.
 00001128,-0.00005833,0.00000433,-0.00000422,0.00000231,0.00000192,-0.0
 0000292,0.00002649,0.00003410,-0.00005619,-0.00004579,0.00001205,0.004
 33264,-0.00493480,-0.00172327,0.02805734,-0.03714060,-0.01631882,0.000
 74663,0.00118688,-0.00001955,-0.00276739,-0.00500305,0.00215642,-0.001
 38951,0.00171165,-0.00026233,-0.00059187,-0.00002955,-0.00055096,0.000
 63039,0.00055049,0.00025755,0.17029585,-0.20484052,-0.09208661,-0.1982
 4748,0.24805921,-0.00005010,0.00000949,0.00000713,0.00005525,-0.000011
 71,-0.00001535,-0.00006597,0.00001423,-0.00003348,0.00010515,-0.000074
 10,0.00000855,0.00003521,-0.00003933,-0.00009608,0.00001207,-0.0000020
 0,0.00000944,-0.00014837,0.00004891,0.00011484,0.00008791,0.00002749,-
 0.00006770,-0.00000881,-0.00000608,0.00000523,-0.00001076,0.00000063,0
 .00000657,0.00001460,-0.00001189,0.00001092,-0.00001120,0.00000058,0.0
 0000498,0.00000644,0.00000213,-0.00000027,-0.00015141,-0.00008198,0.00
 011184,0.00033106,0.00005666,-0.00023991,0.00170147,-0.00288959,-0.002
 99212,0.00020499,-0.00052034,0.00059088,0.00235816,0.00674831,0.000656
 12,-0.00018906,-0.00012268,0.00010925,-0.00010721,0.00001697,0.0000183
 0,-0.00001226,-0.00000279,0.00001427,0.00003054,0.00019235,0.00005395,
 0.00000461,-0.00002470,0.00003708,-0.00156357,-0.00368511,-0.00386231,
 -0.00430164,0.00328865,0.00207048,-0.00038709,0.00174058,0.00009622,0.
 00005754,0.00064807,0.00073631,-0.00029135,0.00041764,0.00261351,-0.00
 084961,-0.00058693,-0.00081726,0.00018037,0.00050425,-0.00017844,0.138
 70880,-0.11383419,-0.08231327,-0.13574578,0.10817646,0.08334032\\0.000
 00224,-0.00000389,-0.00000130,0.00000083,0.00000320,-0.00000038,0.0000
 0005,-0.00000013,-0.00000031,-0.00000016,-0.00000055,-0.00000044,0.000
 00042,0.00000023,-0.00000045,0.00000026,0.,-0.00000059,-0.00000171,0.0
 0000015,0.00000038,-0.00000005,0.00000047,0.00000066,0.00000010,0.0000
 0074,0.00000074,0.00000036,0.00000032,0.00000018,-0.00000104,0.0000050
 0,0.00000158,0.00000017,0.00000063,-0.00000003,0.00000083,-0.00000035,
 0.00000094,0.00000008,0.00000053,0.00000021,0.00000043,-0.00000104,-0.
 00000120,0.00000063,0.00000113,-0.00000032,-0.00000034,0.,0.,0.0000003
 8,-0.00000079,0.00000003,-0.00000035,0.00000227,0.00000122,0.00000033,
 -0.00000010,0.00000003,0.00000005,0.00000027,0.00000038,-0.00000026,-0
 .00000016,0.00000023,-0.00000024,-0.00000008,0.00000041,-0.00000001,-0
 .00000084,-0.00000116,0.00000122,0.00000451,-0.00000010,-0.00000018,-0
 .00000201,-0.00000112,-0.00000033,-0.00000086,-0.00000010,-0.00000089,
 -0.00000089,0.00000093,0.00000021,-0.00000177,-0.00000056,-0.00000044,
 -0.00000125,0.00000032,-0.00000313,-0.00000388,0.00000023,0.00000054,-
 0.00000084,-0.00000041\\\@


 Where a calculator on the ENIAC is equipped with 18,000
 vacuum tubes and weighs 30 tons, computers inthe future
 may  have only 1,000 vacuum tubes and weigh only 1 1/2 tons.
              ---Popular Mechanics, March 1949
 Job cpu time:       0 days  9 hours 22 minutes 40.1 seconds.
 Elapsed time:       0 days  0 hours 15 minutes 38.7 seconds.
 File lengths (MBytes):  RWF=   1017 Int=      0 D2E=      0 Chk=     35 Scr=      1
 Normal termination of Gaussian 16 at Fri Jun 28 15:52:09 2019.
