 Entering Gaussian System, Link 0=g16
 Initial command:
 /nopt/nrel/apps/gaussian/g16B/g16/l1.exe "/dev/shm/Gau-67920.inp" -scrdir="/dev/shm/"
 Default is to use a total of  36 processors:
                               36 via shared-memory
                                1 via Linda
 Entering Link 1 = /nopt/nrel/apps/gaussian/g16B/g16/l1.exe PID=     67921.
  
 Copyright (c) 1988-2017, Gaussian, Inc.  All Rights Reserved.
  
 This is part of the Gaussian(R) 16 program.  It is based on
 the Gaussian(R) 09 system (copyright 2009, Gaussian, Inc.),
 the Gaussian(R) 03 system (copyright 2003, Gaussian, Inc.),
 the Gaussian(R) 98 system (copyright 1998, Gaussian, Inc.),
 the Gaussian(R) 94 system (copyright 1995, Gaussian, Inc.),
 the Gaussian 92(TM) system (copyright 1992, Gaussian, Inc.),
 the Gaussian 90(TM) system (copyright 1990, Gaussian, Inc.),
 the Gaussian 88(TM) system (copyright 1988, Gaussian, Inc.),
 the Gaussian 86(TM) system (copyright 1986, Carnegie Mellon
 University), and the Gaussian 82(TM) system (copyright 1983,
 Carnegie Mellon University). Gaussian is a federally registered
 trademark of Gaussian, Inc.
  
 This software contains proprietary and confidential information,
 including trade secrets, belonging to Gaussian, Inc.
  
 This software is provided under written license and may be
 used, copied, transmitted, or stored only in accord with that
 written license.
  
 The following legend is applicable only to US Government
 contracts under FAR:
  
                    RESTRICTED RIGHTS LEGEND
  
 Use, reproduction and disclosure by the US Government is
 subject to restrictions as set forth in subparagraphs (a)
 and (c) of the Commercial Computer Software - Restricted
 Rights clause in FAR 52.227-19.
  
 Gaussian, Inc.
 340 Quinnipiac St., Bldg. 40, Wallingford CT 06492
  
  
 ---------------------------------------------------------------
 Warning -- This program may not be used in any manner that
 competes with the business of Gaussian, Inc. or will provide
 assistance to any competitor of Gaussian, Inc.  The licensee
 of this program is prohibited from giving any competitor of
 Gaussian, Inc. access to this program.  By using this program,
 the user acknowledges that Gaussian, Inc. is engaged in the
 business of creating and licensing software in the field of
 computational chemistry and represents and warrants to the
 licensee that it is not a competitor of Gaussian, Inc. and that
 it will not use this program in any manner prohibited above.
 ---------------------------------------------------------------
  

 Cite this work as:
 Gaussian 16, Revision B.01,
 M. J. Frisch, G. W. Trucks, H. B. Schlegel, G. E. Scuseria, 
 M. A. Robb, J. R. Cheeseman, G. Scalmani, V. Barone, 
 G. A. Petersson, H. Nakatsuji, X. Li, M. Caricato, A. V. Marenich, 
 J. Bloino, B. G. Janesko, R. Gomperts, B. Mennucci, H. P. Hratchian, 
 J. V. Ortiz, A. F. Izmaylov, J. L. Sonnenberg, D. Williams-Young, 
 F. Ding, F. Lipparini, F. Egidi, J. Goings, B. Peng, A. Petrone, 
 T. Henderson, D. Ranasinghe, V. G. Zakrzewski, J. Gao, N. Rega, 
 G. Zheng, W. Liang, M. Hada, M. Ehara, K. Toyota, R. Fukuda, 
 J. Hasegawa, M. Ishida, T. Nakajima, Y. Honda, O. Kitao, H. Nakai, 
 T. Vreven, K. Throssell, J. A. Montgomery, Jr., J. E. Peralta, 
 F. Ogliaro, M. J. Bearpark, J. J. Heyd, E. N. Brothers, K. N. Kudin, 
 V. N. Staroverov, T. A. Keith, R. Kobayashi, J. Normand, 
 K. Raghavachari, A. P. Rendell, J. C. Burant, S. S. Iyengar, 
 J. Tomasi, M. Cossi, J. M. Millam, M. Klene, C. Adamo, R. Cammi, 
 J. W. Ochterski, R. L. Martin, K. Morokuma, O. Farkas, 
 J. B. Foresman, and D. J. Fox, Gaussian, Inc., Wallingford CT, 2016.
 
 ******************************************
 Gaussian 16:  ES64L-G16RevB.01 20-Dec-2017
                 2-Jul-2019 
 ******************************************
 %RWF=/dev/shm/,5GB,/tmp/scratch/928950/,-1
 %NoSave
 %Chk=/dev/shm/pet_trimer_confab_1_tzvp_opt.chk
 Default route: CacheSize=180224 MaxDisk=256GB
 -----------------------------------
 # m062x/Def2TZVP nosymm scf=xqc opt
 -----------------------------------
 1/4=180224,18=20,19=15,26=3,38=1/1,3;
 2/4=180224,9=110,12=2,15=1,17=6,18=5,40=1/2;
 3/4=180224,5=44,7=101,11=2,25=1,30=1,71=1,74=-55/1,2,3;
 4/4=180224/1;
 5/4=180224,5=2,8=3,13=1,38=5/2,8;
 6/4=180224,7=2,8=2,9=2,10=2,28=1/1;
 7/4=180224,30=1/1,2,3,16;
 1/4=180224,18=20,19=15,26=3/3(2);
 2/4=180224,9=110,15=1/2;
 99/4=180224/99;
 2/4=180224,9=110,15=1/2;
 3/4=180224,5=44,7=101,11=2,25=1,30=1,71=1,74=-55/1,2,3;
 4/4=180224,5=5,16=3,69=1/1;
 5/4=180224,5=2,8=3,13=1,38=5/2,8;
 7/4=180224,30=1/1,2,3,16;
 1/4=180224,18=20,19=15,26=3/3(-5);
 2/4=180224,9=110,15=1/2;
 6/4=180224,7=2,8=2,9=2,10=2,19=2,28=1/1;
 99/4=180224,9=1/99;
 -----------------------------------
 from confab, opt with m062x/Def2SVP
 -----------------------------------
 Symbolic Z-matrix:
 Charge =  0 Multiplicity = 1
 O                     3.46731   6.41645   16.73465 
 H                     3.13173   6.38997   15.82766 
 C                     0.95286   1.97318   12.25424 
 H                     1.36724   1.22114   11.59658 
 C                     1.43723   2.15195   13.53599 
 H                     2.23713   1.53662   13.92495 
 O                     2.15124   2.47535   16.25367 
 C                     1.84743   4.77956   17.52752 
 H                     1.74722   3.89451   18.15464 
 H                     1.28752   5.61385   17.94808 
 C                     3.30335   5.16262   17.35143 
 H                     3.75054   5.24113   18.3437 
 H                     3.82963   4.37071   16.81045 
 C                     0.89927   3.14748   14.34688 
 C                     1.48838   3.31102   15.70706 
 O                    -1.72727   3.16742   10.14255 
 C                    -0.09263   2.76736   11.79252 
 C                    -0.58357   2.5204    10.40517 
 O                     1.22308   4.51701   16.25073 
 C                    -0.14071   3.94756   13.88482 
 H                    -0.56322   4.71258   14.52399 
 C                    -0.64674   3.74685   12.60981 
 H                    -1.46331   4.35228   12.24252 
 O                    -0.0254    1.81287   9.61106 
 C                    -5.87747  -1.34054   13.17161 
 H                    -6.14513  -2.31192   13.56515 
 C                    -5.30564  -1.20432   11.91947 
 H                    -5.11402  -2.06383   11.29125 
 O                    -4.03336  -0.78172   9.4184 
 C                    -2.92178   1.53614   8.78307 
 H                    -2.15529   0.76485   8.82501 
 H                    -3.47594   1.42525   7.84888 
 C                    -4.93587   0.0568    11.46225 
 C                    -4.2307    0.14775   10.15063 
 C                    -2.32333   2.9215    8.86772 
 H                    -3.09478   3.68276   8.77358 
 H                    -1.58132   3.04314   8.07811 
 O                    -6.90734   0.76185   15.93442 
 C                    -6.09593  -0.21304   13.95705 
 C                    -6.63225  -0.4063    15.33449 
 O                    -3.80121   1.392     9.89664 
 C                    -5.16796   1.18575   12.24085 
 H                    -4.87064   2.15822   11.87545 
 C                    -5.75726   1.05134   13.48576 
 H                    -5.93837   1.91804   14.10489 
 O                    -6.77957  -1.47498   15.86185 
 C                    -1.69668   4.85557   18.63761 
 H                    -1.00795   5.33978   19.31721 
 C                    -2.42685   3.74782   19.02731 
 H                    -2.3153    3.31837   20.01388 
 O                    -3.90837   1.39594   19.62684 
 C                    -5.98642   0.62485   18.16026 
 H                    -6.23462   0.65162   19.22186 
 H                    -5.43091  -0.29154   17.95585 
 C                    -3.34358   3.18063   18.14759 
 C                    -4.14578   2.01619   18.62766 
 C                    -7.23712   0.70998   17.32103 
 H                    -7.88025  -0.14534   17.52487 
 H                    -7.7697    1.6371    17.52247 
 O                    -1.06797   6.84688   15.6873 
 C                    -1.85616   5.37572   17.35611 
 C                    -1.08888   6.60514   17.00558 
 O                    -5.17903   1.75245   17.81822 
 C                    -3.504     3.69848   16.8667 
 H                    -4.2197    3.24736   16.1941 
 C                    -2.7491    4.78873   16.46549 
 H                    -2.86918   5.20339   15.47413 
 O                    -0.55608   7.31151   17.81903 
 C                    -0.42161   8.06111   15.26424 
 H                    -0.75039   8.19612   14.23577 
 H                    -0.76851   8.88708   15.88597 
 C                     1.08584   7.94654   15.33339 
 H                     1.41165   7.84498   16.37056 
 H                     1.5179    8.86206   14.92747 
 O                     1.57139   6.87694   14.54257 
 H                     1.18118   6.05996   14.88172 
 

 GradGradGradGradGradGradGradGradGradGradGradGradGradGradGradGradGradGrad
 Berny optimization.
 Initialization pass.
                           ----------------------------
                           !    Initial Parameters    !
                           ! (Angstroms and Degrees)  !
 --------------------------                            --------------------------
 ! Name  Definition              Value          Derivative Info.                !
 --------------------------------------------------------------------------------
 ! R1    R(1,2)                  0.9674         estimate D2E/DX2                !
 ! R2    R(1,11)                 1.4069         estimate D2E/DX2                !
 ! R3    R(3,4)                  1.0816         estimate D2E/DX2                !
 ! R4    R(3,5)                  1.3818         estimate D2E/DX2                !
 ! R5    R(3,17)                 1.3917         estimate D2E/DX2                !
 ! R6    R(5,6)                  1.0816         estimate D2E/DX2                !
 ! R7    R(5,14)                 1.3921         estimate D2E/DX2                !
 ! R8    R(7,15)                 1.1986         estimate D2E/DX2                !
 ! R9    R(8,9)                  1.0893         estimate D2E/DX2                !
 ! R10   R(8,10)                 1.0892         estimate D2E/DX2                !
 ! R11   R(8,11)                 1.5157         estimate D2E/DX2                !
 ! R12   R(8,19)                 1.4453         estimate D2E/DX2                !
 ! R13   R(11,12)                1.0912         estimate D2E/DX2                !
 ! R14   R(11,13)                1.094          estimate D2E/DX2                !
 ! R15   R(14,15)                1.4913         estimate D2E/DX2                !
 ! R16   R(14,20)                1.3911         estimate D2E/DX2                !
 ! R17   R(15,19)                1.3492         estimate D2E/DX2                !
 ! R18   R(16,18)                1.34           estimate D2E/DX2                !
 ! R19   R(16,35)                1.4286         estimate D2E/DX2                !
 ! R20   R(17,18)                1.4922         estimate D2E/DX2                !
 ! R21   R(17,22)                1.3908         estimate D2E/DX2                !
 ! R22   R(18,24)                1.2011         estimate D2E/DX2                !
 ! R23   R(20,21)                1.0827         estimate D2E/DX2                !
 ! R24   R(20,22)                1.3864         estimate D2E/DX2                !
 ! R25   R(22,23)                1.0808         estimate D2E/DX2                !
 ! R26   R(25,26)                1.0817         estimate D2E/DX2                !
 ! R27   R(25,27)                1.3833         estimate D2E/DX2                !
 ! R28   R(25,39)                1.3914         estimate D2E/DX2                !
 ! R29   R(27,28)                1.0817         estimate D2E/DX2                !
 ! R30   R(27,33)                1.3915         estimate D2E/DX2                !
 ! R31   R(29,34)                1.1996         estimate D2E/DX2                !
 ! R32   R(30,31)                1.0882         estimate D2E/DX2                !
 ! R33   R(30,32)                1.0918         estimate D2E/DX2                !
 ! R34   R(30,35)                1.5115         estimate D2E/DX2                !
 ! R35   R(30,41)                1.4263         estimate D2E/DX2                !
 ! R36   R(33,34)                1.4919         estimate D2E/DX2                !
 ! R37   R(33,42)                1.3909         estimate D2E/DX2                !
 ! R38   R(34,41)                1.3406         estimate D2E/DX2                !
 ! R39   R(35,36)                1.0879         estimate D2E/DX2                !
 ! R40   R(35,37)                1.0903         estimate D2E/DX2                !
 ! R41   R(38,40)                1.3417         estimate D2E/DX2                !
 ! R42   R(38,57)                1.4262         estimate D2E/DX2                !
 ! R43   R(39,40)                1.4907         estimate D2E/DX2                !
 ! R44   R(39,44)                1.3912         estimate D2E/DX2                !
 ! R45   R(40,46)                1.2008         estimate D2E/DX2                !
 ! R46   R(42,43)                1.0806         estimate D2E/DX2                !
 ! R47   R(42,44)                1.3839         estimate D2E/DX2                !
 ! R48   R(44,45)                1.0804         estimate D2E/DX2                !
 ! R49   R(47,48)                1.082          estimate D2E/DX2                !
 ! R50   R(47,49)                1.3828         estimate D2E/DX2                !
 ! R51   R(47,61)                1.3922         estimate D2E/DX2                !
 ! R52   R(49,50)                1.0818         estimate D2E/DX2                !
 ! R53   R(49,55)                1.3914         estimate D2E/DX2                !
 ! R54   R(51,56)                1.1998         estimate D2E/DX2                !
 ! R55   R(52,53)                1.0906         estimate D2E/DX2                !
 ! R56   R(52,54)                1.0909         estimate D2E/DX2                !
 ! R57   R(52,57)                1.5086         estimate D2E/DX2                !
 ! R58   R(52,63)                1.4284         estimate D2E/DX2                !
 ! R59   R(55,56)                1.4933         estimate D2E/DX2                !
 ! R60   R(55,64)                1.3909         estimate D2E/DX2                !
 ! R61   R(56,63)                1.3388         estimate D2E/DX2                !
 ! R62   R(57,58)                1.0894         estimate D2E/DX2                !
 ! R63   R(57,59)                1.088          estimate D2E/DX2                !
 ! R64   R(60,62)                1.3404         estimate D2E/DX2                !
 ! R65   R(60,69)                1.4391         estimate D2E/DX2                !
 ! R66   R(61,62)                1.491          estimate D2E/DX2                !
 ! R67   R(61,66)                1.3911         estimate D2E/DX2                !
 ! R68   R(62,68)                1.2019         estimate D2E/DX2                !
 ! R69   R(64,65)                1.0808         estimate D2E/DX2                !
 ! R70   R(64,66)                1.3855         estimate D2E/DX2                !
 ! R71   R(66,67)                1.0813         estimate D2E/DX2                !
 ! R72   R(69,70)                1.0882         estimate D2E/DX2                !
 ! R73   R(69,71)                1.0905         estimate D2E/DX2                !
 ! R74   R(69,72)                1.5134         estimate D2E/DX2                !
 ! R75   R(72,73)                1.0919         estimate D2E/DX2                !
 ! R76   R(72,74)                1.0907         estimate D2E/DX2                !
 ! R77   R(72,75)                1.4161         estimate D2E/DX2                !
 ! R78   R(75,76)                0.9668         estimate D2E/DX2                !
 ! A1    A(2,1,11)             110.2536         estimate D2E/DX2                !
 ! A2    A(4,3,5)              121.3108         estimate D2E/DX2                !
 ! A3    A(4,3,17)             118.8723         estimate D2E/DX2                !
 ! A4    A(5,3,17)             119.8164         estimate D2E/DX2                !
 ! A5    A(3,5,6)              121.2798         estimate D2E/DX2                !
 ! A6    A(3,5,14)             119.8249         estimate D2E/DX2                !
 ! A7    A(6,5,14)             118.8933         estimate D2E/DX2                !
 ! A8    A(9,8,10)             110.6551         estimate D2E/DX2                !
 ! A9    A(9,8,11)             111.1355         estimate D2E/DX2                !
 ! A10   A(9,8,19)             108.7381         estimate D2E/DX2                !
 ! A11   A(10,8,11)            110.1841         estimate D2E/DX2                !
 ! A12   A(10,8,19)            104.9613         estimate D2E/DX2                !
 ! A13   A(11,8,19)            110.991          estimate D2E/DX2                !
 ! A14   A(1,11,8)             112.8366         estimate D2E/DX2                !
 ! A15   A(1,11,12)            106.6646         estimate D2E/DX2                !
 ! A16   A(1,11,13)            111.8557         estimate D2E/DX2                !
 ! A17   A(8,11,12)            107.8295         estimate D2E/DX2                !
 ! A18   A(8,11,13)            109.6695         estimate D2E/DX2                !
 ! A19   A(12,11,13)           107.7343         estimate D2E/DX2                !
 ! A20   A(5,14,15)            117.1966         estimate D2E/DX2                !
 ! A21   A(5,14,20)            120.4454         estimate D2E/DX2                !
 ! A22   A(15,14,20)           122.3575         estimate D2E/DX2                !
 ! A23   A(7,15,14)            123.9164         estimate D2E/DX2                !
 ! A24   A(7,15,19)            123.2434         estimate D2E/DX2                !
 ! A25   A(14,15,19)           112.8231         estimate D2E/DX2                !
 ! A26   A(18,16,35)           116.6066         estimate D2E/DX2                !
 ! A27   A(3,17,18)            117.4607         estimate D2E/DX2                !
 ! A28   A(3,17,22)            120.4115         estimate D2E/DX2                !
 ! A29   A(18,17,22)           122.1277         estimate D2E/DX2                !
 ! A30   A(16,18,17)           112.525          estimate D2E/DX2                !
 ! A31   A(16,18,24)           123.4675         estimate D2E/DX2                !
 ! A32   A(17,18,24)           124.0051         estimate D2E/DX2                !
 ! A33   A(8,19,15)            115.6837         estimate D2E/DX2                !
 ! A34   A(14,20,21)           120.1342         estimate D2E/DX2                !
 ! A35   A(14,20,22)           119.6745         estimate D2E/DX2                !
 ! A36   A(21,20,22)           120.184          estimate D2E/DX2                !
 ! A37   A(17,22,20)           119.7998         estimate D2E/DX2                !
 ! A38   A(17,22,23)           119.7213         estimate D2E/DX2                !
 ! A39   A(20,22,23)           120.4765         estimate D2E/DX2                !
 ! A40   A(26,25,27)           121.3356         estimate D2E/DX2                !
 ! A41   A(26,25,39)           118.9124         estimate D2E/DX2                !
 ! A42   A(27,25,39)           119.7432         estimate D2E/DX2                !
 ! A43   A(25,27,28)           121.3787         estimate D2E/DX2                !
 ! A44   A(25,27,33)           119.7717         estimate D2E/DX2                !
 ! A45   A(28,27,33)           118.8312         estimate D2E/DX2                !
 ! A46   A(31,30,32)           108.572          estimate D2E/DX2                !
 ! A47   A(31,30,35)           111.6291         estimate D2E/DX2                !
 ! A48   A(31,30,41)           109.4258         estimate D2E/DX2                !
 ! A49   A(32,30,35)           109.9971         estimate D2E/DX2                !
 ! A50   A(32,30,41)           110.1705         estimate D2E/DX2                !
 ! A51   A(35,30,41)           107.0401         estimate D2E/DX2                !
 ! A52   A(27,33,34)           118.0164         estimate D2E/DX2                !
 ! A53   A(27,33,42)           120.4873         estimate D2E/DX2                !
 ! A54   A(34,33,42)           121.434          estimate D2E/DX2                !
 ! A55   A(29,34,33)           124.5517         estimate D2E/DX2                !
 ! A56   A(29,34,41)           123.4217         estimate D2E/DX2                !
 ! A57   A(33,34,41)           111.9978         estimate D2E/DX2                !
 ! A58   A(16,35,30)           111.8979         estimate D2E/DX2                !
 ! A59   A(16,35,36)           104.6332         estimate D2E/DX2                !
 ! A60   A(16,35,37)           110.0656         estimate D2E/DX2                !
 ! A61   A(30,35,36)           110.8394         estimate D2E/DX2                !
 ! A62   A(30,35,37)           109.3381         estimate D2E/DX2                !
 ! A63   A(36,35,37)           109.9888         estimate D2E/DX2                !
 ! A64   A(40,38,57)           116.7739         estimate D2E/DX2                !
 ! A65   A(25,39,40)           118.2318         estimate D2E/DX2                !
 ! A66   A(25,39,44)           120.4655         estimate D2E/DX2                !
 ! A67   A(40,39,44)           121.226          estimate D2E/DX2                !
 ! A68   A(38,40,39)           111.9655         estimate D2E/DX2                !
 ! A69   A(38,40,46)           123.5954         estimate D2E/DX2                !
 ! A70   A(39,40,46)           124.4245         estimate D2E/DX2                !
 ! A71   A(30,41,34)           116.0576         estimate D2E/DX2                !
 ! A72   A(33,42,43)           119.6869         estimate D2E/DX2                !
 ! A73   A(33,42,44)           119.7218         estimate D2E/DX2                !
 ! A74   A(43,42,44)           120.5825         estimate D2E/DX2                !
 ! A75   A(39,44,42)           119.7801         estimate D2E/DX2                !
 ! A76   A(39,44,45)           119.6123         estimate D2E/DX2                !
 ! A77   A(42,44,45)           120.5952         estimate D2E/DX2                !
 ! A78   A(48,47,49)           121.1724         estimate D2E/DX2                !
 ! A79   A(48,47,61)           118.9396         estimate D2E/DX2                !
 ! A80   A(49,47,61)           119.8825         estimate D2E/DX2                !
 ! A81   A(47,49,50)           121.3728         estimate D2E/DX2                !
 ! A82   A(47,49,55)           119.754          estimate D2E/DX2                !
 ! A83   A(50,49,55)           118.8636         estimate D2E/DX2                !
 ! A84   A(53,52,54)           108.5967         estimate D2E/DX2                !
 ! A85   A(53,52,57)           110.5767         estimate D2E/DX2                !
 ! A86   A(53,52,63)           110.0214         estimate D2E/DX2                !
 ! A87   A(54,52,57)           111.4277         estimate D2E/DX2                !
 ! A88   A(54,52,63)           109.2938         estimate D2E/DX2                !
 ! A89   A(57,52,63)           106.9093         estimate D2E/DX2                !
 ! A90   A(49,55,56)           117.9405         estimate D2E/DX2                !
 ! A91   A(49,55,64)           120.4286         estimate D2E/DX2                !
 ! A92   A(56,55,64)           121.6294         estimate D2E/DX2                !
 ! A93   A(51,56,55)           124.3716         estimate D2E/DX2                !
 ! A94   A(51,56,63)           123.6699         estimate D2E/DX2                !
 ! A95   A(55,56,63)           111.953          estimate D2E/DX2                !
 ! A96   A(38,57,52)           110.5606         estimate D2E/DX2                !
 ! A97   A(38,57,58)           110.3025         estimate D2E/DX2                !
 ! A98   A(38,57,59)           105.201          estimate D2E/DX2                !
 ! A99   A(52,57,58)           109.9405         estimate D2E/DX2                !
 ! A100  A(52,57,59)           110.5428         estimate D2E/DX2                !
 ! A101  A(58,57,59)           110.2077         estimate D2E/DX2                !
 ! A102  A(62,60,69)           116.6333         estimate D2E/DX2                !
 ! A103  A(47,61,62)           117.7439         estimate D2E/DX2                !
 ! A104  A(47,61,66)           120.3452         estimate D2E/DX2                !
 ! A105  A(62,61,66)           121.8537         estimate D2E/DX2                !
 ! A106  A(60,62,61)           112.8267         estimate D2E/DX2                !
 ! A107  A(60,62,68)           123.5539         estimate D2E/DX2                !
 ! A108  A(61,62,68)           123.616          estimate D2E/DX2                !
 ! A109  A(52,63,56)           116.5494         estimate D2E/DX2                !
 ! A110  A(55,64,65)           119.6082         estimate D2E/DX2                !
 ! A111  A(55,64,66)           119.7907         estimate D2E/DX2                !
 ! A112  A(65,64,66)           120.6008         estimate D2E/DX2                !
 ! A113  A(61,66,64)           119.7622         estimate D2E/DX2                !
 ! A114  A(61,66,67)           119.7661         estimate D2E/DX2                !
 ! A115  A(64,66,67)           120.4498         estimate D2E/DX2                !
 ! A116  A(60,69,70)           104.2897         estimate D2E/DX2                !
 ! A117  A(60,69,71)           109.1835         estimate D2E/DX2                !
 ! A118  A(60,69,72)           111.7196         estimate D2E/DX2                !
 ! A119  A(70,69,71)           110.4131         estimate D2E/DX2                !
 ! A120  A(70,69,72)           110.7039         estimate D2E/DX2                !
 ! A121  A(71,69,72)           110.3749         estimate D2E/DX2                !
 ! A122  A(69,72,73)           110.3451         estimate D2E/DX2                !
 ! A123  A(69,72,74)           108.3025         estimate D2E/DX2                !
 ! A124  A(69,72,75)           111.914          estimate D2E/DX2                !
 ! A125  A(73,72,74)           108.2641         estimate D2E/DX2                !
 ! A126  A(73,72,75)           110.9719         estimate D2E/DX2                !
 ! A127  A(74,72,75)           106.8783         estimate D2E/DX2                !
 ! A128  A(72,75,76)           107.6966         estimate D2E/DX2                !
 ! D1    D(2,1,11,8)           -64.9903         estimate D2E/DX2                !
 ! D2    D(2,1,11,12)          176.7904         estimate D2E/DX2                !
 ! D3    D(2,1,11,13)           59.2325         estimate D2E/DX2                !
 ! D4    D(4,3,5,6)             -0.7915         estimate D2E/DX2                !
 ! D5    D(4,3,5,14)           178.695          estimate D2E/DX2                !
 ! D6    D(17,3,5,6)           178.9227         estimate D2E/DX2                !
 ! D7    D(17,3,5,14)           -1.5908         estimate D2E/DX2                !
 ! D8    D(4,3,17,18)            0.318          estimate D2E/DX2                !
 ! D9    D(4,3,17,22)         -179.8037         estimate D2E/DX2                !
 ! D10   D(5,3,17,18)         -179.4032         estimate D2E/DX2                !
 ! D11   D(5,3,17,22)            0.4751         estimate D2E/DX2                !
 ! D12   D(3,5,14,15)         -178.5338         estimate D2E/DX2                !
 ! D13   D(3,5,14,20)            1.2345         estimate D2E/DX2                !
 ! D14   D(6,5,14,15)            0.965          estimate D2E/DX2                !
 ! D15   D(6,5,14,20)         -179.2667         estimate D2E/DX2                !
 ! D16   D(9,8,11,1)          -170.2622         estimate D2E/DX2                !
 ! D17   D(9,8,11,12)          -52.7266         estimate D2E/DX2                !
 ! D18   D(9,8,11,13)           64.3232         estimate D2E/DX2                !
 ! D19   D(10,8,11,1)          -47.2349         estimate D2E/DX2                !
 ! D20   D(10,8,11,12)          70.3007         estimate D2E/DX2                !
 ! D21   D(10,8,11,13)        -172.6495         estimate D2E/DX2                !
 ! D22   D(19,8,11,1)           68.5922         estimate D2E/DX2                !
 ! D23   D(19,8,11,12)        -173.8722         estimate D2E/DX2                !
 ! D24   D(19,8,11,13)         -56.8224         estimate D2E/DX2                !
 ! D25   D(9,8,19,15)          -43.8575         estimate D2E/DX2                !
 ! D26   D(10,8,19,15)        -162.2953         estimate D2E/DX2                !
 ! D27   D(11,8,19,15)          78.6882         estimate D2E/DX2                !
 ! D28   D(5,14,15,7)          -18.0701         estimate D2E/DX2                !
 ! D29   D(5,14,15,19)         160.466          estimate D2E/DX2                !
 ! D30   D(20,14,15,7)         162.1664         estimate D2E/DX2                !
 ! D31   D(20,14,15,19)        -19.2975         estimate D2E/DX2                !
 ! D32   D(5,14,20,21)         179.2736         estimate D2E/DX2                !
 ! D33   D(5,14,20,22)           0.2549         estimate D2E/DX2                !
 ! D34   D(15,14,20,21)         -0.9704         estimate D2E/DX2                !
 ! D35   D(15,14,20,22)       -179.9892         estimate D2E/DX2                !
 ! D36   D(7,15,19,8)            2.9394         estimate D2E/DX2                !
 ! D37   D(14,15,19,8)        -175.6081         estimate D2E/DX2                !
 ! D38   D(35,16,18,17)       -175.9366         estimate D2E/DX2                !
 ! D39   D(35,16,18,24)          3.5172         estimate D2E/DX2                !
 ! D40   D(18,16,35,30)         71.6859         estimate D2E/DX2                !
 ! D41   D(18,16,35,36)       -168.2335         estimate D2E/DX2                !
 ! D42   D(18,16,35,37)        -50.102          estimate D2E/DX2                !
 ! D43   D(3,17,18,16)         169.1716         estimate D2E/DX2                !
 ! D44   D(3,17,18,24)         -10.2788         estimate D2E/DX2                !
 ! D45   D(22,17,18,16)        -10.7045         estimate D2E/DX2                !
 ! D46   D(22,17,18,24)        169.8452         estimate D2E/DX2                !
 ! D47   D(3,17,22,20)           1.0149         estimate D2E/DX2                !
 ! D48   D(3,17,22,23)        -179.5395         estimate D2E/DX2                !
 ! D49   D(18,17,22,20)       -179.1126         estimate D2E/DX2                !
 ! D50   D(18,17,22,23)          0.3331         estimate D2E/DX2                !
 ! D51   D(14,20,22,17)         -1.3706         estimate D2E/DX2                !
 ! D52   D(14,20,22,23)        179.188          estimate D2E/DX2                !
 ! D53   D(21,20,22,17)        179.6111         estimate D2E/DX2                !
 ! D54   D(21,20,22,23)          0.1698         estimate D2E/DX2                !
 ! D55   D(26,25,27,28)          0.4179         estimate D2E/DX2                !
 ! D56   D(26,25,27,33)       -178.0035         estimate D2E/DX2                !
 ! D57   D(39,25,27,28)        179.3232         estimate D2E/DX2                !
 ! D58   D(39,25,27,33)          0.9018         estimate D2E/DX2                !
 ! D59   D(26,25,39,40)          2.8098         estimate D2E/DX2                !
 ! D60   D(26,25,39,44)        179.6625         estimate D2E/DX2                !
 ! D61   D(27,25,39,40)       -176.122          estimate D2E/DX2                !
 ! D62   D(27,25,39,44)          0.7306         estimate D2E/DX2                !
 ! D63   D(25,27,33,34)        175.5304         estimate D2E/DX2                !
 ! D64   D(25,27,33,42)         -1.6405         estimate D2E/DX2                !
 ! D65   D(28,27,33,34)         -2.9312         estimate D2E/DX2                !
 ! D66   D(28,27,33,42)        179.8979         estimate D2E/DX2                !
 ! D67   D(31,30,35,16)        -66.514          estimate D2E/DX2                !
 ! D68   D(31,30,35,36)        177.105          estimate D2E/DX2                !
 ! D69   D(31,30,35,37)         55.6908         estimate D2E/DX2                !
 ! D70   D(32,30,35,16)        172.8955         estimate D2E/DX2                !
 ! D71   D(32,30,35,36)         56.5145         estimate D2E/DX2                !
 ! D72   D(32,30,35,37)        -64.8997         estimate D2E/DX2                !
 ! D73   D(41,30,35,16)         53.2043         estimate D2E/DX2                !
 ! D74   D(41,30,35,36)        -63.1767         estimate D2E/DX2                !
 ! D75   D(41,30,35,37)        175.4091         estimate D2E/DX2                !
 ! D76   D(31,30,41,34)        -46.2749         estimate D2E/DX2                !
 ! D77   D(32,30,41,34)         73.022          estimate D2E/DX2                !
 ! D78   D(35,30,41,34)       -167.3982         estimate D2E/DX2                !
 ! D79   D(27,33,34,29)          4.9807         estimate D2E/DX2                !
 ! D80   D(27,33,34,41)       -173.1189         estimate D2E/DX2                !
 ! D81   D(42,33,34,29)       -177.8767         estimate D2E/DX2                !
 ! D82   D(42,33,34,41)          4.0238         estimate D2E/DX2                !
 ! D83   D(27,33,42,43)        179.6658         estimate D2E/DX2                !
 ! D84   D(27,33,42,44)          0.734          estimate D2E/DX2                !
 ! D85   D(34,33,42,43)          2.5931         estimate D2E/DX2                !
 ! D86   D(34,33,42,44)       -176.3387         estimate D2E/DX2                !
 ! D87   D(29,34,41,30)         -8.4518         estimate D2E/DX2                !
 ! D88   D(33,34,41,30)        169.6728         estimate D2E/DX2                !
 ! D89   D(57,38,40,39)       -170.9729         estimate D2E/DX2                !
 ! D90   D(57,38,40,46)          7.6914         estimate D2E/DX2                !
 ! D91   D(40,38,57,52)         81.1527         estimate D2E/DX2                !
 ! D92   D(40,38,57,58)        -40.66           estimate D2E/DX2                !
 ! D93   D(40,38,57,59)       -159.488          estimate D2E/DX2                !
 ! D94   D(25,39,40,38)       -174.4114         estimate D2E/DX2                !
 ! D95   D(25,39,40,46)          6.9374         estimate D2E/DX2                !
 ! D96   D(44,39,40,38)          8.761          estimate D2E/DX2                !
 ! D97   D(44,39,40,46)       -169.8902         estimate D2E/DX2                !
 ! D98   D(25,39,44,42)         -1.637          estimate D2E/DX2                !
 ! D99   D(25,39,44,45)        179.6353         estimate D2E/DX2                !
 ! D100  D(40,39,44,42)        175.1201         estimate D2E/DX2                !
 ! D101  D(40,39,44,45)         -3.6076         estimate D2E/DX2                !
 ! D102  D(33,42,44,39)          0.8987         estimate D2E/DX2                !
 ! D103  D(33,42,44,45)        179.6137         estimate D2E/DX2                !
 ! D104  D(43,42,44,39)       -178.0234         estimate D2E/DX2                !
 ! D105  D(43,42,44,45)          0.6916         estimate D2E/DX2                !
 ! D106  D(48,47,49,50)         -1.4306         estimate D2E/DX2                !
 ! D107  D(48,47,49,55)        177.4312         estimate D2E/DX2                !
 ! D108  D(61,47,49,50)        179.4322         estimate D2E/DX2                !
 ! D109  D(61,47,49,55)         -1.706          estimate D2E/DX2                !
 ! D110  D(48,47,61,62)         -1.7078         estimate D2E/DX2                !
 ! D111  D(48,47,61,66)       -179.0066         estimate D2E/DX2                !
 ! D112  D(49,47,61,62)        177.4487         estimate D2E/DX2                !
 ! D113  D(49,47,61,66)          0.1499         estimate D2E/DX2                !
 ! D114  D(47,49,55,56)       -177.821          estimate D2E/DX2                !
 ! D115  D(47,49,55,64)          1.7406         estimate D2E/DX2                !
 ! D116  D(50,49,55,56)          1.0694         estimate D2E/DX2                !
 ! D117  D(50,49,55,64)       -179.3691         estimate D2E/DX2                !
 ! D118  D(53,52,57,38)        176.265          estimate D2E/DX2                !
 ! D119  D(53,52,57,58)        -61.7094         estimate D2E/DX2                !
 ! D120  D(53,52,57,59)         60.1853         estimate D2E/DX2                !
 ! D121  D(54,52,57,38)        -62.8538         estimate D2E/DX2                !
 ! D122  D(54,52,57,58)         59.1719         estimate D2E/DX2                !
 ! D123  D(54,52,57,59)       -178.9335         estimate D2E/DX2                !
 ! D124  D(63,52,57,38)         56.5059         estimate D2E/DX2                !
 ! D125  D(63,52,57,58)        178.5316         estimate D2E/DX2                !
 ! D126  D(63,52,57,59)        -59.5738         estimate D2E/DX2                !
 ! D127  D(53,52,63,56)         47.2272         estimate D2E/DX2                !
 ! D128  D(54,52,63,56)        -71.9281         estimate D2E/DX2                !
 ! D129  D(57,52,63,56)        167.3429         estimate D2E/DX2                !
 ! D130  D(49,55,56,51)        -12.9238         estimate D2E/DX2                !
 ! D131  D(49,55,56,63)        166.2481         estimate D2E/DX2                !
 ! D132  D(64,55,56,51)        167.5202         estimate D2E/DX2                !
 ! D133  D(64,55,56,63)        -13.3079         estimate D2E/DX2                !
 ! D134  D(49,55,64,65)        179.9797         estimate D2E/DX2                !
 ! D135  D(49,55,64,66)         -0.2005         estimate D2E/DX2                !
 ! D136  D(56,55,64,65)         -0.4752         estimate D2E/DX2                !
 ! D137  D(56,55,64,66)        179.3446         estimate D2E/DX2                !
 ! D138  D(51,56,63,52)         -2.9767         estimate D2E/DX2                !
 ! D139  D(55,56,63,52)        177.8446         estimate D2E/DX2                !
 ! D140  D(69,60,62,61)        176.1551         estimate D2E/DX2                !
 ! D141  D(69,60,62,68)         -3.1947         estimate D2E/DX2                !
 ! D142  D(62,60,69,70)       -164.9584         estimate D2E/DX2                !
 ! D143  D(62,60,69,71)        -46.9436         estimate D2E/DX2                !
 ! D144  D(62,60,69,72)         75.4269         estimate D2E/DX2                !
 ! D145  D(47,61,62,60)        165.65           estimate D2E/DX2                !
 ! D146  D(47,61,62,68)        -15.0006         estimate D2E/DX2                !
 ! D147  D(66,61,62,60)        -17.0944         estimate D2E/DX2                !
 ! D148  D(66,61,62,68)        162.2549         estimate D2E/DX2                !
 ! D149  D(47,61,66,64)          1.3906         estimate D2E/DX2                !
 ! D150  D(47,61,66,67)        179.6969         estimate D2E/DX2                !
 ! D151  D(62,61,66,64)       -175.7948         estimate D2E/DX2                !
 ! D152  D(62,61,66,67)          2.5115         estimate D2E/DX2                !
 ! D153  D(55,64,66,61)         -1.358          estimate D2E/DX2                !
 ! D154  D(55,64,66,67)       -179.6525         estimate D2E/DX2                !
 ! D155  D(65,64,66,61)        178.46           estimate D2E/DX2                !
 ! D156  D(65,64,66,67)          0.1655         estimate D2E/DX2                !
 ! D157  D(60,69,72,73)        -66.1385         estimate D2E/DX2                !
 ! D158  D(60,69,72,74)        175.5211         estimate D2E/DX2                !
 ! D159  D(60,69,72,75)         57.9604         estimate D2E/DX2                !
 ! D160  D(70,69,72,73)        178.1028         estimate D2E/DX2                !
 ! D161  D(70,69,72,74)         59.7624         estimate D2E/DX2                !
 ! D162  D(70,69,72,75)        -57.7983         estimate D2E/DX2                !
 ! D163  D(71,69,72,73)         55.5471         estimate D2E/DX2                !
 ! D164  D(71,69,72,74)        -62.7933         estimate D2E/DX2                !
 ! D165  D(71,69,72,75)        179.6459         estimate D2E/DX2                !
 ! D166  D(69,72,75,76)        -60.4818         estimate D2E/DX2                !
 ! D167  D(73,72,75,76)         63.2656         estimate D2E/DX2                !
 ! D168  D(74,72,75,76)       -178.8922         estimate D2E/DX2                !
 --------------------------------------------------------------------------------
 Trust Radius=3.00D-01 FncErr=1.00D-07 GrdErr=1.00D-06 EigMax=2.50D+02 EigMin=1.00D-04
 Number of steps in this run=    384 maximum allowed number of steps=    456.
 GradGradGradGradGradGradGradGradGradGradGradGradGradGradGradGradGradGrad

 Symmetry turned off by external request.
 Stoichiometry    C32H30O14
 Framework group  C1[X(C32H30O14)]
 Deg. of freedom   222
 Full point group                 C1      NOp   1
                          Input orientation:                          
 ---------------------------------------------------------------------
 Center     Atomic      Atomic             Coordinates (Angstroms)
 Number     Number       Type             X           Y           Z
 ---------------------------------------------------------------------
      1          8           0        3.467313    6.416452   16.734653
      2          1           0        3.131733    6.389966   15.827656
      3          6           0        0.952861    1.973182   12.254242
      4          1           0        1.367236    1.221136   11.596583
      5          6           0        1.437226    2.151946   13.535994
      6          1           0        2.237133    1.536615   13.924945
      7          8           0        2.151238    2.475345   16.253667
      8          6           0        1.847429    4.779556   17.527516
      9          1           0        1.747221    3.894508   18.154638
     10          1           0        1.287518    5.613845   17.948076
     11          6           0        3.303346    5.162624   17.351433
     12          1           0        3.750535    5.241128   18.343696
     13          1           0        3.829627    4.370713   16.810453
     14          6           0        0.899267    3.147477   14.346875
     15          6           0        1.488376    3.311022   15.707055
     16          8           0       -1.727270    3.167424   10.142553
     17          6           0       -0.092629    2.767362   11.792525
     18          6           0       -0.583565    2.520397   10.405168
     19          8           0        1.223079    4.517010   16.250733
     20          6           0       -0.140710    3.947564   13.884823
     21          1           0       -0.563223    4.712580   14.523995
     22          6           0       -0.646738    3.746847   12.609810
     23          1           0       -1.463306    4.352277   12.242515
     24          8           0       -0.025402    1.812870    9.611058
     25          6           0       -5.877467   -1.340537   13.171609
     26          1           0       -6.145126   -2.311917   13.565149
     27          6           0       -5.305641   -1.204321   11.919467
     28          1           0       -5.114022   -2.063825   11.291251
     29          8           0       -4.033355   -0.781721    9.418403
     30          6           0       -2.921781    1.536143    8.783067
     31          1           0       -2.155289    0.764849    8.825011
     32          1           0       -3.475939    1.425252    7.848881
     33          6           0       -4.935866    0.056799   11.462247
     34          6           0       -4.230699    0.147746   10.150632
     35          6           0       -2.323325    2.921502    8.867722
     36          1           0       -3.094777    3.682761    8.773578
     37          1           0       -1.581323    3.043145    8.078108
     38          8           0       -6.907335    0.761845   15.934418
     39          6           0       -6.095925   -0.213044   13.957053
     40          6           0       -6.632253   -0.406304   15.334485
     41          8           0       -3.801211    1.391997    9.896642
     42          6           0       -5.167958    1.185749   12.240852
     43          1           0       -4.870639    2.158217   11.875447
     44          6           0       -5.757262    1.051340   13.485761
     45          1           0       -5.938365    1.918040   14.104892
     46          8           0       -6.779570   -1.474976   15.861854
     47          6           0       -1.696675    4.855568   18.637609
     48          1           0       -1.007953    5.339777   19.317211
     49          6           0       -2.426846    3.747822   19.027310
     50          1           0       -2.315298    3.318369   20.013880
     51          8           0       -3.908368    1.395940   19.626844
     52          6           0       -5.986420    0.624853   18.160261
     53          1           0       -6.234623    0.651615   19.221863
     54          1           0       -5.430907   -0.291537   17.955846
     55          6           0       -3.343577    3.180631   18.147595
     56          6           0       -4.145781    2.016187   18.627660
     57          6           0       -7.237125    0.709984   17.321029
     58          1           0       -7.880247   -0.145335   17.524867
     59          1           0       -7.769698    1.637104   17.522472
     60          8           0       -1.067972    6.846878   15.687301
     61          6           0       -1.856162    5.375719   17.356111
     62          6           0       -1.088877    6.605136   17.005584
     63          8           0       -5.179027    1.752452   17.818217
     64          6           0       -3.503995    3.698483   16.866705
     65          1           0       -4.219697    3.247356   16.194104
     66          6           0       -2.749099    4.788725   16.465485
     67          1           0       -2.869180    5.203390   15.474125
     68          8           0       -0.556083    7.311513   17.819034
     69          6           0       -0.421613    8.061110   15.264241
     70          1           0       -0.750388    8.196117   14.235768
     71          1           0       -0.768509    8.887079   15.885966
     72          6           0        1.085836    7.946541   15.333394
     73          1           0        1.411645    7.844977   16.370561
     74          1           0        1.517903    8.862060   14.927466
     75          8           0        1.571393    6.876943   14.542573
     76          1           0        1.181178    6.059957   14.881724
 ---------------------------------------------------------------------
 Rotational constants (GHZ):           0.0726163           0.0488456           0.0335862
 Standard basis: def2TZVP (5D, 7F)
  1606 basis functions,  2586 primitive gaussians,  1836 cartesian basis functions
   167 alpha electrons      167 beta electrons
       nuclear repulsion energy      5774.8286703936 Hartrees.
 NAtoms=   76 NActive=   76 NUniq=   76 SFac= 1.00D+00 NAtFMM=   60 NAOKFM=T Big=T
 Integral buffers will be    131072 words long.
 Raffenetti 2 integral format.
 Two-electron integral symmetry is turned off.
 One-electron integrals computed using PRISM.
   1 Symmetry operations used in ECPInt.
 ECPInt:  NShTT=  196251 NPrTT=  606652 LenC2=  135584 LenP2D=  270774.
 LDataN:  DoStor=T MaxTD1= 6 Len=  172
 NBasis=  1606 RedAO= T EigKep=  5.64D-06  NBF=  1606
 NBsUse=  1606 1.00D-06 EigRej= -1.00D+00 NBFU=  1606
 ExpMin= 9.52D-02 ExpMax= 2.70D+04 ExpMxC= 9.22D+02 IAcc=3 IRadAn=         5 AccDes= 0.00D+00
 Harris functional with IExCor= 1009 and IRadAn=       5 diagonalized for initial guess.
 HarFok:  IExCor= 1009 AccDes= 0.00D+00 IRadAn=         5 IDoV= 1 UseB2=F ITyADJ=14
 ICtDFT=  3500011 ScaDFX=  1.000000  1.000000  1.000000  1.000000
 FoFCou: FMM=F IPFlag=           0 FMFlag=      100000 FMFlg1=        2001
         NFxFlg=           0 DoJE=T BraDBF=F KetDBF=T FulRan=T
         wScrn=  0.000000 ICntrl=       500 IOpCl=  0 I1Cent=   200000004 NGrid=           0
         NMat0=    1 NMatS0=      1 NMatT0=    0 NMatD0=    1 NMtDS0=    0 NMtDT0=    0
 Symmetry not used in FoFCou.
 Requested convergence on RMS density matrix=1.00D-08 within  32 cycles.
 Requested convergence on MAX density matrix=1.00D-06.
 Requested convergence on             energy=1.00D-06.
 No special actions if energy rises.
 Integral accuracy reduced to 1.0D-05 until final iterations.
 Problem detected with inexpensive integrals.
 Switching to full accuracy and repeating last cycle.
 SCF Done:  E(RM062X) =  -2290.71273808     A.U. after   14 cycles
            NFock= 14  Conv=0.73D-08     -V/T= 2.0045
 QCSCF skips out because SCF is already converged.

 **********************************************************************

            Population analysis using the SCF Density.

 **********************************************************************

 Alpha  occ. eigenvalues --  -19.69654 -19.69631 -19.69204 -19.69106 -19.69000
 Alpha  occ. eigenvalues --  -19.68825 -19.63868 -19.63769 -19.63514 -19.63354
 Alpha  occ. eigenvalues --  -19.63303 -19.63250 -19.62988 -19.62056 -10.69622
 Alpha  occ. eigenvalues --  -10.69366 -10.69223 -10.69125 -10.69102 -10.68793
 Alpha  occ. eigenvalues --  -10.61937 -10.61745 -10.61525 -10.61266 -10.61112
 Alpha  occ. eigenvalues --  -10.60351 -10.59300 -10.58881 -10.58449 -10.58286
 Alpha  occ. eigenvalues --  -10.58231 -10.58112 -10.57908 -10.57869 -10.57562
 Alpha  occ. eigenvalues --  -10.57396 -10.57297 -10.57233 -10.57215 -10.57106
 Alpha  occ. eigenvalues --  -10.56990 -10.56900 -10.56890 -10.56807 -10.56733
 Alpha  occ. eigenvalues --  -10.56639  -1.26392  -1.26389  -1.26292  -1.25902
 Alpha  occ. eigenvalues --   -1.25496  -1.25377  -1.17180  -1.16787  -1.16741
 Alpha  occ. eigenvalues --   -1.16700  -1.16050  -1.15929  -1.15736  -1.14316
 Alpha  occ. eigenvalues --   -1.00204  -0.99965  -0.99761  -0.92664  -0.92108
 Alpha  occ. eigenvalues --   -0.91019  -0.89962  -0.88529  -0.87766  -0.87434
 Alpha  occ. eigenvalues --   -0.87238  -0.86926  -0.86376  -0.81512  -0.80121
 Alpha  occ. eigenvalues --   -0.78013  -0.77256  -0.75248  -0.73961  -0.72779
 Alpha  occ. eigenvalues --   -0.72300  -0.72040  -0.71751  -0.69915  -0.69000
 Alpha  occ. eigenvalues --   -0.66843  -0.66326  -0.65822  -0.65535  -0.65147
 Alpha  occ. eigenvalues --   -0.64765  -0.64450  -0.63066  -0.62550  -0.62209
 Alpha  occ. eigenvalues --   -0.61196  -0.61118  -0.60663  -0.60319  -0.59464
 Alpha  occ. eigenvalues --   -0.58881  -0.58786  -0.58206  -0.57857  -0.57433
 Alpha  occ. eigenvalues --   -0.57426  -0.56866  -0.56624  -0.56356  -0.54774
 Alpha  occ. eigenvalues --   -0.54612  -0.54425  -0.54266  -0.54037  -0.53939
 Alpha  occ. eigenvalues --   -0.53627  -0.53126  -0.52976  -0.52289  -0.52034
 Alpha  occ. eigenvalues --   -0.51739  -0.51598  -0.51549  -0.51261  -0.50525
 Alpha  occ. eigenvalues --   -0.50183  -0.49651  -0.49219  -0.48762  -0.48220
 Alpha  occ. eigenvalues --   -0.47745  -0.47472  -0.46549  -0.46183  -0.45940
 Alpha  occ. eigenvalues --   -0.45768  -0.45711  -0.45075  -0.44805  -0.44495
 Alpha  occ. eigenvalues --   -0.44112  -0.43895  -0.43234  -0.43076  -0.42632
 Alpha  occ. eigenvalues --   -0.42500  -0.41602  -0.41046  -0.40404  -0.40074
 Alpha  occ. eigenvalues --   -0.39847  -0.39656  -0.39200  -0.38385  -0.38064
 Alpha  occ. eigenvalues --   -0.37815  -0.37610  -0.37483  -0.37250  -0.36015
 Alpha  occ. eigenvalues --   -0.34977  -0.34152  -0.34048  -0.33880  -0.33720
 Alpha  occ. eigenvalues --   -0.33581  -0.33530
 Alpha virt. eigenvalues --   -0.05684  -0.05482  -0.05360  -0.00886  -0.00298
 Alpha virt. eigenvalues --   -0.00033   0.03353   0.03660   0.03813   0.04053
 Alpha virt. eigenvalues --    0.06131   0.06248   0.06794   0.07511   0.08181
 Alpha virt. eigenvalues --    0.08306   0.08809   0.09095   0.09259   0.09537
 Alpha virt. eigenvalues --    0.09646   0.09968   0.10060   0.10293   0.10757
 Alpha virt. eigenvalues --    0.10826   0.10912   0.11263   0.11287   0.11784
 Alpha virt. eigenvalues --    0.12027   0.12400   0.12743   0.12827   0.13304
 Alpha virt. eigenvalues --    0.13723   0.13903   0.13982   0.14084   0.14324
 Alpha virt. eigenvalues --    0.14477   0.14792   0.15135   0.15181   0.15592
 Alpha virt. eigenvalues --    0.15970   0.16282   0.16531   0.16726   0.17195
 Alpha virt. eigenvalues --    0.17313   0.17623   0.18133   0.18242   0.18764
 Alpha virt. eigenvalues --    0.19014   0.19210   0.19532   0.20127   0.20375
 Alpha virt. eigenvalues --    0.20884   0.21053   0.21105   0.21645   0.21720
 Alpha virt. eigenvalues --    0.21931   0.22298   0.22662   0.22993   0.23616
 Alpha virt. eigenvalues --    0.23736   0.23750   0.23982   0.24300   0.24409
 Alpha virt. eigenvalues --    0.24768   0.24791   0.25130   0.25392   0.25705
 Alpha virt. eigenvalues --    0.25892   0.26209   0.26328   0.26511   0.26819
 Alpha virt. eigenvalues --    0.26896   0.27068   0.27313   0.27566   0.27726
 Alpha virt. eigenvalues --    0.28058   0.28175   0.28400   0.28537   0.29125
 Alpha virt. eigenvalues --    0.29424   0.29456   0.29727   0.30036   0.30419
 Alpha virt. eigenvalues --    0.30651   0.30860   0.31117   0.31510   0.31733
 Alpha virt. eigenvalues --    0.32162   0.32249   0.32663   0.32910   0.33176
 Alpha virt. eigenvalues --    0.33519   0.33723   0.34356   0.34498   0.34993
 Alpha virt. eigenvalues --    0.35326   0.35356   0.35980   0.36032   0.36303
 Alpha virt. eigenvalues --    0.36454   0.36560   0.36798   0.36970   0.37046
 Alpha virt. eigenvalues --    0.37442   0.37630   0.37865   0.38028   0.38194
 Alpha virt. eigenvalues --    0.38606   0.38767   0.38931   0.39044   0.39247
 Alpha virt. eigenvalues --    0.39546   0.39629   0.39948   0.40026   0.40155
 Alpha virt. eigenvalues --    0.40375   0.40598   0.40872   0.41152   0.41230
 Alpha virt. eigenvalues --    0.41423   0.41661   0.41986   0.42078   0.42354
 Alpha virt. eigenvalues --    0.42605   0.42681   0.42887   0.43107   0.43305
 Alpha virt. eigenvalues --    0.43716   0.44142   0.44179   0.44415   0.44638
 Alpha virt. eigenvalues --    0.44900   0.45071   0.45141   0.45399   0.45584
 Alpha virt. eigenvalues --    0.45764   0.46096   0.46253   0.46517   0.46704
 Alpha virt. eigenvalues --    0.46841   0.47110   0.47664   0.47782   0.47854
 Alpha virt. eigenvalues --    0.48250   0.48320   0.48544   0.48887   0.49092
 Alpha virt. eigenvalues --    0.49190   0.49417   0.49800   0.50092   0.50138
 Alpha virt. eigenvalues --    0.50459   0.50819   0.50969   0.51155   0.51460
 Alpha virt. eigenvalues --    0.51840   0.51955   0.52227   0.52318   0.52817
 Alpha virt. eigenvalues --    0.52955   0.53110   0.53252   0.54020   0.54180
 Alpha virt. eigenvalues --    0.54296   0.54585   0.54956   0.55174   0.55647
 Alpha virt. eigenvalues --    0.55877   0.56093   0.56167   0.56593   0.56955
 Alpha virt. eigenvalues --    0.57216   0.57706   0.58111   0.58402   0.58498
 Alpha virt. eigenvalues --    0.58851   0.59317   0.59928   0.60214   0.60436
 Alpha virt. eigenvalues --    0.60836   0.61287   0.61426   0.61541   0.61895
 Alpha virt. eigenvalues --    0.62419   0.62599   0.63047   0.63387   0.63591
 Alpha virt. eigenvalues --    0.63848   0.64424   0.64599   0.64747   0.65379
 Alpha virt. eigenvalues --    0.65657   0.66289   0.66523   0.66943   0.67160
 Alpha virt. eigenvalues --    0.67521   0.67672   0.68004   0.68381   0.68685
 Alpha virt. eigenvalues --    0.68919   0.69361   0.69545   0.69982   0.70213
 Alpha virt. eigenvalues --    0.70495   0.70763   0.70847   0.70985   0.71394
 Alpha virt. eigenvalues --    0.71712   0.71950   0.72194   0.72876   0.73104
 Alpha virt. eigenvalues --    0.73279   0.73717   0.73983   0.74121   0.74398
 Alpha virt. eigenvalues --    0.74775   0.74820   0.75063   0.75409   0.75440
 Alpha virt. eigenvalues --    0.75739   0.76344   0.76460   0.76726   0.77177
 Alpha virt. eigenvalues --    0.77522   0.77595   0.77922   0.78666   0.78896
 Alpha virt. eigenvalues --    0.79129   0.79427   0.79741   0.80002   0.80277
 Alpha virt. eigenvalues --    0.80496   0.80567   0.80919   0.81164   0.81460
 Alpha virt. eigenvalues --    0.81830   0.82203   0.82589   0.83147   0.83206
 Alpha virt. eigenvalues --    0.83871   0.84034   0.84216   0.84747   0.84967
 Alpha virt. eigenvalues --    0.85283   0.85570   0.85763   0.86096   0.86539
 Alpha virt. eigenvalues --    0.86852   0.86962   0.87431   0.87601   0.87927
 Alpha virt. eigenvalues --    0.88182   0.88674   0.89079   0.89215   0.89470
 Alpha virt. eigenvalues --    0.89593   0.90248   0.90358   0.90738   0.90860
 Alpha virt. eigenvalues --    0.91326   0.91556   0.91840   0.92079   0.92328
 Alpha virt. eigenvalues --    0.92381   0.92490   0.92949   0.93270   0.93731
 Alpha virt. eigenvalues --    0.94099   0.94280   0.94733   0.95045   0.95568
 Alpha virt. eigenvalues --    0.96082   0.96326   0.96614   0.97027   0.97153
 Alpha virt. eigenvalues --    0.97842   0.98213   0.98747   0.99127   0.99779
 Alpha virt. eigenvalues --    0.99866   1.00018   1.00700   1.00851   1.01455
 Alpha virt. eigenvalues --    1.01920   1.02697   1.03337   1.03551   1.03847
 Alpha virt. eigenvalues --    1.04044   1.04595   1.04780   1.05060   1.05552
 Alpha virt. eigenvalues --    1.06299   1.06400   1.06526   1.07112   1.07537
 Alpha virt. eigenvalues --    1.07956   1.08316   1.08556   1.08996   1.09431
 Alpha virt. eigenvalues --    1.09878   1.10399   1.10654   1.10765   1.11889
 Alpha virt. eigenvalues --    1.12037   1.12909   1.13126   1.13652   1.13745
 Alpha virt. eigenvalues --    1.14205   1.14633   1.14971   1.16295   1.16461
 Alpha virt. eigenvalues --    1.17039   1.17443   1.17892   1.18037   1.18217
 Alpha virt. eigenvalues --    1.18715   1.19612   1.20090   1.20238   1.20834
 Alpha virt. eigenvalues --    1.21076   1.21553   1.22092   1.22662   1.23047
 Alpha virt. eigenvalues --    1.23340   1.24015   1.24525   1.24635   1.25503
 Alpha virt. eigenvalues --    1.25656   1.25987   1.26124   1.26326   1.26609
 Alpha virt. eigenvalues --    1.26846   1.27459   1.28063   1.28448   1.28848
 Alpha virt. eigenvalues --    1.29064   1.29299   1.30048   1.30284   1.30403
 Alpha virt. eigenvalues --    1.31140   1.31772   1.32029   1.32571   1.32875
 Alpha virt. eigenvalues --    1.33715   1.34077   1.34250   1.34671   1.35341
 Alpha virt. eigenvalues --    1.35844   1.35909   1.36293   1.36810   1.37228
 Alpha virt. eigenvalues --    1.37662   1.38516   1.39077   1.39311   1.39963
 Alpha virt. eigenvalues --    1.40156   1.40687   1.41298   1.41486   1.42086
 Alpha virt. eigenvalues --    1.43277   1.43565   1.43780   1.44505   1.44613
 Alpha virt. eigenvalues --    1.45218   1.45987   1.46024   1.46303   1.47769
 Alpha virt. eigenvalues --    1.48658   1.49568   1.50362   1.50873   1.51418
 Alpha virt. eigenvalues --    1.51491   1.51884   1.52282   1.52941   1.53259
 Alpha virt. eigenvalues --    1.53467   1.54067   1.54231   1.54392   1.54427
 Alpha virt. eigenvalues --    1.54743   1.54974   1.55106   1.55441   1.55827
 Alpha virt. eigenvalues --    1.55982   1.56462   1.56502   1.56934   1.57323
 Alpha virt. eigenvalues --    1.57387   1.57942   1.58043   1.58647   1.58751
 Alpha virt. eigenvalues --    1.58989   1.59164   1.59464   1.59792   1.60252
 Alpha virt. eigenvalues --    1.61141   1.61498   1.61567   1.61927   1.62337
 Alpha virt. eigenvalues --    1.62618   1.63038   1.63280   1.63511   1.63651
 Alpha virt. eigenvalues --    1.64054   1.64486   1.64862   1.65036   1.65309
 Alpha virt. eigenvalues --    1.65461   1.65795   1.66263   1.66928   1.67213
 Alpha virt. eigenvalues --    1.67855   1.68031   1.68158   1.69033   1.69250
 Alpha virt. eigenvalues --    1.69756   1.70044   1.70217   1.70744   1.71095
 Alpha virt. eigenvalues --    1.71625   1.71803   1.72591   1.73133   1.73204
 Alpha virt. eigenvalues --    1.73748   1.74440   1.74836   1.75064   1.75475
 Alpha virt. eigenvalues --    1.75884   1.75999   1.76534   1.77172   1.77679
 Alpha virt. eigenvalues --    1.77922   1.78865   1.78945   1.79192   1.79484
 Alpha virt. eigenvalues --    1.79999   1.80792   1.80967   1.81960   1.82190
 Alpha virt. eigenvalues --    1.82530   1.83495   1.83915   1.84208   1.84876
 Alpha virt. eigenvalues --    1.85236   1.85606   1.86084   1.86329   1.86551
 Alpha virt. eigenvalues --    1.86802   1.87009   1.87511   1.87670   1.87993
 Alpha virt. eigenvalues --    1.88335   1.88722   1.89035   1.89547   1.90243
 Alpha virt. eigenvalues --    1.90395   1.90550   1.91246   1.91644   1.92154
 Alpha virt. eigenvalues --    1.92416   1.92826   1.93409   1.93642   1.93979
 Alpha virt. eigenvalues --    1.95378   1.95779   1.96183   1.96355   1.96478
 Alpha virt. eigenvalues --    1.97016   1.97488   1.97898   1.98632   1.99266
 Alpha virt. eigenvalues --    1.99794   2.00108   2.00540   2.00631   2.01005
 Alpha virt. eigenvalues --    2.01080   2.01886   2.02209   2.02612   2.02922
 Alpha virt. eigenvalues --    2.03222   2.03913   2.04344   2.04452   2.04600
 Alpha virt. eigenvalues --    2.05185   2.05466   2.05639   2.05866   2.06115
 Alpha virt. eigenvalues --    2.06676   2.06832   2.07124   2.07727   2.08040
 Alpha virt. eigenvalues --    2.08900   2.09002   2.09471   2.09717   2.09975
 Alpha virt. eigenvalues --    2.10893   2.11212   2.11535   2.11928   2.12303
 Alpha virt. eigenvalues --    2.12617   2.13642   2.13897   2.14557   2.14988
 Alpha virt. eigenvalues --    2.15403   2.16313   2.16609   2.16998   2.17917
 Alpha virt. eigenvalues --    2.18191   2.18493   2.18945   2.19198   2.19248
 Alpha virt. eigenvalues --    2.19757   2.20307   2.20930   2.21458   2.21470
 Alpha virt. eigenvalues --    2.21976   2.22969   2.23967   2.24290   2.24775
 Alpha virt. eigenvalues --    2.25580   2.25850   2.26837   2.27487   2.28540
 Alpha virt. eigenvalues --    2.28885   2.29611   2.29985   2.30456   2.30795
 Alpha virt. eigenvalues --    2.30978   2.31441   2.31866   2.32471   2.32712
 Alpha virt. eigenvalues --    2.32993   2.33140   2.33550   2.33607   2.33742
 Alpha virt. eigenvalues --    2.34292   2.34746   2.35138   2.35730   2.35929
 Alpha virt. eigenvalues --    2.36201   2.36600   2.37615   2.37991   2.38221
 Alpha virt. eigenvalues --    2.38872   2.39274   2.40385   2.40844   2.40971
 Alpha virt. eigenvalues --    2.41297   2.41861   2.42287   2.42378   2.42636
 Alpha virt. eigenvalues --    2.42731   2.43485   2.43795   2.44406   2.44685
 Alpha virt. eigenvalues --    2.45374   2.45610   2.46437   2.46947   2.47389
 Alpha virt. eigenvalues --    2.47707   2.48073   2.48136   2.48862   2.49024
 Alpha virt. eigenvalues --    2.49375   2.50340   2.50793   2.51045   2.51136
 Alpha virt. eigenvalues --    2.51604   2.52296   2.52811   2.52905   2.53671
 Alpha virt. eigenvalues --    2.53970   2.54653   2.55083   2.55448   2.55840
 Alpha virt. eigenvalues --    2.55966   2.56557   2.56751   2.57015   2.57434
 Alpha virt. eigenvalues --    2.57807   2.58185   2.58601   2.59234   2.59365
 Alpha virt. eigenvalues --    2.59809   2.60466   2.60804   2.61429   2.61625
 Alpha virt. eigenvalues --    2.61715   2.62193   2.62353   2.63373   2.63558
 Alpha virt. eigenvalues --    2.63929   2.64733   2.65056   2.65499   2.65788
 Alpha virt. eigenvalues --    2.66273   2.66351   2.66583   2.66810   2.66905
 Alpha virt. eigenvalues --    2.67155   2.67476   2.67884   2.68230   2.68537
 Alpha virt. eigenvalues --    2.68968   2.69057   2.69893   2.69991   2.70372
 Alpha virt. eigenvalues --    2.70512   2.70728   2.71047   2.71233   2.71605
 Alpha virt. eigenvalues --    2.71999   2.72323   2.72899   2.73310   2.73396
 Alpha virt. eigenvalues --    2.73590   2.73922   2.74428   2.74813   2.75081
 Alpha virt. eigenvalues --    2.75631   2.75761   2.76083   2.76443   2.76872
 Alpha virt. eigenvalues --    2.77613   2.77626   2.78148   2.78436   2.78684
 Alpha virt. eigenvalues --    2.79516   2.80147   2.80363   2.80629   2.81571
 Alpha virt. eigenvalues --    2.82196   2.82900   2.83194   2.83433   2.83624
 Alpha virt. eigenvalues --    2.84123   2.84425   2.84643   2.84731   2.85151
 Alpha virt. eigenvalues --    2.85405   2.85522   2.85806   2.86160   2.86591
 Alpha virt. eigenvalues --    2.86736   2.87008   2.87322   2.87656   2.87935
 Alpha virt. eigenvalues --    2.88573   2.88781   2.89065   2.89529   2.89839
 Alpha virt. eigenvalues --    2.89959   2.90118   2.90646   2.91220   2.91486
 Alpha virt. eigenvalues --    2.91585   2.91975   2.92532   2.93123   2.93315
 Alpha virt. eigenvalues --    2.93411   2.94628   2.94976   2.95172   2.95742
 Alpha virt. eigenvalues --    2.96213   2.96747   2.97003   2.97358   2.97896
 Alpha virt. eigenvalues --    2.97980   2.98119   2.98631   2.98932   2.99753
 Alpha virt. eigenvalues --    3.00053   3.00405   3.00975   3.01126   3.01430
 Alpha virt. eigenvalues --    3.01673   3.02530   3.02741   3.03260   3.03541
 Alpha virt. eigenvalues --    3.03922   3.04101   3.04743   3.05357   3.05627
 Alpha virt. eigenvalues --    3.05716   3.06044   3.06425   3.06895   3.07203
 Alpha virt. eigenvalues --    3.07907   3.08281   3.08999   3.09449   3.09933
 Alpha virt. eigenvalues --    3.10047   3.10636   3.10836   3.11206   3.11398
 Alpha virt. eigenvalues --    3.11571   3.11887   3.12485   3.12787   3.12898
 Alpha virt. eigenvalues --    3.13440   3.13503   3.13673   3.13973   3.14336
 Alpha virt. eigenvalues --    3.14593   3.14746   3.15050   3.15187   3.15261
 Alpha virt. eigenvalues --    3.15772   3.16030   3.16255   3.16380   3.16983
 Alpha virt. eigenvalues --    3.17189   3.17533   3.17775   3.18301   3.18621
 Alpha virt. eigenvalues --    3.18944   3.19084   3.19527   3.19629   3.20295
 Alpha virt. eigenvalues --    3.20618   3.21032   3.21245   3.21850   3.22592
 Alpha virt. eigenvalues --    3.22633   3.23063   3.23266   3.23453   3.24036
 Alpha virt. eigenvalues --    3.24234   3.24488   3.24693   3.25057   3.25253
 Alpha virt. eigenvalues --    3.25654   3.25889   3.26037   3.26255   3.26407
 Alpha virt. eigenvalues --    3.26688   3.27202   3.27462   3.27670   3.28748
 Alpha virt. eigenvalues --    3.29048   3.29153   3.29330   3.29903   3.30167
 Alpha virt. eigenvalues --    3.30319   3.30996   3.31540   3.31719   3.32236
 Alpha virt. eigenvalues --    3.32724   3.32895   3.33257   3.33733   3.34016
 Alpha virt. eigenvalues --    3.34271   3.34456   3.34607   3.34865   3.34940
 Alpha virt. eigenvalues --    3.35596   3.35853   3.36111   3.36549   3.36742
 Alpha virt. eigenvalues --    3.36961   3.37219   3.37327   3.37908   3.37984
 Alpha virt. eigenvalues --    3.38075   3.38373   3.38792   3.38862   3.39180
 Alpha virt. eigenvalues --    3.39486   3.39597   3.39722   3.39757   3.39907
 Alpha virt. eigenvalues --    3.40521   3.40590   3.40999   3.41339   3.41635
 Alpha virt. eigenvalues --    3.41999   3.42120   3.42339   3.42610   3.42882
 Alpha virt. eigenvalues --    3.43199   3.43409   3.43741   3.44088   3.44303
 Alpha virt. eigenvalues --    3.44626   3.45359   3.45436   3.45755   3.46140
 Alpha virt. eigenvalues --    3.46325   3.46486   3.46896   3.47352   3.47466
 Alpha virt. eigenvalues --    3.47943   3.48321   3.49150   3.49304   3.49885
 Alpha virt. eigenvalues --    3.50006   3.50447   3.50975   3.51101   3.51191
 Alpha virt. eigenvalues --    3.51925   3.52395   3.52805   3.53138   3.53534
 Alpha virt. eigenvalues --    3.53747   3.54353   3.54592   3.54772   3.55163
 Alpha virt. eigenvalues --    3.55606   3.56214   3.56731   3.57211   3.57806
 Alpha virt. eigenvalues --    3.58108   3.58696   3.59225   3.59301   3.59446
 Alpha virt. eigenvalues --    3.60265   3.60577   3.60774   3.61421   3.61788
 Alpha virt. eigenvalues --    3.62468   3.62767   3.63024   3.63686   3.64041
 Alpha virt. eigenvalues --    3.64319   3.65901   3.66206   3.66404   3.67230
 Alpha virt. eigenvalues --    3.67554   3.67982   3.68454   3.69674   3.70482
 Alpha virt. eigenvalues --    3.70722   3.71839   3.72349   3.73415   3.74920
 Alpha virt. eigenvalues --    3.75775   3.76392   3.76519   3.78048   3.78604
 Alpha virt. eigenvalues --    3.78788   3.79749   3.80966   3.81759   3.82021
 Alpha virt. eigenvalues --    3.82836   3.83057   3.83558   3.83833   3.84192
 Alpha virt. eigenvalues --    3.84506   3.84774   3.86545   3.86986   3.87357
 Alpha virt. eigenvalues --    3.87697   3.88230   3.88439   3.89112   3.89525
 Alpha virt. eigenvalues --    3.90204   3.90950   3.91411   3.91946   3.93002
 Alpha virt. eigenvalues --    3.93835   3.94983   3.95045   3.95232   3.95613
 Alpha virt. eigenvalues --    3.96467   3.96738   3.97966   3.99298   3.99560
 Alpha virt. eigenvalues --    4.00334   4.01100   4.01122   4.01694   4.02054
 Alpha virt. eigenvalues --    4.03003   4.04254   4.05245   4.05448   4.05782
 Alpha virt. eigenvalues --    4.06497   4.07142   4.07493   4.08803   4.10367
 Alpha virt. eigenvalues --    4.10558   4.11363   4.11682   4.11862   4.13771
 Alpha virt. eigenvalues --    4.14116   4.14409   4.15035   4.15551   4.15897
 Alpha virt. eigenvalues --    4.16212   4.16646   4.18449   4.19162   4.19359
 Alpha virt. eigenvalues --    4.19788   4.19866   4.20295   4.20658   4.20803
 Alpha virt. eigenvalues --    4.21157   4.21715   4.22201   4.22657   4.24614
 Alpha virt. eigenvalues --    4.25092   4.25421   4.26083   4.26830   4.27336
 Alpha virt. eigenvalues --    4.28457   4.29062   4.29146   4.29674   4.30690
 Alpha virt. eigenvalues --    4.32047   4.32432   4.33162   4.33371   4.33547
 Alpha virt. eigenvalues --    4.34370   4.34669   4.34821   4.35265   4.38734
 Alpha virt. eigenvalues --    4.39785   4.40415   4.41180   4.43982   4.44932
 Alpha virt. eigenvalues --    4.45684   4.46300   4.46908   4.48162   4.48291
 Alpha virt. eigenvalues --    4.48550   4.49347   4.49773   4.50065   4.51473
 Alpha virt. eigenvalues --    4.51898   4.52872   4.53431   4.53989   4.54827
 Alpha virt. eigenvalues --    4.55112   4.56658   4.58301   4.58690   4.59560
 Alpha virt. eigenvalues --    4.61218   4.61520   4.61652   4.63168   4.63426
 Alpha virt. eigenvalues --    4.63614   4.64355   4.65970   4.66378   4.67231
 Alpha virt. eigenvalues --    4.67754   4.69279   4.70193   4.71118   4.73197
 Alpha virt. eigenvalues --    4.74941   4.75922   4.77957   4.78647   4.79572
 Alpha virt. eigenvalues --    4.80000   4.81420   4.82249   4.84232   4.87568
 Alpha virt. eigenvalues --    4.88176   4.88759   4.89145   4.89415   4.89685
 Alpha virt. eigenvalues --    4.90393   4.90715   4.91126   4.91315   4.91878
 Alpha virt. eigenvalues --    4.92621   5.01362   5.02006   5.02846   5.03432
 Alpha virt. eigenvalues --    5.03945   5.04587   5.13169   5.13971   5.14410
 Alpha virt. eigenvalues --    5.17568   5.17628   5.17716   5.17964   5.18183
 Alpha virt. eigenvalues --    5.18691   5.20940   5.21282   5.21770   5.24059
 Alpha virt. eigenvalues --    5.24399   5.24508   5.26387   5.26549   5.26872
 Alpha virt. eigenvalues --    5.27367   5.27425   5.27868   5.28072   5.29192
 Alpha virt. eigenvalues --    5.31059   5.31279   5.32073   5.32255   5.32362
 Alpha virt. eigenvalues --    5.32668   5.35844   5.36176   5.37605   5.37900
 Alpha virt. eigenvalues --    5.38344   5.45524   5.45569   5.45904   5.46243
 Alpha virt. eigenvalues --    5.46512   5.46820   5.47606   5.48477   5.48935
 Alpha virt. eigenvalues --    5.49322   5.50114   5.50315   5.50672   5.51052
 Alpha virt. eigenvalues --    5.51148   5.51280   5.52642   5.59379   5.59760
 Alpha virt. eigenvalues --    5.60049   5.65425   5.65545   5.65845   5.68072
 Alpha virt. eigenvalues --    5.68637   5.68944   5.69278   5.69973   5.70046
 Alpha virt. eigenvalues --    5.70487   5.70816   5.72636   5.75178   5.75837
 Alpha virt. eigenvalues --    5.78278   5.80123   5.84665   5.85970   5.87118
 Alpha virt. eigenvalues --    5.88003   5.89600   5.89907   5.90893   5.91777
 Alpha virt. eigenvalues --    5.97345   5.97371   5.97614   5.98337   5.98837
 Alpha virt. eigenvalues --    5.99094   6.08538   6.09898   6.10520   6.11630
 Alpha virt. eigenvalues --    6.14009   6.15314   6.17289   6.18152   6.18279
 Alpha virt. eigenvalues --    6.18786   6.19139   6.19567   6.21031   6.21644
 Alpha virt. eigenvalues --    6.22774   6.24974   6.29336   6.29427   6.31144
 Alpha virt. eigenvalues --    6.31307   6.35136   6.35598   6.36612   6.37099
 Alpha virt. eigenvalues --    6.37600   6.37630   6.40120   6.40728   6.40987
 Alpha virt. eigenvalues --    6.42132   6.42699   6.43121   6.44832   6.48754
 Alpha virt. eigenvalues --    6.52779   6.53679   6.53975   6.56409   6.57141
 Alpha virt. eigenvalues --    6.57304   6.62999   6.64559   6.65105   6.65903
 Alpha virt. eigenvalues --    6.66183   6.66200   6.69178   6.70591   6.70991
 Alpha virt. eigenvalues --    6.71733   6.72350   6.73443   6.74527   6.75402
 Alpha virt. eigenvalues --    6.76052   6.77079   6.77957   6.78371   6.78719
 Alpha virt. eigenvalues --    6.79484   6.80499   6.81729   6.87485   6.88269
 Alpha virt. eigenvalues --    6.88927   6.89566   6.89975   6.90219   6.91332
 Alpha virt. eigenvalues --    6.91578   6.92218   6.94026   6.94159   6.94840
 Alpha virt. eigenvalues --    6.98306   7.00019   7.04269   7.04780   7.05263
 Alpha virt. eigenvalues --    7.06758   7.07172   7.07832   7.11663   7.12789
 Alpha virt. eigenvalues --    7.12986   7.14875   7.15183   7.15930   7.17512
 Alpha virt. eigenvalues --    7.19621   7.29297   7.30071   7.30740   7.32116
 Alpha virt. eigenvalues --    7.34723   7.35691   7.40527   7.41110   7.41383
 Alpha virt. eigenvalues --    7.43029   7.43895   7.44376  22.31325  22.31789
 Alpha virt. eigenvalues --   22.35658  22.56278  22.57748  22.59669  22.60554
 Alpha virt. eigenvalues --   22.61216  22.62395  22.63094  22.67461  22.80585
 Alpha virt. eigenvalues --   22.81054  22.81213  22.82722  22.83383  22.83786
 Alpha virt. eigenvalues --   22.87463  22.88179  22.89509  22.99904  23.00873
 Alpha virt. eigenvalues --   23.01292  23.37787  23.38932  23.39291  23.51098
 Alpha virt. eigenvalues --   23.52067  23.53256  23.63580  23.65135  23.66137
 Alpha virt. eigenvalues --   43.99347  44.05998  44.06807  44.08503  44.10319
 Alpha virt. eigenvalues --   44.12934  44.15643  44.17712  44.38240  44.39218
 Alpha virt. eigenvalues --   44.40759  44.44188  44.46783  44.48184
          Condensed to atoms (all electrons):
 Mulliken charges:
               1
     1  O   -0.470124
     2  H    0.342789
     3  C   -0.157719
     4  H    0.182896
     5  C   -0.159139
     6  H    0.180101
     7  O   -0.321600
     8  C   -0.201369
     9  H    0.179756
    10  H    0.179019
    11  C   -0.097579
    12  H    0.134276
    13  H    0.167659
    14  C    0.107555
    15  C    0.343221
    16  O   -0.268065
    17  C    0.049151
    18  C    0.353661
    19  O   -0.325970
    20  C   -0.125977
    21  H    0.106978
    22  C   -0.202770
    23  H    0.165591
    24  O   -0.340366
    25  C   -0.160430
    26  H    0.180894
    27  C   -0.158964
    28  H    0.181951
    29  O   -0.328414
    30  C   -0.185854
    31  H    0.208649
    32  H    0.157558
    33  C    0.045797
    34  C    0.343369
    35  C   -0.132390
    36  H    0.155046
    37  H    0.174053
    38  O   -0.272305
    39  C    0.035202
    40  C    0.352789
    41  O   -0.272146
    42  C   -0.170441
    43  H    0.169263
    44  C   -0.164345
    45  H    0.173946
    46  O   -0.336230
    47  C   -0.154416
    48  H    0.200225
    49  C   -0.161018
    50  H    0.182175
    51  O   -0.330219
    52  C   -0.170780
    53  H    0.165777
    54  H    0.191696
    55  C    0.043352
    56  C    0.322118
    57  C   -0.132708
    58  H    0.176761
    59  H    0.155259
    60  O   -0.286272
    61  C    0.086189
    62  C    0.262807
    63  O   -0.263945
    64  C   -0.136821
    65  H    0.178260
    66  C   -0.212088
    67  H    0.188845
    68  O   -0.317874
    69  C   -0.125635
    70  H    0.153944
    71  H    0.161930
    72  C   -0.164904
    73  H    0.210700
    74  H    0.146465
    75  O   -0.476118
    76  H    0.287324
 Sum of Mulliken charges =  -0.00000
 Mulliken charges with hydrogens summed into heavy atoms:
               1
     1  O   -0.127335
     3  C    0.025177
     5  C    0.020961
     7  O   -0.321600
     8  C    0.157406
    11  C    0.204357
    14  C    0.107555
    15  C    0.343221
    16  O   -0.268065
    17  C    0.049151
    18  C    0.353661
    19  O   -0.325970
    20  C   -0.019000
    22  C   -0.037180
    24  O   -0.340366
    25  C    0.020463
    27  C    0.022987
    29  O   -0.328414
    30  C    0.180352
    33  C    0.045797
    34  C    0.343369
    35  C    0.196709
    38  O   -0.272305
    39  C    0.035202
    40  C    0.352789
    41  O   -0.272146
    42  C   -0.001179
    44  C    0.009601
    46  O   -0.336230
    47  C    0.045810
    49  C    0.021157
    51  O   -0.330219
    52  C    0.186692
    55  C    0.043352
    56  C    0.322118
    57  C    0.199312
    60  O   -0.286272
    61  C    0.086189
    62  C    0.262807
    63  O   -0.263945
    64  C    0.041439
    66  C   -0.023243
    68  O   -0.317874
    69  C    0.190239
    72  C    0.192262
    75  O   -0.188795
 Electronic spatial extent (au):  <R**2>=         302353.8981
 Charge=             -0.0000 electrons
 Dipole moment (field-independent basis, Debye):
    X=             -4.4335    Y=              3.7310    Z=             -1.3518  Tot=              5.9501
 Quadrupole moment (field-independent basis, Debye-Ang):
   XX=           -254.9282   YY=           -258.8157   ZZ=           -307.4658
   XY=            -34.6376   XZ=            -64.7801   YZ=             36.1194
 Traceless Quadrupole moment (field-independent basis, Debye-Ang):
   XX=             18.8083   YY=             14.9209   ZZ=            -33.7292
   XY=            -34.6376   XZ=            -64.7801   YZ=             36.1194
 Octapole moment (field-independent basis, Debye-Ang**2):
  XXX=           1533.1296  YYY=          -2258.2738  ZZZ=         -12696.4843  XYY=            424.8436
  XXY=           -722.5343  XXZ=          -3673.4139  XZZ=           -423.5267  YZZ=           -433.0526
  YYZ=          -3914.7769  XYZ=           -474.5855
 Hexadecapole moment (field-independent basis, Debye-Ang**3):
 XXXX=         -20948.8418 YYYY=         -23341.1121 ZZZZ=        -380040.7029 XXXY=           -223.4207
 XXXZ=          21253.1350 YYYX=           -353.5944 YYYZ=         -36244.9966 ZZZX=           9176.0820
 ZZZY=         -33398.4037 XXYY=          -8030.0827 XXZZ=         -58831.5150 YYZZ=         -65880.2885
 XXYZ=         -11381.1793 YYXZ=           6192.0073 ZZXY=          -6656.0933
 N-N= 5.774828670394D+03 E-N=-1.690449748758D+04  KE= 2.280541711805D+03
   1 Symmetry operations used in ECPInt.
 ECPInt:  NShTT=  196251 NPrTT=  606652 LenC2=  135584 LenP2D=  270774.
 LDataN:  DoStor=T MaxTD1= 7 Len=  274
 Calling FoFJK, ICntrl=      2127 FMM=T ISym2X=0 I1Cent= 0 IOpClX= 0 NMat=1 NMatS=1 NMatT=0.
 -------------------------------------------------------------------
 Center     Atomic                   Forces (Hartrees/Bohr)
 Number     Number              X              Y              Z
 -------------------------------------------------------------------
      1        8          -0.000001466    0.000000638   -0.000000179
      2        1           0.000000613    0.000000389   -0.000001280
      3        6          -0.000000394   -0.000000237   -0.000000689
      4        1          -0.000000248    0.000000480   -0.000000254
      5        6           0.000000385    0.000000145    0.000000020
      6        1          -0.000000205    0.000000567   -0.000000470
      7        8           0.000000130    0.000001244   -0.000001631
      8        6           0.000000094   -0.000000098   -0.000001684
      9        1          -0.000000182    0.000001105   -0.000000107
     10        1          -0.000000054    0.000000698    0.000000169
     11        6          -0.000000092    0.000001544   -0.000001481
     12        1           0.000000797    0.000000534   -0.000000978
     13        1           0.000000114    0.000000527   -0.000000531
     14        6           0.000000215    0.000000055   -0.000000476
[...]
   D11        0.00829  -0.00002   0.00000  -0.00083  -0.00083   0.00746
   D12       -3.11600   0.00004   0.00000   0.00177   0.00178  -3.11423
   D13        0.02155   0.00002   0.00000   0.00091   0.00091   0.02245
   D14        0.01684   0.00002   0.00000   0.00088   0.00088   0.01773
   D15       -3.12879   0.00000   0.00000   0.00001   0.00001  -3.12878
   D16       -2.97164   0.00000   0.00000   0.00007   0.00007  -2.97156
   D17       -0.92025   0.00000   0.00000   0.00002   0.00002  -0.92023
   D18        1.12265  -0.00001   0.00000  -0.00031  -0.00031   1.12235
   D19       -0.82441  -0.00000   0.00000  -0.00010  -0.00010  -0.82450
   D20        1.22698  -0.00000   0.00000  -0.00015  -0.00015   1.22683
   D21       -3.01330  -0.00001   0.00000  -0.00048  -0.00048  -3.01378
   D22        1.19716  -0.00000   0.00000  -0.00014  -0.00014   1.19702
   D23       -3.03464  -0.00000   0.00000  -0.00019  -0.00019  -3.03483
   D24       -0.99174  -0.00001   0.00000  -0.00052  -0.00051  -0.99225
   D25       -0.76546  -0.00001   0.00000  -0.00023  -0.00023  -0.76569
   D26       -2.83259  -0.00001   0.00000  -0.00033  -0.00033  -2.83292
   D27        1.37337  -0.00001   0.00000  -0.00035  -0.00035   1.37301
   D28       -0.31538  -0.00001   0.00000  -0.00056  -0.00056  -0.31594
   D29        2.80066  -0.00005   0.00000  -0.00216  -0.00216   2.79850
   D30        2.83034   0.00001   0.00000   0.00031   0.00031   2.83065
   D31       -0.33680  -0.00003   0.00000  -0.00129  -0.00129  -0.33809
   D32        3.12892  -0.00000   0.00000  -0.00018  -0.00018   3.12874
   D33        0.00445  -0.00002   0.00000  -0.00079  -0.00079   0.00365
   D34       -0.01694  -0.00002   0.00000  -0.00107  -0.00107  -0.01801
   D35       -3.14140  -0.00004   0.00000  -0.00169  -0.00169   3.14009
   D36        0.05130  -0.00001   0.00000  -0.00029  -0.00029   0.05102
   D37       -3.06494   0.00003   0.00000   0.00127   0.00127  -3.06367
   D38       -3.07067  -0.00030   0.00000  -0.01299  -0.01298  -3.08365
   D39        0.06139  -0.00015   0.00000  -0.00636  -0.00637   0.05502
   D40        1.25115   0.00007   0.00000   0.00305   0.00308   1.25424
   D41       -2.93623   0.00005   0.00000   0.00230   0.00224  -2.93399
   D42       -0.87444  -0.00009   0.00000  -0.00403  -0.00400  -0.87845
   D43        2.95260   0.00009   0.00000   0.00409   0.00409   2.95669
   D44       -0.17940  -0.00006   0.00000  -0.00256  -0.00256  -0.18196
   D45       -0.18683   0.00006   0.00000   0.00245   0.00246  -0.18437
   D46        2.96436  -0.00010   0.00000  -0.00419  -0.00419   2.96016
   D47        0.01771   0.00002   0.00000   0.00097   0.00097   0.01869
   D48       -3.13355  -0.00000   0.00000  -0.00005  -0.00005  -3.13361
   D49       -3.12610   0.00006   0.00000   0.00266   0.00266  -3.12345
   D50        0.00581   0.00004   0.00000   0.00164   0.00163   0.00744
   D51       -0.02392  -0.00000   0.00000  -0.00013  -0.00013  -0.02405
   D52        3.12742   0.00002   0.00000   0.00091   0.00090   3.12833
   D53        3.13481  -0.00002   0.00000  -0.00080  -0.00079   3.13401
   D54        0.00296   0.00001   0.00000   0.00024   0.00024   0.00320
   D55        0.00729   0.00002   0.00000   0.00068   0.00068   0.00797
   D56       -3.10675  -0.00010   0.00000  -0.00446  -0.00446  -3.11121
   D57        3.12978  -0.00002   0.00000  -0.00084  -0.00084   3.12894
   D58        0.01574  -0.00014   0.00000  -0.00598  -0.00598   0.00976
   D59        0.04904  -0.00010   0.00000  -0.00417  -0.00417   0.04487
   D60        3.13570   0.00000   0.00000   0.00004   0.00003   3.13574
   D61       -3.07391  -0.00006   0.00000  -0.00269  -0.00270  -3.07660
   D62        0.01275   0.00003   0.00000   0.00151   0.00151   0.01426
   D63        3.06358   0.00014   0.00000   0.00618   0.00618   3.06976
   D64       -0.02863   0.00010   0.00000   0.00436   0.00436  -0.02427
   D65       -0.05116   0.00003   0.00000   0.00117   0.00117  -0.04999
   D66        3.13981  -0.00001   0.00000  -0.00065  -0.00065   3.13916
   D67       -1.16089  -0.00015   0.00000  -0.00669  -0.00673  -1.16762
   D68        3.09107  -0.00011   0.00000  -0.00493  -0.00494   3.08613
   D69        0.97199  -0.00001   0.00000  -0.00024  -0.00027   0.97172
   D70        3.01760  -0.00011   0.00000  -0.00477  -0.00478   3.01281
   D71        0.98636  -0.00007   0.00000  -0.00300  -0.00299   0.98337
   D72       -1.13271   0.00004   0.00000   0.00168   0.00168  -1.13103
   D73        0.92859  -0.00009   0.00000  -0.00371  -0.00370   0.92489
   D74       -1.10264  -0.00004   0.00000  -0.00195  -0.00191  -1.10455
   D75        3.06147   0.00006   0.00000   0.00274   0.00276   3.06423
   D76       -0.80765  -0.00027   0.00000  -0.01180  -0.01182  -0.81947
   D77        1.27447  -0.00032   0.00000  -0.01416  -0.01416   1.26031
   D78       -2.92165  -0.00055   0.00000  -0.02392  -0.02390  -2.94555
   D79        0.08693  -0.00019   0.00000  -0.00815  -0.00815   0.07878
   D80       -3.02149  -0.00047   0.00000  -0.02037  -0.02037  -3.04187
   D81       -3.10453  -0.00015   0.00000  -0.00653  -0.00654  -3.11107
   D82        0.07023  -0.00043   0.00000  -0.01876  -0.01876   0.05147
   D83        3.13576   0.00001   0.00000   0.00035   0.00035   3.13611
   D84        0.01281   0.00004   0.00000   0.00176   0.00176   0.01457
   D85        0.04526  -0.00003   0.00000  -0.00120  -0.00121   0.04405
   D86       -3.07769   0.00000   0.00000   0.00021   0.00020  -3.07749
   D87       -0.14751  -0.00033   0.00000  -0.01440  -0.01440  -0.16192
   D88        2.96135  -0.00005   0.00000  -0.00236  -0.00236   2.95899
   D89       -2.98404  -0.00062   0.00000  -0.02720  -0.02720  -3.01124
   D90        0.13424  -0.00067   0.00000  -0.02932  -0.02932   0.10492
   D91        1.41638  -0.00065   0.00000  -0.02831  -0.02822   1.38816
   D92       -0.70965  -0.00046   0.00000  -0.01992  -0.01991  -0.72956
   D93       -2.78359  -0.00029   0.00000  -0.01285  -0.01295  -2.79654
   D94       -3.04405  -0.00032   0.00000  -0.01399  -0.01399  -3.05805
   D95        0.12108  -0.00027   0.00000  -0.01184  -0.01184   0.10924
   D96        0.15291  -0.00042   0.00000  -0.01823  -0.01823   0.13468
   D97       -2.96514  -0.00037   0.00000  -0.01607  -0.01607  -2.98122
   D98       -0.02857   0.00011   0.00000   0.00461   0.00461  -0.02396
   D99        3.13523  -0.00003   0.00000  -0.00130  -0.00130   3.13392
   D100       3.05642   0.00021   0.00000   0.00901   0.00901   3.06543
   D101      -0.06296   0.00007   0.00000   0.00309   0.00309  -0.05988
   D102       0.01569  -0.00014   0.00000  -0.00624  -0.00624   0.00945
   D103       3.13485  -0.00001   0.00000  -0.00025  -0.00025   3.13460
   D104      -3.10709  -0.00011   0.00000  -0.00483  -0.00483  -3.11192
   D105       0.01207   0.00003   0.00000   0.00116   0.00116   0.01323
   D106      -0.02497  -0.00000   0.00000  -0.00004  -0.00003  -0.02500
   D107       3.09676   0.00007   0.00000   0.00289   0.00289   3.09965
   D108       3.13168  -0.00011   0.00000  -0.00462  -0.00461   3.12707
   D109      -0.02978  -0.00004   0.00000  -0.00170  -0.00169  -0.03146
   D110      -0.02981   0.00005   0.00000   0.00240   0.00239  -0.02741
   D111      -3.12425  -0.00002   0.00000  -0.00070  -0.00069  -3.12494
   D112       3.09706   0.00016   0.00000   0.00688   0.00687   3.10393
   D113       0.00262   0.00009   0.00000   0.00379   0.00379   0.00640
   D114      -3.10356  -0.00019   0.00000  -0.00813  -0.00808  -3.11165
   D115       0.03038  -0.00005   0.00000  -0.00213  -0.00214   0.02824
   D116       0.01866  -0.00012   0.00000  -0.00527  -0.00523   0.01344
   D117      -3.13058   0.00002   0.00000   0.00074   0.00072  -3.12986
   D118       3.07640   0.00009   0.00000   0.00388   0.00394   3.08035
   D119      -1.07703   0.00009   0.00000   0.00394   0.00387  -1.07316
   D120       1.05043  -0.00002   0.00000  -0.00071  -0.00079   1.04964
   D121      -1.09701  -0.00011   0.00000  -0.00490  -0.00480  -1.10181
   D122       1.03274  -0.00011   0.00000  -0.00484  -0.00487   1.02787
   D123      -3.12298  -0.00022   0.00000  -0.00949  -0.00954  -3.13252
   D124       0.98621  -0.00011   0.00000  -0.00479  -0.00467   0.98154
   D125       3.11596  -0.00011   0.00000  -0.00473  -0.00474   3.11122
   D126      -1.03976  -0.00022   0.00000  -0.00937  -0.00941  -1.04917
   D127       0.82427  -0.00024   0.00000  -0.01033  -0.01025   0.81402
   D128      -1.25538   0.00007   0.00000   0.00318   0.00300  -1.25239
   D129       2.92068  -0.00008   0.00000  -0.00357  -0.00346   2.91722
   D130      -0.22556  -0.00010   0.00000  -0.00446  -0.00446  -0.23002
   D131       2.90158   0.00011   0.00000   0.00461   0.00461   2.90619
   D132       2.92378  -0.00024   0.00000  -0.01046  -0.01046   2.91332
   D133      -0.23227  -0.00003   0.00000  -0.00139  -0.00139  -0.23366
   D134       3.14124  -0.00002   0.00000  -0.00071  -0.00072   3.14052
   D135      -0.00350   0.00009   0.00000   0.00387   0.00386   0.00037
   D136      -0.00829   0.00012   0.00000   0.00538   0.00541  -0.00288
   D137       3.13015   0.00023   0.00000   0.00995   0.01000   3.14015
   D138      -0.05195  -0.00032   0.00000  -0.01414  -0.01414  -0.06609
   D139       3.10397  -0.00053   0.00000  -0.02312  -0.02312   3.08085
   D140       3.07449   0.00016   0.00000   0.00718   0.00718   3.08166
   D141      -0.05576  -0.00005   0.00000  -0.00198  -0.00198  -0.05774
   D142      -2.87907  -0.00005   0.00000  -0.00234  -0.00234  -2.88141
   D143      -0.81932  -0.00006   0.00000  -0.00259  -0.00259  -0.82191
   D144       1.31645  -0.00009   0.00000  -0.00385  -0.00385   1.31260
   D145       2.89114  -0.00027   0.00000  -0.01172  -0.01172   2.87942
   D146      -0.26181  -0.00006   0.00000  -0.00255  -0.00255  -0.26436
   D147      -0.29835  -0.00020   0.00000  -0.00873  -0.00873  -0.30708
   D148       2.83188   0.00001   0.00000   0.00044   0.00044   2.83233
   D149       0.02427  -0.00005   0.00000  -0.00209  -0.00209   0.02218
   D150       3.13630  -0.00001   0.00000  -0.00023  -0.00022   3.13608
   D151      -3.06820  -0.00011   0.00000  -0.00500  -0.00501  -3.07321
   D152       0.04383  -0.00007   0.00000  -0.00314  -0.00314   0.04069
   D153      -0.02370  -0.00004   0.00000  -0.00169  -0.00168  -0.02538
   D154      -3.13553  -0.00008   0.00000  -0.00357  -0.00357  -3.13910
   D155       3.11472   0.00007   0.00000   0.00294   0.00295   3.11767
   D156       0.00289   0.00002   0.00000   0.00105   0.00106   0.00395
   D157      -1.15433  -0.00004   0.00000  -0.00171  -0.00171  -1.15604
   D158       3.06342  -0.00000   0.00000  -0.00004  -0.00004   3.06338
   D159       1.01160  -0.00002   0.00000  -0.00087  -0.00087   1.01073
   D160       3.10848  -0.00003   0.00000  -0.00147  -0.00148   3.10700
   D161       1.04305   0.00000   0.00000   0.00019   0.00019   1.04324
   D162      -1.00877  -0.00001   0.00000  -0.00064  -0.00063  -1.00941
   D163       0.96948  -0.00003   0.00000  -0.00131  -0.00131   0.96817
   D164      -1.09595   0.00001   0.00000   0.00035   0.00035  -1.09560
   D165       3.13541  -0.00001   0.00000  -0.00047  -0.00047   3.13494
   D166      -1.05561  -0.00006   0.00000  -0.00278  -0.00277  -1.05838
   D167       1.10419  -0.00001   0.00000  -0.00030  -0.00030   1.10389
   D168      -3.12226  -0.00006   0.00000  -0.00250  -0.00250  -3.12475
         Item               Value     Threshold  Converged?
 Maximum Force            0.001147     0.000450     NO 
 RMS     Force            0.000172     0.000300     YES
 Maximum Displacement     2.850412     0.001800     NO 
 RMS     Displacement     0.806437     0.001200     NO 
 Predicted change in Energy=-1.844481D+00
 GradGradGradGradGradGradGradGradGradGradGradGradGradGradGradGradGradGrad

 Symmetry turned off by external request.
 Stoichiometry    C32H30O14
 Framework group  C1[X(C32H30O14)]
 Deg. of freedom   222
 Full point group                 C1      NOp   1
                          Input orientation:                          
 ---------------------------------------------------------------------
 Center     Atomic      Atomic             Coordinates (Angstroms)
 Number     Number       Type             X           Y           Z
 ---------------------------------------------------------------------
      1          8           0        2.906648    7.567365   15.814853
      2          1           0        2.685914    7.278251   14.918241
      3          6           0        0.970821    1.989010   12.467600
      4          1           0        1.463897    1.106279   12.083485
      5          6           0        1.300907    2.518607   13.700692
      6          1           0        2.054073    2.059187   14.325965
      7          8           0        1.688859    3.587660   16.297050
      8          6           0        1.214450    6.144651   16.843932
      9          1           0        1.047955    5.463912   17.678337
     10          1           0        0.599351    7.038273   16.947931
     11          6           0        2.677726    6.526780   16.734590
     12          1           0        2.999769    6.895802   17.709762
     13          1           0        3.272860    5.639503   16.500701
     14          6           0        0.664719    3.673471   14.150933
     15          6           0        1.088744    4.216768   15.472588
     16          8           0       -1.458957    2.523393    9.858043
     17          6           0       -0.017774    2.594824   11.700771
     18          6           0       -0.351053    1.985710   10.380693
     19          8           0        0.751288    5.512696   15.629611
     20          6           0       -0.319404    4.283673   13.381583
     21          1           0       -0.820670    5.175411   13.740456
     22          6           0       -0.670311    3.733751   12.160630
     23          1           0       -1.442202    4.189452   11.556352
     24          8           0        0.288254    1.119149    9.849423
     25          6           0       -6.005547   -1.464363   13.254276
     26          1           0       -6.344620   -2.360083   13.757105
     27          6           0       -5.307736   -1.528279   12.062372
     28          1           0       -5.085282   -2.475968   11.591491
     29          8           0       -3.792495   -1.529793    9.676820
     30          6           0       -2.560070    0.616004    8.768651
     31          1           0       -1.821281   -0.137237    9.034458
     32          1           0       -3.025149    0.329689    7.823511
     33          6           0       -4.854205   -0.357816   11.459933
     34          6           0       -4.026321   -0.488197   10.225175
     35          6           0       -1.946234    1.990721    8.626510
     36          1           0       -2.695718    2.710707    8.306630
     37          1           0       -1.135752    1.944996    7.898879
     38          8           0       -7.210071    1.056182   15.551187
     39          6           0       -6.259873   -0.228182   13.837759
     40          6           0       -6.940403   -0.198800   15.164344
     41          8           0       -3.543216    0.688907    9.799781
     42          6           0       -5.123248    0.879650   12.034385
     43          1           0       -4.761817    1.780636   11.560515
     44          6           0       -5.831442    0.944031   13.221090
     45          1           0       -6.042578    1.897502   13.682769
     46          8           0       -7.193838   -1.169963   15.823823
     47          6           0       -1.909869    4.779489   19.042415
     48          1           0       -1.330961    5.213868   19.846228
     49          6           0       -2.907484    3.859667   19.295696
     50          1           0       -3.124899    3.528645   20.302366
     51          8           0       -4.853952    1.872168   19.673375
     52          6           0       -6.615559    1.193092   17.911473
     53          1           0       -7.030802    1.398364   18.898673
     54          1           0       -6.134759    0.213982   17.928871
     55          6           0       -3.668837    3.355672   18.246238
     56          6           0       -4.756096    2.394620   18.597966
     57          6           0       -7.712033    1.239172   16.873896
     58          1           0       -8.446671    0.469070   17.104109
     59          1           0       -8.185103    2.218945   16.850778
     60          8           0       -0.183218    6.281438   16.252807
     61          6           0       -1.644550    5.170816   17.734491
     62          6           0       -0.589644    6.203262   17.527618
     63          8           0       -5.622312    2.171297   17.600559
     64          6           0       -3.410008    3.747072   16.936184
     65          1           0       -4.008292    3.347351   16.129250
     66          6           0       -2.384651    4.645814   16.678920
     67          1           0       -2.173708    4.960546   15.666546
     68          8           0       -0.152066    6.893285   18.408698
     69          6           0        0.779543    7.303367   15.941722
     70          1           0        0.758793    7.368028   14.855841
     71          1           0        0.458485    8.246095   16.385100
     72          6           0        2.165411    6.938073   16.432277
     73          1           0        2.185840    6.909699   17.523384
     74          1           0        2.858719    7.710748   16.096772
     75          8           0        2.624546    5.711891   15.888759
     76          1           0        2.012174    5.014542   16.163303
 ---------------------------------------------------------------------
 Rotational constants (GHZ):           0.0750632           0.0473562           0.0307526
 Standard basis: def2TZVP (5D, 7F)
  1606 basis functions,  2586 primitive gaussians,  1836 cartesian basis functions
   167 alpha electrons      167 beta electrons
       nuclear repulsion energy      5976.4006650408 Hartrees.
 NAtoms=   76 NActive=   76 NUniq=   76 SFac= 1.00D+00 NAtFMM=   60 NAOKFM=T Big=T
 Integral buffers will be    131072 words long.
 Raffenetti 2 integral format.
 Two-electron integral symmetry is turned off.
 One-electron integrals computed using PRISM.
   1 Symmetry operations used in ECPInt.
 ECPInt:  NShTT=  196251 NPrTT=  606652 LenC2=  133728 LenP2D=  269979.
 LDataN:  DoStor=T MaxTD1= 6 Len=  172
 NBasis=  1606 RedAO= T EigKep=  1.42D-06  NBF=  1606
 NBsUse=  1606 1.00D-06 EigRej= -1.00D+00 NBFU=  1606
 Initial guess from the checkpoint file:  "/dev/shm/pet_trimer_confab_1_tzvp_opt.chk"
 B after Tr=    -0.300951    0.338227   -0.103612
         Rot=    0.999961   -0.005872   -0.005647   -0.003346 Ang=  -1.01 deg.
 ExpMin= 9.52D-02 ExpMax= 2.70D+04 ExpMxC= 9.22D+02 IAcc=3 IRadAn=         5 AccDes= 0.00D+00
 Harris functional with IExCor= 1009 and IRadAn=       5 diagonalized for initial guess.
 HarFok:  IExCor= 1009 AccDes= 0.00D+00 IRadAn=         5 IDoV= 1 UseB2=F ITyADJ=14
 ICtDFT=  3500011 ScaDFX=  1.000000  1.000000  1.000000  1.000000
 FoFCou: FMM=F IPFlag=           0 FMFlag=      100000 FMFlg1=        2001
         NFxFlg=           0 DoJE=T BraDBF=F KetDBF=T FulRan=T
         wScrn=  0.000000 ICntrl=       500 IOpCl=  0 I1Cent=   200000004 NGrid=           0
         NMat0=    1 NMatS0=      1 NMatT0=    0 NMatD0=    1 NMtDS0=    0 NMtDT0=    0
 Symmetry not used in FoFCou.
 Requested convergence on RMS density matrix=1.00D-08 within  32 cycles.
 Requested convergence on MAX density matrix=1.00D-06.
 Requested convergence on             energy=1.00D-06.
 No special actions if energy rises.
 Integral accuracy reduced to 1.0D-05 until final iterations.
 Problem detected with inexpensive integrals.
 Switching to full accuracy and repeating last cycle.
 SCF Done:  E(RM062X) =  XXXXX.XXXXXXXX     A.U. after   14 cycles
