 Entering Gaussian System, Link 0=g16
 Initial command:
 /nopt/nrel/apps/gaussian/g16B/g16/l1.exe "/dev/shm/Gau-157251.inp" -scrdir="/dev/shm/"
 Default linda workers: r6i0n0
 Default is to use  36 SMP processors on each worker.
 Entering Link 1 = /nopt/nrel/apps/gaussian/g16B/g16/l1.exe PID=    157252.
  
 Copyright (c) 1988-2017, Gaussian, Inc.  All Rights Reserved.
  
 This is part of the Gaussian(R) 16 program.  It is based on
 the Gaussian(R) 09 system (copyright 2009, Gaussian, Inc.),
 the Gaussian(R) 03 system (copyright 2003, Gaussian, Inc.),
 the Gaussian(R) 98 system (copyright 1998, Gaussian, Inc.),
 the Gaussian(R) 94 system (copyright 1995, Gaussian, Inc.),
 the Gaussian 92(TM) system (copyright 1992, Gaussian, Inc.),
 the Gaussian 90(TM) system (copyright 1990, Gaussian, Inc.),
 the Gaussian 88(TM) system (copyright 1988, Gaussian, Inc.),
 the Gaussian 86(TM) system (copyright 1986, Carnegie Mellon
 University), and the Gaussian 82(TM) system (copyright 1983,
 Carnegie Mellon University). Gaussian is a federally registered
 trademark of Gaussian, Inc.
  
 This software contains proprietary and confidential information,
 including trade secrets, belonging to Gaussian, Inc.
  
 This software is provided under written license and may be
 used, copied, transmitted, or stored only in accord with that
 written license.
  
 The following legend is applicable only to US Government
 contracts under FAR:
  
                    RESTRICTED RIGHTS LEGEND
  
 Use, reproduction and disclosure by the US Government is
 subject to restrictions as set forth in subparagraphs (a)
 and (c) of the Commercial Computer Software - Restricted
 Rights clause in FAR 52.227-19.
  
 Gaussian, Inc.
 340 Quinnipiac St., Bldg. 40, Wallingford CT 06492
  
  
 ---------------------------------------------------------------
 Warning -- This program may not be used in any manner that
 competes with the business of Gaussian, Inc. or will provide
 assistance to any competitor of Gaussian, Inc.  The licensee
 of this program is prohibited from giving any competitor of
 Gaussian, Inc. access to this program.  By using this program,
 the user acknowledges that Gaussian, Inc. is engaged in the
 business of creating and licensing software in the field of
 computational chemistry and represents and warrants to the
 licensee that it is not a competitor of Gaussian, Inc. and that
 it will not use this program in any manner prohibited above.
 ---------------------------------------------------------------
  

 Cite this work as:
 Gaussian 16, Revision B.01,
 M. J. Frisch, G. W. Trucks, H. B. Schlegel, G. E. Scuseria, 
 M. A. Robb, J. R. Cheeseman, G. Scalmani, V. Barone, 
 G. A. Petersson, H. Nakatsuji, X. Li, M. Caricato, A. V. Marenich, 
 J. Bloino, B. G. Janesko, R. Gomperts, B. Mennucci, H. P. Hratchian, 
 J. V. Ortiz, A. F. Izmaylov, J. L. Sonnenberg, D. Williams-Young, 
 F. Ding, F. Lipparini, F. Egidi, J. Goings, B. Peng, A. Petrone, 
 T. Henderson, D. Ranasinghe, V. G. Zakrzewski, J. Gao, N. Rega, 
 G. Zheng, W. Liang, M. Hada, M. Ehara, K. Toyota, R. Fukuda, 
 J. Hasegawa, M. Ishida, T. Nakajima, Y. Honda, O. Kitao, H. Nakai, 
 T. Vreven, K. Throssell, J. A. Montgomery, Jr., J. E. Peralta, 
 F. Ogliaro, M. J. Bearpark, J. J. Heyd, E. N. Brothers, K. N. Kudin, 
 V. N. Staroverov, T. A. Keith, R. Kobayashi, J. Normand, 
 K. Raghavachari, A. P. Rendell, J. C. Burant, S. S. Iyengar, 
 J. Tomasi, M. Cossi, J. M. Millam, M. Klene, C. Adamo, R. Cammi, 
 J. W. Ochterski, R. L. Martin, K. Morokuma, O. Farkas, 
 J. B. Foresman, and D. J. Fox, Gaussian, Inc., Wallingford CT, 2016.
 
 ******************************************
 Gaussian 16:  ES64L-G16RevB.01 20-Dec-2017
                28-Jun-2019 
 ******************************************
 %RWF=/dev/shm/,5GB,/tmp/scratch/919103/,-1
 %NoSave
 %OldChk=pet_mono_843.chk
 %Chk=/dev/shm/pet_mono_843_tzvp.chk
 SetLPE:    new flags="-opt 'Tsnet.Node.lindarsharg: ssh'  -nodelist 'r6i0n0.ib0.cm.hpc.nrel.gov' -env GAUSS_MDEF=9663676416 -env GAUSS_EXEDIR="/nopt/nrel/apps/gaussian/g16B/g16/bsd:/nopt/nrel/apps/gaussian/g16B/g16/local:/nopt/nrel/apps/gaussian/g16B/g16/extras:/nopt/nrel/apps/gaussian/g16B/g16""
 Will use up to    1 processors via Linda.
 Copying data from "pet_mono_843.chk" to current chk file "/dev/shm/pet_mono_843_tzvp.chk"
 IOpt=  2 FromEx=T IUOpen= 4 IOptOp= 5 NList=   0 IFRang= 0 IUIn= 4 IUOut= 2.
 Default route: CacheSize=180224 MaxDisk=256GB
 ----------------------------------------------------------------------
 # geom=allcheck guess=read m062x/Def2TZVP nosymm scf=xqc opt=ReadFC fr
 eq=NoRaman
 ----------------------------------------------------------------------
 1/4=180224,10=3,18=20,19=15,26=3,29=7,38=1/1,3;
 2/4=180224,9=110,12=2,15=1,40=1/2;
 3/4=180224,5=44,7=101,11=2,14=-4,25=1,30=1,71=1,74=-55,116=-2/1,2,3;
 4/4=180224,5=1/1;
 5/4=180224,5=2,8=3,13=1,38=6/2,8;
 6/4=180224,7=2,8=2,9=2,10=2,28=1/1;
 7/4=180224,30=1/1,2,3,16;
 1/4=180224,18=20,19=15,26=3/3(2);
 2/4=180224,9=110,15=1/2;
 99/4=180224/99;
 2/4=180224,9=110,15=1/2;
 3/4=180224,5=44,7=101,11=2,14=-2,25=1,30=1,71=1,74=-55/1,2,3;
 4/4=180224,5=5,16=3,69=1/1;
 5/4=180224,5=2,8=3,13=1,38=5/2,8;
 7/4=180224,30=1/1,2,3,16;
 1/4=180224,18=20,19=15,26=3/3(-5);
 2/4=180224,9=110,15=1/2;
 6/4=180224,7=2,8=2,9=2,10=2,19=2,28=1/1;
 99/4=180224,9=1/99;
 Structure from the checkpoint file:  "/dev/shm/pet_mono_843_tzvp.chk"
 --------------------------
 narrow results from confab
 --------------------------
 Charge =  0 Multiplicity = 1
 Redundant internal coordinates found in file.  (old form).
 O,0,4.8834819376,2.6080698541,0.5004471804
 H,0,4.0533456704,2.1569139398,0.71092948
 C,0,-0.9320378943,2.2372355155,4.0954199371
 H,0,-1.4976160009,1.329088339,4.3060020226
 C,0,0.1227607592,2.2431369213,3.1914967654
 H,0,0.4227945554,1.3398853803,2.6594285308
 O,0,2.2665600105,2.3837378576,1.3708635472
 C,0,3.5922935438,4.6699624459,0.8363930818
 H,0,3.8187476117,5.7421644629,0.8307403489
 H,0,3.1916277342,4.376305681,-0.14614328
 C,0,4.8481457839,3.8499778087,1.1285109696
 H,0,5.7116576565,4.4198310251,0.7535826472
 H,0,4.9638977126,3.7872994364,2.2296813594
 C,0,0.8225123144,3.4294788635,2.949911062
 C,0,1.9485798969,3.3845507894,1.9680834031
 O,0,-2.6924206227,4.5334506855,6.278964896
 C,0,-1.2849874224,3.4175179035,4.7571859963
 C,0,-2.4259801458,3.3595754259,5.7209364403
 O,0,2.5584400644,4.5541989917,1.8255808453
 C,0,0.4699467554,4.6103661173,3.6105860071
 H,0,1.0271258881,5.5244537827,3.4087274325
 C,0,-0.5855058168,4.6041446529,4.5168165825
 H,0,-0.8754082209,5.5133130864,5.0423086162
 O,0,-3.0388327989,2.3466326303,5.9613191351
 C,0,-5.1189901581,4.3050062637,6.810701232
 H,0,-5.1926103151,4.6529428566,5.7602598037
 H,0,-5.8062066365,4.9320461704,7.3985063972
 C,0,-3.7000500202,4.5919667741,7.2996343983
 H,0,-3.4463777933,3.884103049,8.1038151242
 H,0,-3.6177950304,5.6169716295,7.6784816993
 O,0,-5.5315758745,2.9866855473,6.9832387995
 H,0,-4.8505231445,2.4199861125,6.5935895391
 Recover connectivity data from disk.

 GradGradGradGradGradGradGradGradGradGradGradGradGradGradGradGradGradGrad
 Berny optimization.
 Initialization pass.
 Force constant matrix read from checkpoint file:
 "/dev/shm/pet_mono_843_tzvp.chk"
                           ----------------------------
                           !    Initial Parameters    !
                           ! (Angstroms and Degrees)  !
 --------------------------                            --------------------------
 ! Name  Definition              Value          Derivative Info.                !
 --------------------------------------------------------------------------------
 ! R1    R(1,2)                  0.968          D2E/DX2 =    0.5515             !
 ! R2    R(1,11)                 1.3921         D2E/DX2 =    0.4543             !
 ! R3    R(3,4)                  1.0904         D2E/DX2 =    0.3603             !
 ! R4    R(3,5)                  1.3891         D2E/DX2 =    0.4862             !
 ! R5    R(3,17)                 1.3984         D2E/DX2 =    0.468              !
 ! R6    R(5,6)                  1.0904         D2E/DX2 =    0.3583             !
 ! R7    R(5,14)                 1.3984         D2E/DX2 =    0.4748             !
 ! R8    R(7,15)                 1.2081         D2E/DX2 =    1.0365             !
 ! R9    R(8,9)                  1.0959         D2E/DX2 =    0.3492             !
 ! R10   R(8,10)                 1.101          D2E/DX2 =    0.3462             !
 ! R11   R(8,11)                 1.528          D2E/DX2 =    0.3163             !
 ! R12   R(8,19)                 1.4355         D2E/DX2 =    0.4447             !
 ! R13   R(11,12)                1.1004         D2E/DX2 =    0.3489             !
 ! R14   R(11,13)                1.109          D2E/DX2 =    0.3403             !
 ! R15   R(14,15)                1.4947         D2E/DX2 =    0.3436             !
 ! R16   R(14,20)                1.3983         D2E/DX2 =    0.4717             !
 ! R17   R(15,19)                1.3268         D2E/DX2 =    0.5915             !
 ! R18   R(16,18)                1.3268         D2E/DX2 =    0.5528             !
 ! R19   R(16,28)                1.4354         D2E/DX2 =    0.4373             !
 ! R20   R(17,18)                1.4947         D2E/DX2 =    0.3372             !
 ! R21   R(17,22)                1.3983         D2E/DX2 =    0.4767             !
 ! R22   R(18,24)                1.2081         D2E/DX2 =    1.0331             !
 ! R23   R(20,21)                1.0894         D2E/DX2 =    0.3586             !
 ! R24   R(20,22)                1.3911         D2E/DX2 =    0.488              !
 ! R25   R(22,23)                1.0894         D2E/DX2 =    0.3575             !
 ! R26   R(25,26)                1.109          D2E/DX2 =    0.3481             !
 ! R27   R(25,27)                1.1004         D2E/DX2 =    0.3455             !
 ! R28   R(25,28)                1.528          D2E/DX2 =    0.3291             !
 ! R29   R(25,31)                1.3921         D2E/DX2 =    0.4519             !
 ! R30   R(28,29)                1.101          D2E/DX2 =    0.3483             !
 ! R31   R(28,30)                1.0959         D2E/DX2 =    0.3452             !
 ! R32   R(31,32)                0.9679         D2E/DX2 =    0.5559             !
 ! A1    A(2,1,11)             107.2126         D2E/DX2 =    0.188              !
 ! A2    A(4,3,5)              121.5376         D2E/DX2 =    0.1598             !
 ! A3    A(4,3,17)             118.7273         D2E/DX2 =    0.1599             !
 ! A4    A(5,3,17)             119.7351         D2E/DX2 =    0.2501             !
 ! A5    A(3,5,6)              121.5289         D2E/DX2 =    0.1602             !
 ! A6    A(3,5,14)             119.7351         D2E/DX2 =    0.2502             !
 ! A7    A(6,5,14)             118.736          D2E/DX2 =    0.1602             !
 ! A8    A(9,8,10)             109.3636         D2E/DX2 =    0.1504             !
 ! A9    A(9,8,11)             110.8664         D2E/DX2 =    0.1538             !
 ! A10   A(9,8,19)             103.3722         D2E/DX2 =    0.1666             !
 ! A11   A(10,8,11)            109.0609         D2E/DX2 =    0.1366             !
 ! A12   A(10,8,19)            109.3506         D2E/DX2 =    0.1471             !
 ! A13   A(11,8,19)            114.639          D2E/DX2 =    0.3118             !
 ! A14   A(1,11,8)             114.4144         D2E/DX2 =    0.2773             !
 ! A15   A(1,11,12)            106.7582         D2E/DX2 =    0.1562             !
 ! A16   A(1,11,13)            113.2593         D2E/DX2 =    0.1471             !
 ! A17   A(8,11,12)            107.572          D2E/DX2 =    0.1485             !
 ! A18   A(8,11,13)            107.8143         D2E/DX2 =    0.1615             !
 ! A19   A(12,11,13)           106.5986         D2E/DX2 =    0.154              !
 ! A20   A(5,14,15)            117.7093         D2E/DX2 =    0.2503             !
 ! A21   A(5,14,20)            120.5748         D2E/DX2 =    0.2508             !
 ! A22   A(15,14,20)           121.7158         D2E/DX2 =    0.2507             !
 ! A23   A(7,15,14)            123.2262         D2E/DX2 =    0.2488             !
 ! A24   A(7,15,19)            123.797          D2E/DX2 =    0.3046             !
 ! A25   A(14,15,19)           112.9767         D2E/DX2 =    0.2609             !
 ! A26   A(18,16,28)           118.4302         D2E/DX2 =    0.5178             !
 ! A27   A(3,17,18)            117.7155         D2E/DX2 =    0.2487             !
 ! A28   A(3,17,22)            120.5744         D2E/DX2 =    0.2503             !
 ! A29   A(18,17,22)           121.7101         D2E/DX2 =    0.2532             !
 ! A30   A(16,18,17)           112.9663         D2E/DX2 =    0.2604             !
 ! A31   A(16,18,24)           123.7992         D2E/DX2 =    0.2903             !
 ! A32   A(17,18,24)           123.2345         D2E/DX2 =    0.2537             !
 ! A33   A(8,19,15)            118.4338         D2E/DX2 =    0.5935             !
 ! A34   A(14,20,21)           119.4793         D2E/DX2 =    0.16               !
 ! A35   A(14,20,22)           119.6898         D2E/DX2 =    0.2501             !
 ! A36   A(21,20,22)           120.8309         D2E/DX2 =    0.16               !
 ! A37   A(17,22,20)           119.6907         D2E/DX2 =    0.25               !
 ! A38   A(17,22,23)           119.4855         D2E/DX2 =    0.1601             !
 ! A39   A(20,22,23)           120.8238         D2E/DX2 =    0.1603             !
 ! A40   A(26,25,27)           106.6019         D2E/DX2 =    0.1602             !
 ! A41   A(26,25,28)           107.8068         D2E/DX2 =    0.1609             !
 ! A42   A(26,25,31)           113.2551         D2E/DX2 =    0.1502             !
 ! A43   A(27,25,28)           107.5771         D2E/DX2 =    0.1584             !
 ! A44   A(27,25,31)           106.7574         D2E/DX2 =    0.1611             !
 ! A45   A(28,25,31)           114.4192         D2E/DX2 =    0.2681             !
 ! A46   A(16,28,25)           114.6252         D2E/DX2 =    0.3178             !
 ! A47   A(16,28,29)           109.3552         D2E/DX2 =    0.1607             !
 ! A48   A(16,28,30)           103.3708         D2E/DX2 =    0.1655             !
 ! A49   A(25,28,29)           109.0832         D2E/DX2 =    0.1506             !
 ! A50   A(25,28,30)           110.8534         D2E/DX2 =    0.1563             !
 ! A51   A(29,28,30)           109.3637         D2E/DX2 =    0.1594             !
 ! A52   A(25,31,32)           107.2192         D2E/DX2 =    0.1731             !
 ! D1    D(2,1,11,8)           -52.0023         D2E/DX2 =    0.0183             !
 ! D2    D(2,1,11,12)         -170.88           D2E/DX2 =    0.0153             !
 ! D3    D(2,1,11,13)           72.1092         D2E/DX2 =    0.0201             !
 ! D4    D(4,3,5,6)              0.0396         D2E/DX2 =    0.023              !
 ! D5    D(4,3,5,14)           179.9981         D2E/DX2 =    0.023              !
 ! D6    D(17,3,5,6)           179.9969         D2E/DX2 =    0.0231             !
 ! D7    D(17,3,5,14)           -0.0446         D2E/DX2 =    0.0231             !
 ! D8    D(4,3,17,18)            0.0107         D2E/DX2 =    0.0219             !
 ! D9    D(4,3,17,22)          179.9718         D2E/DX2 =    0.0219             !
 ! D10   D(5,3,17,18)         -179.9478         D2E/DX2 =    0.0219             !
 ! D11   D(5,3,17,22)            0.0134         D2E/DX2 =    0.0219             !
 ! D12   D(3,5,14,15)         -179.9579         D2E/DX2 =    0.0221             !
 ! D13   D(3,5,14,20)            0.0117         D2E/DX2 =    0.0221             !
 ! D14   D(6,5,14,15)            0.0018         D2E/DX2 =    0.0221             !
 ! D15   D(6,5,14,20)          179.9714         D2E/DX2 =    0.0221             !
 ! D16   D(9,8,11,1)          -147.5522         D2E/DX2 =    0.0134             !
 ! D17   D(9,8,11,12)          -29.1346         D2E/DX2 =    0.0088             !
 ! D18   D(9,8,11,13)           85.4792         D2E/DX2 =    0.0086             !
 ! D19   D(10,8,11,1)          -27.0797         D2E/DX2 =    0.0087             !
 ! D20   D(10,8,11,12)          91.3379         D2E/DX2 =    0.0096             !
 ! D21   D(10,8,11,13)        -154.0483         D2E/DX2 =    0.0141             !
 ! D22   D(19,8,11,1)           95.8875         D2E/DX2 =    0.0334             !
 ! D23   D(19,8,11,12)        -145.6949         D2E/DX2 =    0.0169             !
 ! D24   D(19,8,11,13)         -31.0811         D2E/DX2 =    0.0119             !
 ! D25   D(9,8,19,15)          172.3722         D2E/DX2 =    0.0192             !
 ! D26   D(10,8,19,15)          55.9686         D2E/DX2 =    0.0102             !
 ! D27   D(11,8,19,15)         -66.8425         D2E/DX2 =    0.0423             !
 ! D28   D(5,14,15,7)            0.8409         D2E/DX2 =    0.0192             !
 ! D29   D(5,14,15,19)        -179.0689         D2E/DX2 =    0.0188             !
 ! D30   D(20,14,15,7)        -179.1283         D2E/DX2 =    0.0182             !
 ! D31   D(20,14,15,19)          0.9619         D2E/DX2 =    0.0198             !
 ! D32   D(5,14,20,21)        -179.9892         D2E/DX2 =    0.022              !
 ! D33   D(5,14,20,22)           0.0529         D2E/DX2 =    0.0221             !
 ! D34   D(15,14,20,21)         -0.0209         D2E/DX2 =    0.022              !
 ! D35   D(15,14,20,22)       -179.9788         D2E/DX2 =    0.0221             !
 ! D36   D(7,15,19,8)            4.7401         D2E/DX2 =    0.032              !
 ! D37   D(14,15,19,8)        -175.3507         D2E/DX2 =    0.0344             !
 ! D38   D(28,16,18,17)       -175.32           D2E/DX2 =    0.0296             !
 ! D39   D(28,16,18,24)          4.7623         D2E/DX2 =    0.0353             !
 ! D40   D(18,16,28,25)        -66.9787         D2E/DX2 =    0.0452             !
 ! D41   D(18,16,28,29)         55.8554         D2E/DX2 =    0.0133             !
 ! D42   D(18,16,28,30)        172.2604         D2E/DX2 =    0.0217             !
 ! D43   D(3,17,18,16)        -179.0508         D2E/DX2 =    0.0181             !
 ! D44   D(3,17,18,24)           0.8674         D2E/DX2 =    0.0193             !
 ! D45   D(22,17,18,16)          0.9885         D2E/DX2 =    0.0189             !
 ! D46   D(22,17,18,24)       -179.0933         D2E/DX2 =    0.0186             !
 ! D47   D(3,17,22,20)           0.0512         D2E/DX2 =    0.0221             !
 ! D48   D(3,17,22,23)        -179.9888         D2E/DX2 =    0.022              !
 ! D49   D(18,17,22,20)       -179.9892         D2E/DX2 =    0.022              !
 ! D50   D(18,17,22,23)         -0.0293         D2E/DX2 =    0.0219             !
 ! D51   D(14,20,22,17)         -0.0837         D2E/DX2 =    0.0231             !
 ! D52   D(14,20,22,23)        179.9569         D2E/DX2 =    0.0231             !
 ! D53   D(21,20,22,17)        179.959          D2E/DX2 =    0.0231             !
 ! D54   D(21,20,22,23)         -0.0004         D2E/DX2 =    0.0231             !
 ! D55   D(26,25,28,16)        -31.045          D2E/DX2 =    0.0094             !
 ! D56   D(26,25,28,29)       -154.0257         D2E/DX2 =    0.0137             !
 ! D57   D(26,25,28,30)         85.4953         D2E/DX2 =    0.0083             !
 ! D58   D(27,25,28,16)       -145.6615         D2E/DX2 =    0.0159             !
 ! D59   D(27,25,28,29)         91.3579         D2E/DX2 =    0.0074             !
 ! D60   D(27,25,28,30)        -29.1211         D2E/DX2 =    0.0069             !
 ! D61   D(31,25,28,16)         95.9154         D2E/DX2 =    0.0293             !
 ! D62   D(31,25,28,29)        -27.0652         D2E/DX2 =    0.0075             !
 ! D63   D(31,25,28,30)       -147.5442         D2E/DX2 =    0.0108             !
 ! D64   D(26,25,31,32)         72.2329         D2E/DX2 =    0.0163             !
 ! D65   D(27,25,31,32)       -170.7552         D2E/DX2 =    0.017              !
 ! D66   D(28,25,31,32)        -51.8688         D2E/DX2 =    0.0169             !
 --------------------------------------------------------------------------------
 Trust Radius=3.00D-01 FncErr=1.00D-07 GrdErr=1.00D-06 EigMax=2.50D+02 EigMin=1.00D-04
 Number of steps in this run=    160 maximum allowed number of steps=    192.
 GradGradGradGradGradGradGradGradGradGradGradGradGradGradGradGradGradGrad

                          Input orientation:                          
 ---------------------------------------------------------------------
 Center     Atomic      Atomic             Coordinates (Angstroms)
 Number     Number       Type             X           Y           Z
 ---------------------------------------------------------------------
      1          8           0        4.883482    2.608070    0.500447
      2          1           0        4.053346    2.156914    0.710929
      3          6           0       -0.932038    2.237236    4.095420
      4          1           0       -1.497616    1.329088    4.306002
      5          6           0        0.122761    2.243137    3.191497
      6          1           0        0.422795    1.339885    2.659429
      7          8           0        2.266560    2.383738    1.370864
      8          6           0        3.592294    4.669962    0.836393
      9          1           0        3.818748    5.742164    0.830740
     10          1           0        3.191628    4.376306   -0.146143
     11          6           0        4.848146    3.849978    1.128511
     12          1           0        5.711658    4.419831    0.753583
     13          1           0        4.963898    3.787299    2.229681
     14          6           0        0.822512    3.429479    2.949911
     15          6           0        1.948580    3.384551    1.968083
     16          8           0       -2.692421    4.533451    6.278965
     17          6           0       -1.284987    3.417518    4.757186
     18          6           0       -2.425980    3.359575    5.720936
     19          8           0        2.558440    4.554199    1.825581
     20          6           0        0.469947    4.610366    3.610586
     21          1           0        1.027126    5.524454    3.408727
     22          6           0       -0.585506    4.604145    4.516817
     23          1           0       -0.875408    5.513313    5.042309
     24          8           0       -3.038833    2.346633    5.961319
     25          6           0       -5.118990    4.305006    6.810701
     26          1           0       -5.192610    4.652943    5.760260
     27          1           0       -5.806207    4.932046    7.398506
     28          6           0       -3.700050    4.591967    7.299634
     29          1           0       -3.446378    3.884103    8.103815
     30          1           0       -3.617795    5.616972    7.678482
     31          8           0       -5.531576    2.986686    6.983239
     32          1           0       -4.850523    2.419986    6.593590
 ---------------------------------------------------------------------
                    Distance matrix (angstroms):
                    1          2          3          4          5
     1  O    0.000000
     2  H    0.967972   0.000000
     3  C    6.847015   6.026216   0.000000
     4  H    7.538995   6.665059   1.090392   0.000000
     5  C    5.480820   4.648671   1.389141   2.168693   0.000000
     6  H    5.115391   4.200605   2.168612   2.529683   1.090404
     7  O    2.766989   1.918219   4.204248   4.888389   2.816088
     8  C    2.455897   2.558070   6.083502   7.007625   4.844962
     9  H    3.326455   3.594915   6.746304   7.734107   5.610408
    10  H    2.531227   2.530382   6.290556   7.148156   5.010808
    11  C    1.392138   1.916389   6.694327   7.531270   5.400658
    12  H    2.008091   2.805817   7.750503   8.610807   6.474349
    13  H    2.094588   2.407046   6.375401   7.218384   5.171666
    14  C    4.813113   4.131676   2.410826   3.410809   1.398364
    15  C    3.372021   2.741818   3.760299   4.644034   2.476526
    16  O    9.720733   9.064012   3.624834   3.948174   4.764792
    17  C    7.538239   6.816092   1.398418   2.147165   2.410873
    18  C    9.013684   8.278178   2.476654   2.643251   3.760396
    19  O    3.308960   3.037131   4.764864   5.745034   3.624813
    20  C    5.758598   5.221895   2.798638   3.888662   2.428981
    21  H    5.642240   5.270336   3.887888   4.978003   3.410587
    22  C    7.072861   6.480174   2.428975   3.406227   2.798655
    23  H    7.888838   7.370134   3.410644   4.293836   3.887917
    24  O    9.625619   8.826187   2.816404   2.480085   4.204557
    25  C   11.947734  11.222890   5.401759   5.314504   6.695215
    26  H   11.548799  10.826523   5.172989   5.178403   6.376431
    27  H   12.932654  12.232572   6.475331   6.411618   7.751246
    28  C   11.128424  10.462106   4.844960   4.945597   6.083394
    29  H   11.350155  10.671635   5.010121   4.974852   6.289864
    30  H   11.526031  10.925437   5.610191   5.852753   6.745929
    31  O   12.273686  11.484821   5.482419   5.117427   6.848481
    32  H   11.485322  10.674913   4.650675   4.202987   6.028189
                    6          7          8          9         10
     6  H    0.000000
     7  O    2.479818   0.000000
     8  C    4.945563   2.696303   0.000000
     9  H    5.852919   3.738990   1.095870   0.000000
    10  H    4.975693   2.669717   1.100975   1.792526   0.000000
    11  C    5.313003   2.978788   1.528029   2.174557   2.155416
    12  H    6.410178   4.049124   2.135680   2.310331   2.676182
    13  H    5.176498   3.159618   2.145144   2.662687   3.021988
    14  C    2.147220   2.381646   3.698303   4.337836   4.011825
    15  C    2.643224   1.208060   2.373774   3.217051   2.645506
    16  O    5.744952   7.300836   8.314918   8.575515   8.713710
    17  C    3.410816   5.014915   6.381936   6.846099   6.708353
    18  C    4.644082   6.472660   7.861011   8.281749   8.186201
    19  O    3.948176   2.236708   1.435530   1.997334   2.078526
    20  C    3.406313   3.633462   4.177170   4.496996   4.644927
    21  H    4.293865   3.943752   3.731909   3.806122   4.317455
    22  C    3.888695   4.791817   5.568111   5.854886   6.005151
    23  H    4.978046   5.757231   6.193652   6.310688   6.689813
    24  O    4.888649   7.015757   8.696814   9.212974   8.957640
    25  C    7.532356   9.371737  10.569390  10.849355  10.838318
    26  H    7.219714   8.947363  10.070714  10.329140  10.259511
    27  H    8.611790  10.392108  11.465680  11.680393  11.755493
    28  C    7.007524   8.696381   9.744632   9.985082  10.147972
    29  H    7.147369   8.956639  10.147704  10.446629  10.600339
    30  H    7.733739   9.212246   9.984807  10.109867  10.446638
    31  O    7.540677   9.626693  11.129336  11.527118  11.351362
    32  H    6.667242   8.827857  10.463692  10.927193  10.673677
                   11         12         13         14         15
    11  C    0.000000
    12  H    1.100435   0.000000
    13  H    1.109010   1.771471   0.000000
    14  C    4.438473   5.450541   4.218749   0.000000
    15  C    3.054339   4.087490   3.053323   1.494668   0.000000
    16  O    9.157208  10.058394   8.693253   4.965492   6.437589
    17  C    7.139302   8.123208   6.750821   2.776318   4.270379
    18  C    8.616483   9.592700   8.184260   4.270383   5.763793
    19  O    2.494912   3.333169   2.556885   2.354264   1.326768
    20  C    5.089942   5.972797   4.772833   1.398316   2.527211
    21  H    4.754309   5.496801   4.461617   2.154367   2.739291
    22  C    6.447787   7.338267   6.057566   2.411959   3.795397
    23  H    7.130467   7.935887   6.707271   3.406380   4.685872
    24  O    9.371260  10.391812   8.946750   5.015089   6.472827
    25  C   11.482079  12.409867  11.086857   7.139587   8.616770
    26  H   11.086687  12.001009  10.787445   6.751046   8.184499
    27  H   12.409631  13.307087  12.000931   8.123277   9.592755
    28  C   10.569057  11.465630  10.070546   6.381617   7.860681
    29  H   10.837673  11.755107  10.259023   6.707670   8.185495
    30  H   10.848804  11.680157  10.328726   6.845497   8.281116
    31  O   11.948294  12.933399  11.549557   7.539114   9.014589
    32  H   11.223909  12.233753  10.827562   6.817536   8.279704
                   16         17         18         19         20
    16  O    0.000000
    17  C    2.354142   0.000000
    18  C    1.326789   1.494669   0.000000
    19  O    6.885100   4.965711   6.437808   0.000000
    20  C    4.138445   2.411923   3.795319   2.747945   0.000000
    21  H    4.801601   3.406375   4.685824   2.406797   1.089381
    22  C    2.747591   1.398261   2.527094   4.138797   1.391141
    23  H    2.406446   2.154393   2.739233   4.801932   2.162203
    24  O    2.236755   2.381744   1.208067   7.301174   4.791865
    25  C    2.494628   4.438934   3.055115   9.157317   6.447495
    26  H    2.556224   4.219236   3.054274   8.693114   6.057018
    27  H    3.332854   5.450852   4.088134  10.058210   7.337705
    28  C    1.435447   3.698094   2.373674   8.314769   5.567611
    29  H    2.078505   4.011139   2.644703   8.713386   6.004512
    30  H    1.997244   4.337460   3.216869   8.575069   5.854115
    31  O    3.308971   4.813984   3.373007   9.721466   7.073146
    32  H    3.036960   4.132855   2.742765   9.065402   6.481009
                   21         22         23         24         25
    21  H    0.000000
    22  C    2.162270   0.000000
    23  H    2.507658   1.089391   0.000000
    24  O    5.757282   3.633423   3.943710   0.000000
    25  C    7.129882   5.089585   4.753441   2.980559   0.000000
    26  H    6.706292   4.772205   4.460261   3.162001   1.109012
    27  H    7.934968   5.972217   5.495663   4.050707   1.100436
    28  C    6.193132   4.176674   3.731354   2.696261   1.528003
    29  H    6.689307   4.644309   4.317063   2.668370   2.155675
    30  H    6.309885   4.496301   3.805370   3.738845   2.174370
    31  O    7.888851   5.758734   5.641893   2.769071   1.392108
    32  H    7.370741   5.222443   5.270359   1.920252   1.916380
                   26         27         28         29         30
    26  H    0.000000
    27  H    1.771511   0.000000
    28  C    2.145024   2.135726   0.000000
    29  H    3.022035   2.676647   1.100967   0.000000
    30  H    2.662512   2.310120   1.095868   1.792519   0.000000
    31  O    2.094514   2.008058   2.455916   2.531620   3.326308
    32  H    2.407812   2.805649   2.557262   2.529040   3.594068
                   31         32
    31  O    0.000000
    32  H    0.967888   0.000000
 Symmetry turned off by external request.
 Stoichiometry    C12H14O6
 Framework group  C1[X(C12H14O6)]
 Deg. of freedom    90
 Full point group                 C1      NOp   1
 Rotational constants (GHZ):           1.7737556           0.1286974           0.1223085
 Standard basis: def2TZVP (5D, 7F)
   642 basis functions,  1030 primitive gaussians,   732 cartesian basis functions
    67 alpha electrons       67 beta electrons
       nuclear repulsion energy      1271.9111170261 Hartrees.
 NAtoms=   32 NActive=   32 NUniq=   32 SFac= 1.00D+00 NAtFMM=   60 NAOKFM=F Big=F
 Integral buffers will be    131072 words long.
 Raffenetti 2 integral format.
 Two-electron integral symmetry is turned off.
 One-electron integrals computed using PRISM.
   1 Symmetry operations used in ECPInt.
 ECPInt:  NShTT=   32385 NPrTT=   99228 LenC2=   26085 LenP2D=   57351.
 LDataN:  DoStor=T MaxTD1= 6 Len=  172
 NBasis=   642 RedAO= T EigKep=  7.56D-06  NBF=   642
 NBsUse=   642 1.00D-06 EigRej= -1.00D+00 NBFU=   642
 Initial guess from the checkpoint file:  "/dev/shm/pet_mono_843_tzvp.chk"
 B after Tr=     0.000000    0.000000    0.000000
         Rot=    1.000000    0.000000    0.000000    0.000000 Ang=   0.00 deg.
 Requested convergence on RMS density matrix=1.00D-08 within  32 cycles.
 Requested convergence on MAX density matrix=1.00D-06.
 Requested convergence on             energy=1.00D-06.
 No special actions if energy rises.
 SCF Done:  E(RM062X) =  -917.070565180     A.U. after   12 cycles
            NFock= 12  Conv=0.39D-08     -V/T= 2.0047
 QCSCF skips out because SCF is already converged.

 **********************************************************************

            Population analysis using the SCF Density.

 **********************************************************************

 Alpha  occ. eigenvalues --  -19.69450 -19.69449 -19.64095 -19.64094 -19.61286
 Alpha  occ. eigenvalues --  -19.61278 -10.69994 -10.69992 -10.61151 -10.61149
 Alpha  occ. eigenvalues --  -10.59303 -10.59300 -10.58626 -10.58624 -10.57736
 Alpha  occ. eigenvalues --  -10.57656 -10.57443 -10.57362  -1.26527  -1.26522
 Alpha  occ. eigenvalues --   -1.16943  -1.16939  -1.14478  -1.14468  -0.99840
 Alpha  occ. eigenvalues --   -0.91556  -0.88258  -0.87103  -0.85930  -0.78887
 Alpha  occ. eigenvalues --   -0.76109  -0.72729  -0.72034  -0.66919  -0.65812
 Alpha  occ. eigenvalues --   -0.65053  -0.62970  -0.61262  -0.60868  -0.60203
 Alpha  occ. eigenvalues --   -0.59424  -0.55872  -0.55503  -0.54849  -0.54550
 Alpha  occ. eigenvalues --   -0.54102  -0.53208  -0.51874  -0.49847  -0.49493
 Alpha  occ. eigenvalues --   -0.49386  -0.47996  -0.47009  -0.46176  -0.45930
 Alpha  occ. eigenvalues --   -0.45159  -0.42992  -0.42581  -0.42542  -0.39358
 Alpha  occ. eigenvalues --   -0.39155  -0.38065  -0.37795  -0.34931  -0.34787
 Alpha  occ. eigenvalues --   -0.34041  -0.33849
 Alpha virt. eigenvalues --   -0.06141  -0.00603   0.03071   0.06602   0.07137
 Alpha virt. eigenvalues --    0.08757   0.09606   0.09620   0.09869   0.10428
 Alpha virt. eigenvalues --    0.10748   0.11173   0.11788   0.12798   0.12969
 Alpha virt. eigenvalues --    0.13480   0.14227   0.14280   0.14995   0.14998
 Alpha virt. eigenvalues --    0.15918   0.16557   0.17339   0.18506   0.20558
 Alpha virt. eigenvalues --    0.20704   0.21331   0.21911   0.22492   0.23511
 Alpha virt. eigenvalues --    0.24116   0.24295   0.24986   0.25845   0.26047
 Alpha virt. eigenvalues --    0.26345   0.26809   0.27117   0.28041   0.28940
 Alpha virt. eigenvalues --    0.30911   0.30945   0.31837   0.32083   0.32763
 Alpha virt. eigenvalues --    0.33180   0.34644   0.35301   0.35529   0.36423
 Alpha virt. eigenvalues --    0.36473   0.36920   0.38094   0.38403   0.38683
 Alpha virt. eigenvalues --    0.38887   0.39465   0.39581   0.40235   0.40408
 Alpha virt. eigenvalues --    0.41740   0.42007   0.42199   0.42255   0.42923
 Alpha virt. eigenvalues --    0.43789   0.43919   0.43947   0.44594   0.45546
 Alpha virt. eigenvalues --    0.45753   0.46590   0.47594   0.48363   0.48710
 Alpha virt. eigenvalues --    0.49070   0.49775   0.50300   0.50649   0.50807
 Alpha virt. eigenvalues --    0.51822   0.52188   0.53660   0.53680   0.54503
 Alpha virt. eigenvalues --    0.54547   0.55134   0.55706   0.56067   0.57035
 Alpha virt. eigenvalues --    0.59142   0.59449   0.59989   0.62790   0.63120
 Alpha virt. eigenvalues --    0.63572   0.65224   0.65749   0.66170   0.66182
 Alpha virt. eigenvalues --    0.67436   0.67737   0.68427   0.68731   0.69519
 Alpha virt. eigenvalues --    0.71058   0.71903   0.72134   0.72186   0.72768
 Alpha virt. eigenvalues --    0.73755   0.75642   0.76053   0.76363   0.76501
 Alpha virt. eigenvalues --    0.77632   0.77836   0.79450   0.79777   0.81121
 Alpha virt. eigenvalues --    0.82584   0.84105   0.85940   0.86391   0.87275
 Alpha virt. eigenvalues --    0.87626   0.88542   0.88855   0.89003   0.90078
 Alpha virt. eigenvalues --    0.90827   0.93324   0.93590   0.93669   0.94993
 Alpha virt. eigenvalues --    0.95501   0.96538   0.97298   0.98418   0.99212
 Alpha virt. eigenvalues --    1.00583   1.01856   1.03222   1.03250   1.04234
 Alpha virt. eigenvalues --    1.05104   1.06807   1.08665   1.09028   1.10134
 Alpha virt. eigenvalues --    1.10635   1.11728   1.12137   1.12747   1.13429
 Alpha virt. eigenvalues --    1.14508   1.15742   1.16436   1.17202   1.18791
 Alpha virt. eigenvalues --    1.21280   1.21539   1.23600   1.24399   1.25337
 Alpha virt. eigenvalues --    1.26341   1.27984   1.29496   1.29967   1.30741
 Alpha virt. eigenvalues --    1.31695   1.32392   1.34928   1.35598   1.39746
 Alpha virt. eigenvalues --    1.41051   1.41185   1.41749   1.43155   1.43890
 Alpha virt. eigenvalues --    1.45022   1.47999   1.48680   1.49317   1.50071
 Alpha virt. eigenvalues --    1.50645   1.51474   1.52926   1.53428   1.54313
 Alpha virt. eigenvalues --    1.54674   1.55572   1.56137   1.56763   1.58815
 Alpha virt. eigenvalues --    1.59109   1.60131   1.60194   1.61547   1.61978
 Alpha virt. eigenvalues --    1.62441   1.64070   1.64230   1.64619   1.67386
 Alpha virt. eigenvalues --    1.68432   1.69026   1.69081   1.71233   1.72791
 Alpha virt. eigenvalues --    1.73468   1.73693   1.74167   1.74369   1.75615
 Alpha virt. eigenvalues --    1.76378   1.77716   1.79890   1.82127   1.82174
 Alpha virt. eigenvalues --    1.83711   1.83841   1.84312   1.84469   1.86820
 Alpha virt. eigenvalues --    1.86850   1.88296   1.89205   1.90394   1.91230
 Alpha virt. eigenvalues --    1.92885   1.92960   1.94972   1.95147   1.98490
 Alpha virt. eigenvalues --    1.99565   1.99991   2.00758   2.02038   2.02577
 Alpha virt. eigenvalues --    2.03197   2.03570   2.04532   2.05916   2.06113
 Alpha virt. eigenvalues --    2.07795   2.08672   2.11038   2.12618   2.13819
 Alpha virt. eigenvalues --    2.14510   2.15711   2.16376   2.16897   2.17795
 Alpha virt. eigenvalues --    2.17854   2.20719   2.23216   2.23751   2.25084
 Alpha virt. eigenvalues --    2.27205   2.27324   2.29227   2.29624   2.30923
 Alpha virt. eigenvalues --    2.30982   2.31590   2.32680   2.32954   2.33665
 Alpha virt. eigenvalues --    2.34011   2.34470   2.35767   2.36240   2.37036
 Alpha virt. eigenvalues --    2.37698   2.38714   2.40413   2.41690   2.45147
 Alpha virt. eigenvalues --    2.47005   2.47619   2.48640   2.48651   2.49434
 Alpha virt. eigenvalues --    2.52092   2.54431   2.54601   2.54896   2.56111
 Alpha virt. eigenvalues --    2.56460   2.58420   2.58517   2.59051   2.59768
 Alpha virt. eigenvalues --    2.60232   2.60911   2.62758   2.65117   2.65183
 Alpha virt. eigenvalues --    2.66352   2.67913   2.68778   2.69225   2.70095
 Alpha virt. eigenvalues --    2.70510   2.71850   2.71940   2.72390   2.72405
 Alpha virt. eigenvalues --    2.73514   2.75504   2.77013   2.77355   2.78909
 Alpha virt. eigenvalues --    2.82338   2.82438   2.82739   2.83393   2.83840
 Alpha virt. eigenvalues --    2.84327   2.86279   2.86320   2.87737   2.88915
 Alpha virt. eigenvalues --    2.89786   2.90576   2.92373   2.93588   2.93824
 Alpha virt. eigenvalues --    2.94936   2.95070   2.95850   2.96415   2.97174
 Alpha virt. eigenvalues --    2.97368   2.98437   2.98913   3.00075   3.01268
 Alpha virt. eigenvalues --    3.03307   3.03506   3.04909   3.05507   3.06941
 Alpha virt. eigenvalues --    3.08076   3.09256   3.09642   3.11400   3.11410
 Alpha virt. eigenvalues --    3.11819   3.12815   3.12958   3.13402   3.14626
 Alpha virt. eigenvalues --    3.15259   3.16570   3.18818   3.19170   3.19829
 Alpha virt. eigenvalues --    3.20987   3.21343   3.21916   3.22157   3.23047
 Alpha virt. eigenvalues --    3.23167   3.25317   3.25731   3.25770   3.27925
 Alpha virt. eigenvalues --    3.27995   3.29198   3.29634   3.30584   3.30901
 Alpha virt. eigenvalues --    3.31339   3.33129   3.33334   3.33483   3.34242
 Alpha virt. eigenvalues --    3.35692   3.36221   3.36465   3.37229   3.38542
 Alpha virt. eigenvalues --    3.38617   3.39169   3.40458   3.41176   3.41757
 Alpha virt. eigenvalues --    3.43544   3.44719   3.45514   3.46263   3.46786
 Alpha virt. eigenvalues --    3.47813   3.49124   3.49834   3.50066   3.50831
 Alpha virt. eigenvalues --    3.52631   3.54108   3.54268   3.55465   3.55711
 Alpha virt. eigenvalues --    3.58488   3.59558   3.60019   3.61359   3.62127
 Alpha virt. eigenvalues --    3.63157   3.65408   3.68392   3.69898   3.74074
 Alpha virt. eigenvalues --    3.75035   3.76112   3.77153   3.79126   3.80809
 Alpha virt. eigenvalues --    3.81599   3.85052   3.86106   3.87204   3.87836
 Alpha virt. eigenvalues --    3.89739   3.89870   3.90613   3.93487   3.93784
 Alpha virt. eigenvalues --    3.95965   3.97274   3.99301   4.03242   4.04372
 Alpha virt. eigenvalues --    4.05166   4.05431   4.11536   4.12576   4.13220
 Alpha virt. eigenvalues --    4.14708   4.16951   4.17806   4.17974   4.18471
 Alpha virt. eigenvalues --    4.22300   4.23169   4.23289   4.25126   4.27459
 Alpha virt. eigenvalues --    4.29477   4.31141   4.31206   4.38353   4.38574
 Alpha virt. eigenvalues --    4.41845   4.43435   4.43666   4.46839   4.47383
 Alpha virt. eigenvalues --    4.49679   4.55259   4.56961   4.58686   4.60932
 Alpha virt. eigenvalues --    4.62076   4.62191   4.63925   4.66418   4.71107
 Alpha virt. eigenvalues --    4.74975   4.76256   4.78303   4.86635   4.87755
 Alpha virt. eigenvalues --    4.89417   4.89924   5.01418   5.03520   5.12143
 Alpha virt. eigenvalues --    5.16590   5.16872   5.18985   5.22218   5.26015
 Alpha virt. eigenvalues --    5.26664   5.29313   5.29754   5.30044   5.30158
 Alpha virt. eigenvalues --    5.36185   5.39223   5.39305   5.42856   5.45072
 Alpha virt. eigenvalues --    5.47737   5.49237   5.49291   5.49475   5.49810
 Alpha virt. eigenvalues --    5.57848   5.64803   5.66975   5.67288   5.68929
 Alpha virt. eigenvalues --    5.76099   5.76439   5.81015   5.81178   5.83782
 Alpha virt. eigenvalues --    5.86828   5.95401   5.95580   5.99335   5.99703
 Alpha virt. eigenvalues --    6.11231   6.14295   6.15502   6.15879   6.18387
 Alpha virt. eigenvalues --    6.25670   6.27061   6.30565   6.37522   6.37551
 Alpha virt. eigenvalues --    6.38666   6.40917   6.46238   6.47101   6.54082
 Alpha virt. eigenvalues --    6.56998   6.65089   6.65357   6.67970   6.69489
 Alpha virt. eigenvalues --    6.71556   6.74052   6.75462   6.75767   6.78498
 Alpha virt. eigenvalues --    6.78603   6.88666   6.89558   6.90454   6.93650
 Alpha virt. eigenvalues --    6.98824   6.99032   7.04062   7.05561   7.12361
 Alpha virt. eigenvalues --    7.14585   7.18013   7.18307   7.30237   7.34157
 Alpha virt. eigenvalues --    7.40143   7.42953  22.32132  22.49959  22.50931
 Alpha virt. eigenvalues --   22.58467  22.58704  22.76572  22.78805  22.82347
 Alpha virt. eigenvalues --   22.96094  23.34995  23.51951  23.64206  43.96052
 Alpha virt. eigenvalues --   43.96106  44.06890  44.09961  44.35606  44.43061
          Condensed to atoms (all electrons):
               1          2          3          4          5          6
     1  O    8.040516   0.317711  -0.000000  -0.000000   0.000135   0.000012
     2  H    0.317711   0.361007   0.000011  -0.000000   0.000219   0.000046
     3  C   -0.000000   0.000011   4.995408   0.400882   0.488973  -0.032290
     4  H   -0.000000  -0.000000   0.400882   0.453942  -0.032235  -0.002087
     5  C    0.000135   0.000219   0.488973  -0.032235   4.995251   0.400917
     6  H    0.000012   0.000046  -0.032290  -0.002087   0.400917   0.453937
     7  O   -0.027616   0.014481   0.001181  -0.000049   0.024742   0.012734
     8  C   -0.033905  -0.002050   0.000013   0.000000  -0.002109  -0.000136
     9  H    0.007748  -0.000263  -0.000005   0.000000   0.000128   0.000001
    10  H    0.000085  -0.000287  -0.000006  -0.000000  -0.000200  -0.000005
    11  C    0.248894  -0.044051   0.000002   0.000000   0.000112   0.000022
    12  H   -0.037738   0.008662   0.000000  -0.000000   0.000005  -0.000000
    13  H   -0.047087  -0.004870  -0.000011  -0.000000  -0.000017   0.000002
    14  C    0.000933   0.000883  -0.045250   0.003813   0.460073  -0.016418
    15  C   -0.001400  -0.001643   0.000503  -0.000141  -0.048604  -0.012175
    16  O   -0.000000  -0.000000   0.004276   0.000532  -0.000141   0.000003
    17  C    0.000000   0.000001   0.459940  -0.016446  -0.045199   0.003815
    18  C    0.000000   0.000000  -0.048543  -0.012166   0.000472  -0.000143
    19  O    0.003649   0.000969  -0.000143   0.000003   0.004275   0.000531
    20  C   -0.000089  -0.000143  -0.036399  -0.000776  -0.060707   0.006559
    21  H   -0.000001  -0.000007  -0.000724   0.000052   0.005123  -0.000183
    22  C   -0.000002  -0.000000  -0.060727   0.006562  -0.036450  -0.000776
    23  H    0.000000  -0.000000   0.005117  -0.000183  -0.000722   0.000052
    24  O   -0.000000  -0.000000   0.024755   0.012742   0.001198  -0.000049
    25  C   -0.000000   0.000000   0.000115   0.000022   0.000002   0.000000
    26  H   -0.000000  -0.000000  -0.000017   0.000002  -0.000011  -0.000000
    27  H    0.000000   0.000000   0.000005  -0.000000   0.000000  -0.000000
    28  C    0.000000  -0.000000  -0.002110  -0.000136   0.000011   0.000000
    29  H   -0.000000   0.000000  -0.000201  -0.000005  -0.000006  -0.000000
    30  H    0.000000  -0.000000   0.000128   0.000001  -0.000005   0.000000
    31  O   -0.000000   0.000000   0.000134   0.000012  -0.000000  -0.000000
    32  H    0.000000   0.000000   0.000218   0.000046   0.000011  -0.000000
               7          8          9         10         11         12
     1  O   -0.027616  -0.033905   0.007748   0.000085   0.248894  -0.037738
     2  H    0.014481  -0.002050  -0.000263  -0.000287  -0.044051   0.008662
     3  C    0.001181   0.000013  -0.000005  -0.000006   0.000002   0.000000
     4  H   -0.000049   0.000000   0.000000  -0.000000   0.000000  -0.000000
     5  C    0.024742  -0.002109   0.000128  -0.000200   0.000112   0.000005
     6  H    0.012734  -0.000136   0.000001  -0.000005   0.000022  -0.000000
     7  O    8.012281   0.024823   0.000845  -0.000048   0.014466   0.000337
     8  C    0.024823   5.077325   0.379780   0.439574   0.253096  -0.037545
     9  H    0.000845   0.379780   0.557181  -0.019539  -0.038476  -0.006646
    10  H   -0.000048   0.439574  -0.019539   0.505172  -0.063936  -0.000466
    11  C    0.014466   0.253096  -0.038476  -0.063936   4.939150   0.399850
    12  H    0.000337  -0.037545  -0.006646  -0.000466   0.399850   0.575368
    13  H   -0.003717  -0.062276   0.007946   0.009586   0.410092  -0.039178
    14  C   -0.133422   0.007342   0.001524  -0.001355  -0.003072   0.000426
    15  C    0.560922  -0.055267   0.002705  -0.008850   0.006496   0.001751
    16  O    0.000000   0.000000  -0.000000  -0.000000   0.000000  -0.000000
    17  C   -0.000036   0.000010   0.000002   0.000001  -0.000002   0.000000
    18  C   -0.000014  -0.000001   0.000000  -0.000000  -0.000000   0.000000
    19  O   -0.086263   0.190194  -0.035486  -0.032951  -0.042206   0.003807
    20  C    0.004071  -0.000146  -0.000900   0.000727   0.000369  -0.000048
    21  H    0.000295   0.000029  -0.000267   0.000128   0.000029  -0.000000
    22  C    0.000303  -0.000236  -0.000100   0.000015   0.000048  -0.000002
    23  H    0.000005  -0.000004   0.000000  -0.000000   0.000000   0.000000
    24  O    0.000000  -0.000000  -0.000000   0.000000  -0.000000  -0.000000
    25  C   -0.000000   0.000000  -0.000000   0.000000   0.000000   0.000000
    26  H    0.000000  -0.000000  -0.000000   0.000000  -0.000000  -0.000000
    27  H   -0.000000  -0.000000   0.000000   0.000000   0.000000   0.000000
    28  C   -0.000000  -0.000000  -0.000000  -0.000000   0.000000  -0.000000
    29  H    0.000000  -0.000000  -0.000000   0.000000   0.000000   0.000000
    30  H   -0.000000  -0.000000   0.000000  -0.000000  -0.000000   0.000000
    31  O   -0.000000   0.000000   0.000000  -0.000000  -0.000000   0.000000
    32  H   -0.000000  -0.000000  -0.000000   0.000000   0.000000   0.000000
              13         14         15         16         17         18
     1  O   -0.047087   0.000933  -0.001400  -0.000000   0.000000   0.000000
     2  H   -0.004870   0.000883  -0.001643  -0.000000   0.000001   0.000000
     3  C   -0.000011  -0.045250   0.000503   0.004276   0.459940  -0.048543
     4  H   -0.000000   0.003813  -0.000141   0.000532  -0.016446  -0.012166
     5  C   -0.000017   0.460073  -0.048604  -0.000141  -0.045199   0.000472
     6  H    0.000002  -0.016418  -0.012175   0.000003   0.003815  -0.000143
     7  O   -0.003717  -0.133422   0.560922   0.000000  -0.000036  -0.000014
     8  C   -0.062276   0.007342  -0.055267   0.000000   0.000010  -0.000001
     9  H    0.007946   0.001524   0.002705  -0.000000   0.000002   0.000000
    10  H    0.009586  -0.001355  -0.008850  -0.000000   0.000001  -0.000000
    11  C    0.410092  -0.003072   0.006496   0.000000  -0.000002  -0.000000
    12  H   -0.039178   0.000426   0.001751  -0.000000   0.000000   0.000000
    13  H    0.604826  -0.003513  -0.003966   0.000000   0.000002  -0.000000
    14  C   -0.003513   5.191847   0.307030   0.000214  -0.041762  -0.002096
    15  C   -0.003966   0.307030   4.506225  -0.000008  -0.002090  -0.001162
    16  O    0.000000   0.000214  -0.000008   7.967862  -0.150498   0.388548
    17  C    0.000002  -0.041762  -0.002090  -0.150498   5.193559   0.305697
    18  C   -0.000000  -0.002096  -0.001162   0.388548   0.305697   4.507496
    19  O    0.005202  -0.150362   0.388609   0.000000   0.000215  -0.000008
    20  C    0.000564   0.454242  -0.058292   0.000970  -0.045810   0.005857
    21  H    0.000087  -0.019216  -0.011548  -0.000067   0.004580  -0.000127
    22  C   -0.000004  -0.045769   0.005852   0.031279   0.454177  -0.058174
    23  H   -0.000000   0.004579  -0.000127   0.014391  -0.019194  -0.011559
    24  O    0.000000  -0.000037  -0.000014  -0.086269  -0.133524   0.561269
    25  C   -0.000000  -0.000002  -0.000000  -0.042244  -0.003054   0.006511
    26  H    0.000000   0.000002  -0.000000   0.005219  -0.003545  -0.004004
    27  H   -0.000000   0.000000   0.000000   0.003810   0.000428   0.001759
    28  C   -0.000000   0.000010  -0.000001   0.190149   0.007285  -0.055292
    29  H    0.000000   0.000001  -0.000000  -0.032949  -0.001369  -0.008869
    30  H   -0.000000   0.000002   0.000000  -0.035487   0.001510   0.002701
    31  O   -0.000000   0.000000   0.000000   0.003644   0.000944  -0.001404
    32  H   -0.000000   0.000001   0.000000   0.000959   0.000890  -0.001627
              19         20         21         22         23         24
     1  O    0.003649  -0.000089  -0.000001  -0.000002   0.000000  -0.000000
     2  H    0.000969  -0.000143  -0.000007  -0.000000  -0.000000  -0.000000
     3  C   -0.000143  -0.036399  -0.000724  -0.060727   0.005117   0.024755
     4  H    0.000003  -0.000776   0.000052   0.006562  -0.000183   0.012742
     5  C    0.004275  -0.060707   0.005123  -0.036450  -0.000722   0.001198
     6  H    0.000531   0.006559  -0.000183  -0.000776   0.000052  -0.000049
     7  O   -0.086263   0.004071   0.000295   0.000303   0.000005   0.000000
     8  C    0.190194  -0.000146   0.000029  -0.000236  -0.000004  -0.000000
     9  H   -0.035486  -0.000900  -0.000267  -0.000100   0.000000  -0.000000
    10  H   -0.032951   0.000727   0.000128   0.000015  -0.000000   0.000000
    11  C   -0.042206   0.000369   0.000029   0.000048   0.000000  -0.000000
    12  H    0.003807  -0.000048  -0.000000  -0.000002   0.000000  -0.000000
    13  H    0.005202   0.000564   0.000087  -0.000004  -0.000000   0.000000
    14  C   -0.150362   0.454242  -0.019216  -0.045769   0.004579  -0.000037
    15  C    0.388609  -0.058292  -0.011548   0.005852  -0.000127  -0.000014
    16  O    0.000000   0.000970  -0.000067   0.031279   0.014391  -0.086269
    17  C    0.000215  -0.045810   0.004580   0.454177  -0.019194  -0.133524
    18  C   -0.000008   0.005857  -0.000127  -0.058174  -0.011559   0.561269
    19  O    7.967655   0.031271   0.014394   0.000969  -0.000067   0.000000
    20  C    0.031271   5.018634   0.402254   0.476053  -0.033704   0.000303
    21  H    0.014394   0.402254   0.469802  -0.033684  -0.003119   0.000005
    22  C    0.000969   0.476053  -0.033684   5.018540   0.402260   0.004077
    23  H   -0.000067  -0.033704  -0.003119   0.402260   0.469798   0.000295
    24  O    0.000000   0.000303   0.000005   0.004077   0.000295   8.011660
    25  C    0.000000   0.000048   0.000000   0.000368   0.000028   0.014346
    26  H    0.000000  -0.000004  -0.000000   0.000565   0.000087  -0.003691
    27  H   -0.000000  -0.000002   0.000000  -0.000048  -0.000000   0.000333
    28  C    0.000000  -0.000236  -0.000004  -0.000145   0.000028   0.024812
    29  H   -0.000000   0.000015  -0.000000   0.000728   0.000128  -0.000036
    30  H   -0.000000  -0.000100   0.000000  -0.000900  -0.000268   0.000848
    31  O   -0.000000  -0.000002   0.000000  -0.000089  -0.000001  -0.027450
    32  H   -0.000000  -0.000000  -0.000000  -0.000143  -0.000007   0.014481
              25         26         27         28         29         30
     1  O   -0.000000  -0.000000   0.000000   0.000000  -0.000000   0.000000
     2  H    0.000000  -0.000000   0.000000  -0.000000   0.000000  -0.000000
     3  C    0.000115  -0.000017   0.000005  -0.002110  -0.000201   0.000128
     4  H    0.000022   0.000002  -0.000000  -0.000136  -0.000005   0.000001
     5  C    0.000002  -0.000011   0.000000   0.000011  -0.000006  -0.000005
     6  H    0.000000  -0.000000  -0.000000   0.000000  -0.000000   0.000000
     7  O   -0.000000   0.000000  -0.000000  -0.000000   0.000000  -0.000000
     8  C    0.000000  -0.000000  -0.000000  -0.000000  -0.000000  -0.000000
     9  H   -0.000000  -0.000000   0.000000  -0.000000  -0.000000   0.000000
    10  H    0.000000   0.000000   0.000000  -0.000000   0.000000  -0.000000
    11  C    0.000000  -0.000000   0.000000   0.000000   0.000000  -0.000000
    12  H    0.000000  -0.000000   0.000000  -0.000000   0.000000   0.000000
    13  H   -0.000000   0.000000  -0.000000  -0.000000   0.000000  -0.000000
    14  C   -0.000002   0.000002   0.000000   0.000010   0.000001   0.000002
    15  C   -0.000000  -0.000000   0.000000  -0.000001  -0.000000   0.000000
    16  O   -0.042244   0.005219   0.003810   0.190149  -0.032949  -0.035487
    17  C   -0.003054  -0.003545   0.000428   0.007285  -0.001369   0.001510
    18  C    0.006511  -0.004004   0.001759  -0.055292  -0.008869   0.002701
    19  O    0.000000   0.000000  -0.000000   0.000000  -0.000000  -0.000000
    20  C    0.000048  -0.000004  -0.000002  -0.000236   0.000015  -0.000100
    21  H    0.000000  -0.000000   0.000000  -0.000004  -0.000000   0.000000
    22  C    0.000368   0.000565  -0.000048  -0.000145   0.000728  -0.000900
    23  H    0.000028   0.000087  -0.000000   0.000028   0.000128  -0.000268
    24  O    0.014346  -0.003691   0.000333   0.024812  -0.000036   0.000848
    25  C    4.939119   0.410003   0.399879   0.253275  -0.063938  -0.038542
    26  H    0.410003   0.604845  -0.039205  -0.062149   0.009576   0.007960
    27  H    0.399879  -0.039205   0.575473  -0.037577  -0.000458  -0.006660
    28  C    0.253275  -0.062149  -0.037577   5.077295   0.439638   0.379800
    29  H   -0.063938   0.009576  -0.000458   0.439638   0.505104  -0.019534
    30  H   -0.038542   0.007960  -0.006660   0.379800  -0.019534   0.557254
    31  O    0.248846  -0.047105  -0.037760  -0.033845   0.000052   0.007753
    32  H   -0.044026  -0.004832   0.008666  -0.002071  -0.000286  -0.000257
              31         32
     1  O   -0.000000   0.000000
     2  H    0.000000   0.000000
     3  C    0.000134   0.000218
     4  H    0.000012   0.000046
     5  C   -0.000000   0.000011
     6  H   -0.000000  -0.000000
     7  O   -0.000000  -0.000000
     8  C    0.000000  -0.000000
     9  H    0.000000  -0.000000
    10  H   -0.000000   0.000000
    11  C   -0.000000   0.000000
    12  H    0.000000   0.000000
    13  H   -0.000000  -0.000000
    14  C    0.000000   0.000001
    15  C    0.000000   0.000000
    16  O    0.003644   0.000959
    17  C    0.000944   0.000890
    18  C   -0.001404  -0.001627
    19  O   -0.000000  -0.000000
    20  C   -0.000002  -0.000000
    21  H    0.000000  -0.000000
    22  C   -0.000089  -0.000143
    23  H   -0.000001  -0.000007
    24  O   -0.027450   0.014481
    25  C    0.248846  -0.044026
    26  H   -0.047105  -0.004832
    27  H   -0.037760   0.008666
    28  C   -0.033845  -0.002071
    29  H    0.000052  -0.000286
    30  H    0.007753  -0.000257
    31  O    8.040238   0.317666
    32  H    0.317666   0.361133
 Mulliken charges:
               1
     1  O   -0.471845
     2  H    0.349326
     3  C   -0.155234
     4  H    0.185615
     5  C   -0.155241
     6  H    0.185629
     7  O   -0.420319
     8  C   -0.178512
     9  H    0.143820
    10  H    0.172357
    11  C   -0.080885
    12  H    0.131415
    13  H    0.126332
    14  C    0.029353
    15  C    0.425194
    16  O   -0.264194
    17  C    0.029471
    18  C    0.424879
    19  O   -0.264258
    20  C   -0.164580
    21  H    0.172172
    22  C   -0.164549
    23  H    0.172189
    24  O   -0.420053
    25  C   -0.080757
    26  H    0.126306
    27  H    0.131357
    28  C   -0.178736
    29  H    0.172410
    30  H    0.143794
    31  O   -0.471635
    32  H    0.349179
 Sum of Mulliken charges =  -0.00000
 Mulliken charges with hydrogens summed into heavy atoms:
               1
     1  O   -0.122519
     3  C    0.030381
     5  C    0.030388
     7  O   -0.420319
     8  C    0.137665
    11  C    0.176862
    14  C    0.029353
    15  C    0.425194
    16  O   -0.264194
    17  C    0.029471
    18  C    0.424879
    19  O   -0.264258
    20  C    0.007592
    22  C    0.007640
    24  O   -0.420053
    25  C    0.176905
    28  C    0.137468
    31  O   -0.122456
 Electronic spatial extent (au):  <R**2>=          21646.5893
 Charge=             -0.0000 electrons
 Dipole moment (field-independent basis, Debye):
    X=              0.6657    Y=              4.5356    Z=              0.8087  Tot=              4.6549
 Quadrupole moment (field-independent basis, Debye-Ang):
   XX=           -129.1700   YY=            -68.3327   ZZ=           -103.7910
   XY=              3.4911   XZ=             14.3352   YZ=             20.4427
 Traceless Quadrupole moment (field-independent basis, Debye-Ang):
   XX=            -28.7388   YY=             32.0986   ZZ=             -3.3598
   XY=              3.4911   XZ=             14.3352   YZ=             20.4427
 Octapole moment (field-independent basis, Debye-Ang**2):
  XXX=            129.9973  YYY=           -908.0046  ZZZ=          -1214.8630  XYY=             32.4026
  XXY=           -352.0668  XXZ=           -509.3445  XZZ=            104.6376  YZZ=           -246.6260
  YYZ=           -252.3907  XYZ=            -22.7574
 Hexadecapole moment (field-independent basis, Debye-Ang**3):
 XXXX=          -7622.1312 YYYY=          -7577.5051 ZZZZ=         -12676.7997 XXXY=            480.8268
 XXXZ=           3343.7146 YYYX=            287.0367 YYYZ=          -3535.7251 ZZZX=           2967.3628
 ZZZY=          -3523.5993 XXYY=          -2044.9629 XXZZ=          -3998.3614 YYZZ=          -2594.4086
 XXYZ=          -1426.6412 YYXZ=            426.1007 ZZXY=           -202.5451
 N-N= 1.271911117026D+03 E-N=-4.688897056190D+03  KE= 9.127809457017D+02
   1 Symmetry operations used in ECPInt.
 ECPInt:  NShTT=   32385 NPrTT=   99228 LenC2=   26085 LenP2D=   57351.
 LDataN:  DoStor=T MaxTD1= 7 Len=  274
 Calling FoFJK, ICntrl=      2127 FMM=F ISym2X=0 I1Cent= 0 IOpClX= 0 NMat=1 NMatS=1 NMatT=0.
 -------------------------------------------------------------------
 Center     Atomic                   Forces (Hartrees/Bohr)
 Number     Number              X              Y              Z
 -------------------------------------------------------------------
      1        8          -0.000474073   -0.004637527   -0.000580218
      2        1           0.001328732    0.000187358   -0.001015215
      3        6           0.000152348    0.000671879    0.000009430
      4        1           0.003377846    0.004956044   -0.001407937
      5        6           0.000051278    0.000685384    0.000228040
      6        1          -0.001929545    0.004913638    0.003158406
      7        8          -0.001414894    0.000775575    0.000895995
      8        6           0.002006787    0.001757116   -0.008164651
      9        1          -0.001038724   -0.005375086    0.000394617
     10        1           0.001217618    0.001685439    0.005317717
     11        6           0.004046162    0.010830553    0.006928239
     12        1          -0.004328008   -0.003505274    0.001251842
     13        1          -0.000591968   -0.001592840   -0.006077395
     14        6          -0.003215458   -0.000130504    0.002719378
     15        6          -0.000598375   -0.001259388    0.000451377
     16        8           0.002344595    0.001311892   -0.001672385
     17        6           0.003192306   -0.000056492   -0.002758824
     18        6           0.000266039   -0.001179617   -0.000874537
     19        8          -0.001962399    0.001279918    0.002146076
     20        6           0.000065657   -0.000759517   -0.000241904
     21        1          -0.003421777   -0.004921802    0.001453922
     22        6          -0.000293413   -0.000781933   -0.000030878
     23        1           0.001982439   -0.004877419   -0.003192157
     24        8           0.001633366    0.000601505   -0.000664765
     25        6          -0.000475919    0.013203942   -0.002672103
     26        1          -0.000181265   -0.003652135    0.005139420
     27        1           0.003228988   -0.003937570   -0.002570849
     28        6          -0.001853064   -0.000594248    0.008368277
     29        1          -0.000435592    0.003655394   -0.004379086
     30        1          -0.000483805   -0.004991115   -0.002241141
     31        8          -0.000860245   -0.004503933   -0.001026068
     32        1          -0.001335639    0.000240763    0.001107376
 -------------------------------------------------------------------
 Cartesian Forces:  Max     0.013203942 RMS     0.003310944

 GradGradGradGradGradGradGradGradGradGradGradGradGradGradGradGradGradGrad
 Berny optimization.
 FormGI is forming the generalized inverse of G from B-inverse, IUseBI=4.
 Internal  Forces:  Max     0.006875638 RMS     0.002326645
 Search for a local minimum.
 Step number   1 out of a maximum of  160
 All quantities printed in internal units (Hartrees-Bohrs-Radians)
 Mixed Optimization -- RFO/linear search
 Second derivative matrix not updated -- first step.
 ITU=  0
     Eigenvalues ---    0.00219   0.00245   0.00544   0.00644   0.00753
     Eigenvalues ---    0.01044   0.01391   0.01403   0.01768   0.01843
     Eigenvalues ---    0.02173   0.02218   0.02236   0.02239   0.02269
     Eigenvalues ---    0.02272   0.02273   0.03649   0.03859   0.04870
     Eigenvalues ---    0.05139   0.05684   0.05782   0.06027   0.06121
     Eigenvalues ---    0.06238   0.06467   0.06985   0.07315   0.11724
     Eigenvalues ---    0.11993   0.12052   0.12133   0.12967   0.13446
     Eigenvalues ---    0.14137   0.14585   0.15911   0.15992   0.16000
     Eigenvalues ---    0.16015   0.17106   0.18396   0.21855   0.22242
     Eigenvalues ---    0.22874   0.23027   0.23174   0.24069   0.24551
     Eigenvalues ---    0.24870   0.24950   0.25272   0.25720   0.27447
     Eigenvalues ---    0.29736   0.30788   0.31798   0.33305   0.33577
     Eigenvalues ---    0.34398   0.34521   0.34560   0.34597   0.34784
     Eigenvalues ---    0.34925   0.34974   0.35641   0.35772   0.35815
     Eigenvalues ---    0.35866   0.37422   0.39607   0.40361   0.42978
     Eigenvalues ---    0.43502   0.44958   0.45936   0.46967   0.47541
     Eigenvalues ---    0.48014   0.50544   0.54608   0.55612   0.55804
     Eigenvalues ---    0.59197   0.78533   0.95619   1.03025   1.05056
 RFO step:  Lambda=-2.21817461D-03 EMin= 2.18974457D-03
 Linear search not attempted -- first point.
 Iteration  1 RMS(Cart)=  0.01810731 RMS(Int)=  0.00017503
 Iteration  2 RMS(Cart)=  0.00026761 RMS(Int)=  0.00001624
 Iteration  3 RMS(Cart)=  0.00000011 RMS(Int)=  0.00001624
 Variable       Old X    -DE/DX   Delta X   Delta X   Delta X     New X
                                 (Linear)    (Quad)   (Total)
    R1        1.82920  -0.00145   0.00000  -0.00292  -0.00292   1.82628
    R2        2.63076   0.00471   0.00000   0.01137   0.01137   2.64213
    R3        2.06054  -0.00615   0.00000  -0.01644  -0.01644   2.04410
    R4        2.62510  -0.00688   0.00000  -0.01349  -0.01349   2.61161
    R5        2.64263  -0.00662   0.00000  -0.01426  -0.01426   2.62837
    R6        2.06056  -0.00614   0.00000  -0.01675  -0.01675   2.04382
    R7        2.64253  -0.00663   0.00000  -0.01281  -0.01281   2.62972
    R8        2.28290  -0.00146   0.00000  -0.00224  -0.00224   2.28066
    R9        2.07089  -0.00547   0.00000  -0.01522  -0.01522   2.05567
   R10        2.08054  -0.00564   0.00000  -0.01596  -0.01596   2.06458
   R11        2.88756  -0.00061   0.00000  -0.00412  -0.00412   2.88343
   R12        2.71276   0.00285   0.00000   0.00380   0.00380   2.71656
   R13        2.07952  -0.00564   0.00000  -0.01675  -0.01675   2.06277
   R14        2.09573  -0.00601   0.00000  -0.01764  -0.01764   2.07809
   R15        2.82451  -0.00239   0.00000  -0.00482  -0.00482   2.81969
   R16        2.64243  -0.00670   0.00000  -0.01394  -0.01394   2.62849
   R17        2.50723   0.00064   0.00000   0.00260   0.00260   2.50983
   R18        2.50727   0.00067   0.00000   0.00052   0.00052   2.50779
   R19        2.71260   0.00289   0.00000   0.00524   0.00524   2.71784
   R20        2.82452  -0.00237   0.00000  -0.00483  -0.00483   2.81968
   R21        2.64233  -0.00671   0.00000  -0.01243  -0.01243   2.62990
   R22        2.28292  -0.00146   0.00000  -0.00154  -0.00154   2.28138
   R23        2.05863  -0.00615   0.00000  -0.01666  -0.01666   2.04197
   R24        2.62888  -0.00668   0.00000  -0.01287  -0.01287   2.61600
   R25        2.05865  -0.00614   0.00000  -0.01716  -0.01716   2.04149
   R26        2.09573  -0.00600   0.00000  -0.01739  -0.01739   2.07834
   R27        2.07952  -0.00563   0.00000  -0.01520  -0.01520   2.06432
   R28        2.88751  -0.00059   0.00000  -0.00549  -0.00549   2.88201
   R29        2.63070   0.00470   0.00000   0.01004   0.01004   2.64075
   R30        2.08053  -0.00565   0.00000  -0.01590  -0.01590   2.06463
   R31        2.07089  -0.00548   0.00000  -0.01544  -0.01544   2.05545
   R32        1.82904  -0.00153   0.00000  -0.00283  -0.00283   1.82621
    A1        1.87121   0.00144   0.00000   0.00634   0.00634   1.87755
    A2        2.12123  -0.00040   0.00000  -0.00254  -0.00255   2.11869
    A3        2.07218   0.00029   0.00000   0.00204   0.00204   2.07423
    A4        2.08977   0.00010   0.00000   0.00050   0.00050   2.09027
    A5        2.12108  -0.00041   0.00000  -0.00313  -0.00313   2.11795
    A6        2.08977   0.00012   0.00000   0.00162   0.00162   2.09139
    A7        2.07233   0.00029   0.00000   0.00151   0.00151   2.07385
    A8        1.90876   0.00010   0.00000   0.00179   0.00176   1.91052
    A9        1.93498  -0.00088   0.00000   0.00269   0.00266   1.93765
   A10        1.80419  -0.00067   0.00000  -0.00314  -0.00314   1.80105
   A11        1.90347   0.00099   0.00000   0.00698   0.00696   1.91044
   A12        1.90853  -0.00071   0.00000  -0.00277  -0.00276   1.90577
   A13        2.00083   0.00104   0.00000  -0.00588  -0.00588   1.99495
   A14        1.99691   0.00141   0.00000  -0.00215  -0.00214   1.99477
   A15        1.86328  -0.00106   0.00000  -0.00523  -0.00523   1.85805
   A16        1.97675  -0.00159   0.00000  -0.01607  -0.01607   1.96068
   A17        1.87748   0.00001   0.00000   0.00758   0.00754   1.88503
   A18        1.88171   0.00078   0.00000   0.00914   0.00908   1.89079
   A19        1.86050   0.00043   0.00000   0.00849   0.00837   1.86887
   A20        2.05442   0.00002   0.00000   0.00053   0.00053   2.05495
   A21        2.10443  -0.00020   0.00000  -0.00191  -0.00191   2.10251
   A22        2.12434   0.00018   0.00000   0.00138   0.00138   2.12572
   A23        2.15070  -0.00093   0.00000  -0.00031  -0.00031   2.15039
   A24        2.16067   0.00147   0.00000  -0.00164  -0.00164   2.15903
   A25        1.97181  -0.00054   0.00000   0.00195   0.00195   1.97377
   A26        2.06700   0.00156   0.00000  -0.00514  -0.00514   2.06185
   A27        2.05452   0.00006   0.00000   0.00025   0.00025   2.05478
   A28        2.10442  -0.00020   0.00000  -0.00190  -0.00190   2.10252
   A29        2.12424   0.00014   0.00000   0.00165   0.00165   2.12589
   A30        1.97163  -0.00066   0.00000   0.00316   0.00316   1.97480
   A31        2.16070   0.00155   0.00000  -0.00069  -0.00069   2.16002
   A32        2.15085  -0.00089   0.00000  -0.00247  -0.00247   2.14837
   A33        2.06706   0.00126   0.00000  -0.00656  -0.00656   2.06050
   A34        2.08531   0.00046   0.00000   0.00285   0.00285   2.08816
   A35        2.08898   0.00008   0.00000   0.00032   0.00032   2.08930
   A36        2.10890  -0.00053   0.00000  -0.00317  -0.00317   2.10573
   A37        2.08900   0.00009   0.00000   0.00138   0.00137   2.09037
   A38        2.08542   0.00045   0.00000   0.00270   0.00270   2.08811
   A39        2.10877  -0.00055   0.00000  -0.00407  -0.00407   2.10470
   A40        1.86055   0.00044   0.00000   0.00866   0.00860   1.86915
   A41        1.88158   0.00077   0.00000   0.00707   0.00704   1.88862
   A42        1.97667  -0.00160   0.00000  -0.01534  -0.01534   1.96133
   A43        1.87757  -0.00001   0.00000   0.00346   0.00344   1.88102
   A44        1.86327  -0.00111   0.00000  -0.00362  -0.00363   1.85964
   A45        1.99699   0.00148   0.00000   0.00112   0.00113   1.99812
   A46        2.00059   0.00116   0.00000   0.00304   0.00303   2.00362
   A47        1.90861  -0.00074   0.00000  -0.00741  -0.00743   1.90117
   A48        1.80416  -0.00072   0.00000  -0.00339  -0.00339   1.80077
   A49        1.90386   0.00099   0.00000   0.01025   0.01025   1.91411
   A50        1.93476  -0.00092   0.00000  -0.00512  -0.00511   1.92965
   A51        1.90876   0.00011   0.00000   0.00175   0.00174   1.91050
   A52        1.87133   0.00145   0.00000   0.00700   0.00700   1.87833
    D1       -0.90761  -0.00006   0.00000   0.02449   0.02447  -0.88315
    D2       -2.98242  -0.00019   0.00000   0.01988   0.01990  -2.96252
    D3        1.25854   0.00084   0.00000   0.02178   0.02179   1.28033
    D4        0.00069   0.00000   0.00000   0.00157   0.00157   0.00227
    D5        3.14156  -0.00001   0.00000   0.00060   0.00060  -3.14102
    D6        3.14154  -0.00000   0.00000   0.00210   0.00210  -3.13955
    D7       -0.00078  -0.00001   0.00000   0.00113   0.00113   0.00035
    D8        0.00019  -0.00000   0.00000   0.00103   0.00103   0.00121
    D9        3.14110   0.00001   0.00000  -0.00064  -0.00064   3.14046
   D10       -3.14068   0.00001   0.00000   0.00052   0.00052  -3.14017
   D11        0.00023   0.00001   0.00000  -0.00115  -0.00115  -0.00092
   D12       -3.14086   0.00002   0.00000   0.00089   0.00089  -3.13997
   D13        0.00020   0.00002   0.00000  -0.00019  -0.00019   0.00001
   D14        0.00003   0.00001   0.00000  -0.00006  -0.00006  -0.00003
   D15        3.14109   0.00000   0.00000  -0.00114  -0.00114   3.13995
   D16       -2.57527  -0.00005   0.00000   0.01398   0.01397  -2.56131
   D17       -0.50850  -0.00052   0.00000   0.01133   0.01129  -0.49721
   D18        1.49189   0.00038   0.00000   0.02950   0.02953   1.52142
   D19       -0.47263   0.00017   0.00000   0.02238   0.02239  -0.45024
   D20        1.59415  -0.00031   0.00000   0.01973   0.01971   1.61386
   D21       -2.68865   0.00059   0.00000   0.03790   0.03795  -2.65070
   D22        1.67355   0.00074   0.00000   0.01997   0.01996   1.69351
   D23       -2.54286   0.00027   0.00000   0.01731   0.01728  -2.52558
   D24       -0.54247   0.00117   0.00000   0.03548   0.03552  -0.50695
   D25        3.00846  -0.00026   0.00000  -0.02430  -0.02431   2.98415
   D26        0.97684   0.00028   0.00000  -0.02354  -0.02353   0.95330
   D27       -1.16662  -0.00121   0.00000  -0.02636  -0.02635  -1.19297
   D28        0.01468   0.00013   0.00000   0.00688   0.00688   0.02155
   D29       -3.12534  -0.00011   0.00000   0.00438   0.00437  -3.12097
   D30       -3.12638   0.00013   0.00000   0.00798   0.00798  -3.11840
   D31        0.01679  -0.00011   0.00000   0.00548   0.00548   0.02226
   D32       -3.14140  -0.00000   0.00000  -0.00014  -0.00014  -3.14155
   D33        0.00092  -0.00001   0.00000  -0.00073  -0.00073   0.00019
   D34       -0.00036  -0.00001   0.00000  -0.00127  -0.00127  -0.00164
   D35       -3.14122  -0.00001   0.00000  -0.00186  -0.00186   3.14010
   D36        0.08273  -0.00054   0.00000  -0.01318  -0.01318   0.06955
   D37       -3.06045  -0.00029   0.00000  -0.01066  -0.01067  -3.07111
   D38       -3.05991  -0.00033   0.00000  -0.00737  -0.00737  -3.06728
   D39        0.08312  -0.00056   0.00000  -0.00982  -0.00982   0.07330
   D40       -1.16900  -0.00127   0.00000  -0.01490  -0.01489  -1.18389
   D41        0.97486   0.00028   0.00000  -0.00501  -0.00504   0.96982
   D42        3.00651  -0.00028   0.00000  -0.00800  -0.00798   2.99853
   D43       -3.12503  -0.00010   0.00000   0.00543   0.00543  -3.11960
   D44        0.01514   0.00012   0.00000   0.00787   0.00787   0.02301
   D45        0.01725  -0.00011   0.00000   0.00712   0.00712   0.02438
   D46       -3.12577   0.00012   0.00000   0.00956   0.00956  -3.11621
   D47        0.00089  -0.00001   0.00000   0.00023   0.00023   0.00112
   D48       -3.14140  -0.00001   0.00000  -0.00082  -0.00082   3.14097
   D49       -3.14140  -0.00000   0.00000  -0.00151  -0.00151   3.14027
   D50       -0.00051  -0.00000   0.00000  -0.00255  -0.00256  -0.00307
   D51       -0.00146   0.00001   0.00000   0.00071   0.00071  -0.00075
   D52        3.14084   0.00001   0.00000   0.00176   0.00176  -3.14058
   D53        3.14088  -0.00000   0.00000   0.00011   0.00011   3.14099
   D54       -0.00001  -0.00000   0.00000   0.00116   0.00116   0.00116
   D55       -0.54184   0.00119   0.00000   0.02721   0.02723  -0.51460
   D56       -2.68825   0.00058   0.00000   0.02685   0.02686  -2.66140
   D57        1.49218   0.00038   0.00000   0.02127   0.02129   1.51346
   D58       -2.54227   0.00030   0.00000   0.01193   0.01192  -2.53035
   D59        1.59450  -0.00032   0.00000   0.01157   0.01154   1.60604
   D60       -0.50826  -0.00052   0.00000   0.00598   0.00597  -0.50229
   D61        1.67404   0.00080   0.00000   0.01341   0.01342   1.68746
   D62       -0.47238   0.00018   0.00000   0.01305   0.01304  -0.45934
   D63       -2.57513  -0.00002   0.00000   0.00747   0.00747  -2.56766
   D64        1.26070   0.00086   0.00000   0.01479   0.01478   1.27549
   D65       -2.98024  -0.00020   0.00000   0.01452   0.01453  -2.96571
   D66       -0.90528  -0.00009   0.00000   0.01703   0.01701  -0.88827
         Item               Value     Threshold  Converged?
 Maximum Force            0.006876     0.000450     NO 
 RMS     Force            0.002327     0.000300     NO 
 Maximum Displacement     0.069416     0.001800     NO 
 RMS     Displacement     0.018098     0.001200     NO 
 Predicted change in Energy=-1.131124D-03
 GradGradGradGradGradGradGradGradGradGradGradGradGradGradGradGradGradGrad

                          Input orientation:                          
 ---------------------------------------------------------------------
 Center     Atomic      Atomic             Coordinates (Angstroms)
 Number     Number       Type             X           Y           Z
 ---------------------------------------------------------------------
      1          8           0        4.900346    2.605255    0.532555
      2          1           0        4.064404    2.153933    0.709997
      3          6           0       -0.928530    2.250370    4.092038
      4          1           0       -1.487546    1.347942    4.299836
      5          6           0        0.116593    2.257619    3.187825
      6          1           0        0.407814    1.361291    2.657240
      7          8           0        2.240325    2.394964    1.353340
      8          6           0        3.587448    4.661247    0.828355
      9          1           0        3.802270    5.727313    0.801945
     10          1           0        3.192397    4.345380   -0.140036
     11          6           0        4.843651    3.857666    1.151497
     12          1           0        5.706394    4.420474    0.790316
     13          1           0        4.938111    3.788189    2.244903
     14          6           0        0.814263    3.437100    2.945756
     15          6           0        1.932689    3.392455    1.959074
     16          8           0       -2.682061    4.535665    6.281031
     17          6           0       -1.276708    3.422841    4.754311
     18          6           0       -2.410815    3.363010    5.722103
     19          8           0        2.549604    4.560125    1.817890
     20          6           0        0.467352    4.610204    3.607716
     21          1           0        1.018071    5.518537    3.409584
     22          6           0       -0.579369    4.602915    4.513635
     23          1           0       -0.861489    5.506038    5.035030
     24          8           0       -3.014983    2.347043    5.967562
     25          6           0       -5.112363    4.310139    6.807495
     26          1           0       -5.182254    4.642960    5.761585
     27          1           0       -5.793948    4.934717    7.389441
     28          6           0       -3.695216    4.582800    7.300721
     29          1           0       -3.437339    3.872373    8.089684
     30          1           0       -3.613056    5.596961    7.685185
     31          8           0       -5.540202    2.990478    6.975547
     32          1           0       -4.860854    2.412996    6.602842
 ---------------------------------------------------------------------
                    Distance matrix (angstroms):
                    1          2          3          4          5
     1  O    0.000000
     2  H    0.966425   0.000000
     3  C    6.838981   6.031326   0.000000
     4  H    7.521862   6.660383   1.081691   0.000000
     5  C    5.482299   4.662144   1.382005   2.153449   0.000000
     6  H    5.122946   4.217901   2.152887   2.508124   1.081542
     7  O    2.791707   1.949167   4.190825   4.865707   2.809703
     8  C    2.457296   2.555019   6.071080   6.984607   4.836461
     9  H    3.320480   3.584162   6.730105   7.706898   5.596017
    10  H    2.529328   2.507068   6.267500   7.113295   4.989386
    11  C    1.398154   1.924800   6.674448   7.502986   5.389977
    12  H    2.002791   2.799963   7.722236   8.573794   6.455374
    13  H    2.081560   2.406261   6.339896   7.174024   5.145754
    14  C    4.817840   4.148319   2.399920   3.390640   1.391588
    15  C    3.385503   2.763754   3.747061   4.621386   2.468984
    16  O    9.708983   9.067737   3.617891   3.938728   4.752881
    17  C    7.526465   6.818657   1.390871   2.134528   2.398523
    18  C    8.997704   8.277169   2.468248   2.633585   3.745964
    19  O    3.316563   3.051525   4.754380   5.725098   3.619088
    20  C    5.755682   5.231522   2.784218   3.865619   2.415366
    21  H    5.642391   5.280954   3.864701   4.946163   3.390490
    22  C    7.061652   6.483040   2.415393   3.386052   2.782544
    23  H    7.866738   7.362536   3.390147   4.268749   3.862775
    24  O    9.605124   8.820260   2.807173   2.472363   4.188282
    25  C   11.938838  11.226832   5.396370   5.310581   6.682577
    26  H   11.539230  10.826563   5.158104   5.161853   6.355460
    27  H   12.915542  12.228444   6.461492   6.399666   7.730131
    28  C   11.117664  10.466553   4.836365   4.933906   6.070607
    29  H   11.323992  10.662503   4.990610   4.953523   6.266266
[...]
 .00000603,-0.00008907,0.00003545,0.00008613,0.00004965,0.00001681,-0.0
 0004329,-0.00000576,-0.00000388,0.00000243,-0.00000643,0.00000124,0.00
 000478,0.00000587,-0.00000734,0.00000277,-0.00000655,0.00000040,0.0000
 0275,0.00000419,0.00000117,0.00000176,-0.00009340,0.00002963,0.0000894
 6,0.00019682,0.00004067,-0.00016192,-0.00731292,0.00143140,-0.00049194
 ,0.00009183,0.00017600,0.00032405,-0.00001839,-0.00317102,-0.00139960,
 -0.00010842,-0.00007270,0.00007011,0.00003652,0.00000452,-0.00001333,-
 0.00000856,-0.00000240,0.00000622,-0.00005006,0.00003731,0.00005122,0.
 00002706,0.00005809,-0.00003838,0.00066719,0.00111286,-0.00009524,-0.1
 6167702,0.10103783,0.08860921,0.00268123,-0.00196260,-0.00164361,0.172
 53193,0.00000226,0.00000088,-0.00000028,-0.00000227,-0.00000038,0.0000
 0070,-0.00002775,-0.00003443,0.00001519,-0.00001009,0.00000748,0.00000
 954,-0.00001667,0.00001983,0.00000872,-0.00000518,-0.00000124,0.000003
 84,0.00000353,0.00000245,-0.00000078,-0.00000367,-0.00000127,0.0000029
 3,0.00000030,0.00000036,-0.00000018,0.00000028,-0.00000013,-0.00000023
 ,-0.00000067,-0.00000034,-0.00000052,0.00000056,0.00000013,-0.00000026
 ,-0.00000030,-0.00000017,0.00000003,0.00000274,0.00001692,0.00000257,-
 0.00000830,-0.00000420,0.00000402,-0.00265210,0.00165146,0.00069616,0.
 00011627,0.00019921,0.00012970,-0.00056016,-0.00170444,-0.00010810,0.0
 0000809,0.00000627,-0.00000436,0.00002064,0.00000572,-0.00001440,0.000
 00144,-0.00000004,-0.00000050,0.00000473,-0.00000970,-0.00001203,0.000
 00662,0.00000888,-0.00001020,0.00085908,0.00098708,-0.00032680,0.09401
 545,-0.12498986,-0.07392532,-0.00430928,0.00580736,0.00256192,-0.10022
 234,0.15841321,0.00001058,-0.00000068,-0.00000424,-0.00001211,0.000001
 77,0.00000534,-0.00001357,0.00000404,0.00002554,-0.00000819,0.00001315
 ,0.00000528,-0.00001029,0.00001759,0.00000758,-0.00000348,0.00000029,0
 .00000034,0.00003352,-0.00000895,-0.00002837,-0.00002102,-0.00000752,0
 .00001790,0.00000239,0.00000174,-0.00000081,0.00000237,-0.00000067,-0.
 00000186,-0.00000251,0.00000201,-0.00000071,0.00000280,-0.00000006,-0.
 00000119,-0.00000167,-0.00000049,-0.00000084,0.00002760,0.00000851,-0.
 00002183,-0.00007575,-0.00001800,0.00005683,-0.00241975,0.00050754,0.0
 0107077,0.00003561,0.00013143,0.00005393,-0.00108215,-0.00079679,-0.00
 003641,0.00004436,0.00003075,-0.00002785,0.00000639,0.00000213,0.00000
 119,0.00000225,-0.00000011,-0.00000204,-0.00000177,-0.00003431,-0.0000
 0030,-0.00000135,0.00000189,-0.00001117,0.00045911,0.00028087,0.000024
 04,0.09023496,-0.07994656,-0.12541976,0.02109480,-0.01690361,-0.015500
 10,-0.09591990,0.08489770,0.12594989,0.00018398,-0.00005327,-0.0000770
 1,-0.00020964,0.00005124,0.00009278,0.00052840,0.00051653,0.00006115,-
 0.00006036,0.00007793,0.00023576,0.00014331,0.00003340,-0.00049957,0.0
 0005195,0.00000233,-0.00008015,0.00063774,-0.00026257,-0.00059202,-0.0
 0035474,-0.00011353,0.00031680,0.00003876,0.00002544,-0.00001508,0.000
 04475,-0.00001012,-0.00003437,-0.00004355,0.00006394,-0.00001083,0.000
 04521,-0.00000304,-0.00001904,-0.00002982,-0.00000749,-0.00001555,0.00
 051137,-0.00017408,-0.00050220,-0.00134519,-0.00023116,0.00105783,-0.1
 2392287,-0.00584266,0.06335655,0.00458154,-0.00272751,-0.00030653,-0.0
 0925975,0.02872066,0.01855247,0.00075182,0.00046008,-0.00049443,-0.000
 01993,-0.00013816,0.00010724,0.00005534,0.00001708,-0.00002068,0.00019
 626,-0.00006780,-0.00042406,-0.00043020,-0.00032487,0.00011961,-0.0057
 9699,-0.01284890,-0.00400861,-0.16798032,-0.01580915,-0.04853656,-0.00
 675657,0.00257852,0.00080694,-0.01730885,-0.00213527,-0.00813744,0.445
 87518,-0.00005473,0.00000066,0.00001970,0.00006327,-0.00001011,-0.0000
 2896,0.00094875,0.00031181,-0.00079372,-0.00000674,-0.00004475,-0.0000
 5356,-0.00009260,-0.00049520,0.00000202,0.00007270,0.00001479,-0.00005
 061,-0.00020141,0.00008471,0.00018489,0.00010709,0.00004131,-0.0000931
 0,-0.00001309,-0.00000939,0.00000593,-0.00001384,0.00000261,0.00001030
 ,0.00001100,-0.00000838,0.00000807,-0.00001471,0.00000069,0.00000663,0
 .00000933,0.00000305,0.00000341,-0.00028179,0.00011213,0.00030160,0.00
 046383,0.00011757,-0.00033817,-0.01813206,-0.08519435,0.01357883,-0.00
 126360,-0.00421818,-0.00168240,0.03179255,-0.00621993,-0.03286012,-0.0
 0023546,-0.00016748,0.00014675,0.00012205,0.00028179,-0.00010396,-0.00
 001673,-0.00000080,0.00000224,-0.00063220,-0.00019477,0.00052060,0.000
 24749,0.00062350,0.00011151,0.00117620,0.00258957,0.00080653,-0.004088
 83,-0.08080567,-0.00440140,0.00773643,0.00448942,0.00187508,0.01422028
 ,0.00176146,0.00599083,-0.00542749,0.65458161,-0.00020522,0.00005881,0
 .00006943,0.00023158,-0.00005717,-0.00009129,0.00001869,-0.00050666,0.
 00028151,0.00020150,-0.00013453,-0.00007716,-0.00049961,0.00003003,0.0
 0005001,-0.00008166,0.00001627,0.00001665,-0.00068154,0.00028548,0.000
 65355,0.00038893,0.00012094,-0.00033104,-0.00004058,-0.00002719,0.0000
 1837,-0.00004955,0.00000741,0.00003529,0.00005273,-0.00006827,0.000021
 54,-0.00004917,0.00000357,0.00002069,0.00003105,0.00000878,0.00001188,
 -0.00059790,0.00017176,0.00058894,0.00142901,0.00027057,-0.00118088,0.
 06007601,-0.00093796,-0.13228677,0.00048603,0.00002107,0.00559389,0.01
 830859,-0.03241373,-0.02755890,-0.00081629,-0.00049912,0.00052992,0.00
 013957,0.00020118,-0.00000551,-0.00003134,-0.00002770,0.00005336,-0.00
 062687,0.00002351,0.00034379,0.00033555,0.00063601,-0.00031937,0.00169
 454,0.01531666,-0.00253263,-0.04065819,-0.00530625,-0.10146338,-0.0324
 0930,-0.00237431,-0.01392533,0.01688855,0.00120555,0.00566091,0.043213
 94,-0.00986452,0.52094430,-0.00002780,0.00000542,0.00000782,0.00003209
 ,-0.00000739,-0.00001259,-0.00003846,-0.00010961,-0.00004988,0.0000106
 3,0.00000247,-0.00002048,-0.00003291,-0.00002246,0.00008075,-0.0000065
 4,-0.00000162,0.00001313,-0.00010387,0.00004495,0.00009235,0.00005253,
 0.00001695,-0.00004593,-0.00000607,-0.00000392,0.00000288,-0.00000753,
 0.00000131,0.00000495,0.00000643,-0.00000725,0.00000657,-0.00000677,0.
 00000072,0.00000266,0.00000432,0.00000097,0.00000096,-0.00010947,0.000
 04845,0.00011973,0.00022825,0.00004013,-0.00016642,-0.00296178,-0.0145
 4769,0.02954203,-0.00071888,0.00025622,-0.00032517,0.00141827,-0.00542
 402,-0.00109870,-0.00011724,-0.00007489,0.00007247,0.00001433,0.000045
 62,-0.00005276,-0.00001070,-0.00000405,0.00000632,-0.00009399,-0.00000
 094,0.00009181,0.00012298,0.00008642,0.00001642,0.00060689,0.00171021,
 0.00003410,-0.00695687,0.01974021,-0.02427188,-0.00478671,-0.00126596,
 -0.00110599,-0.00034447,-0.00000318,0.00025137,-0.06433521,0.04827466,
 -0.04982164,0.07350232,-0.00000538,0.00000025,-0.00000219,0.00000487,-
 0.00000057,0.00000039,-0.00001463,0.00001615,0.00000645,0.00001674,-0.
 00000841,-0.00001878,-0.00000319,0.00002485,-0.00001040,0.00000008,0.0
 0000047,-0.00000115,-0.00000721,-0.00000412,0.00000174,0.00000825,0.00
 000089,-0.00000383,0.00000015,-0.00000042,0.00000071,-0.00000083,-0.00
 000036,0.00000010,0.00000254,-0.00000004,0.00000316,-0.00000090,-0.000
 00004,0.00000053,0.00000035,0.00000045,-0.00000111,0.00002195,-0.00002
 924,-0.00002342,0.00000077,0.00000617,0.,-0.00373963,0.00500838,-0.003
 33049,0.00039381,-0.00013716,0.00058202,0.00044093,0.00145798,-0.00187
 884,-0.00001395,-0.00000385,0.00000614,-0.00006676,0.00001099,0.000022
 06,0.00000513,-0.00000278,0.00000782,0.00000603,-0.00001011,-0.0000508
 3,0.00003492,-0.00000400,-0.00000103,-0.00016220,-0.00047358,-0.000155
 47,-0.00353536,0.00294028,-0.00481560,-0.00089674,-0.00019157,-0.00098
 226,0.00011979,0.00003625,0.00027810,0.04522445,-0.17326778,0.12906666
 ,-0.04584287,0.17955435,0.00001875,-0.00000572,-0.00000539,-0.00002140
 ,0.00000601,0.00000796,-0.00001170,0.00014142,0.00010298,0.00001098,-0
 .00002674,-0.00000378,0.00006977,0.00001857,-0.00011859,0.00000560,0.0
 0000374,-0.00001270,0.00007003,-0.00003172,-0.00006142,-0.00003413,-0.
 00001084,0.00002939,0.00000361,0.00000232,-0.00000180,0.00000443,-0.00
 000057,-0.00000298,-0.00000471,0.00000619,-0.00000324,0.00000436,-0.00
 000049,-0.00000171,-0.00000265,-0.00000069,-0.00000075,0.00005507,-0.0
 0009899,-0.00007859,-0.00014474,-0.00002934,0.00010356,0.00692168,0.01
 125847,-0.02802197,0.00057890,-0.00047456,0.00014122,0.00030569,0.0083
 8097,0.00107236,0.00007281,0.00004356,-0.00004485,-0.00007036,-0.00004
 301,0.00007833,0.00000281,0.00000251,-0.00000035,0.00006304,0.00003122
 ,-0.00004695,-0.00011637,-0.00010604,-0.00001097,-0.00196588,-0.002606
 57,0.00110631,-0.00642799,0.00979538,-0.00803893,-0.00156883,0.0000746
 2,-0.00004313,-0.00105746,-0.00026901,-0.00074177,-0.04471900,0.120208
 34,-0.17799898,0.04274210,-0.13779733,0.20005565,-0.00001832,0.0000018
 1,0.00000362,0.00002112,-0.00000442,-0.00000792,-0.00028768,-0.0001824
 4,0.00016886,0.00001555,-0.00000995,-0.00002013,-0.00001700,0.00008934
 ,0.00004525,-0.00002686,-0.00000535,0.00002392,-0.00006385,0.00001931,
 0.00005631,0.00003375,0.00001120,-0.00002808,-0.00000412,-0.00000274,0
 .00000269,-0.00000481,0.00000020,0.00000288,0.00000435,-0.00000346,0.0
 0000571,-0.00000450,0.00000046,0.00000189,0.00000273,0.00000108,0.,-0.
 00005791,0.00001935,0.00005885,0.00014591,0.00002937,-0.00011260,-0.00
 726015,0.02831832,0.01988759,-0.00003806,0.00110711,0.00028230,-0.0026
 9765,-0.00277817,0.00307119,-0.00008012,-0.00005610,0.00004666,0.00000
 312,-0.00006106,-0.00001974,-0.00001411,-0.00000173,0.00001514,-0.0000
 1328,0.00012729,0.00001545,-0.00000780,-0.00002647,0.00005555,0.001035
 83,0.00074898,-0.00039049,-0.00041141,-0.02591883,-0.00710738,-0.00049
 506,0.00107125,-0.00115898,0.00045419,-0.00120219,0.00060254,-0.048138
 62,-0.02965325,-0.01696036,0.00143850,0.00789179,0.00279575,0.06287973
 ,0.00001757,0.00000016,-0.00000270,-0.00001969,0.00000293,0.00000668,0
 .00005968,0.00003422,-0.00002568,-0.00001704,0.00002701,0.00001561,0.0
 0000460,0.00000208,0.00001240,0.00000211,0.00000119,-0.00000422,0.0000
 5547,-0.00001514,-0.00004651,-0.00003192,-0.00001096,0.00002596,0.0000
 0353,0.00000269,-0.00000222,0.00000417,-0.00000048,-0.00000262,-0.0000
 0439,0.00000204,-0.00000523,0.00000434,-0.00000021,-0.00000195,-0.0000
 0258,-0.00000103,0.00000017,0.00006217,0.00000821,-0.00005209,-0.00012
 668,-0.00003090,0.00009257,0.00191800,0.00123268,-0.00101779,-0.000064
 77,-0.00001700,-0.00009842,-0.00127691,0.00064602,0.00092449,0.0000725
 3,0.00005109,-0.00004196,0.00001288,-0.00000457,-0.00000239,0.00000656
 ,0.00000206,-0.00000834,0.00005286,-0.00001152,-0.00003085,-0.00000120
 ,-0.00004808,-0.00004760,0.00079469,0.00059557,-0.00076764,0.00134654,
 -0.00297518,0.00026894,-0.00043507,-0.00020558,0.00006085,-0.00051045,
 0.00101585,0.00021360,-0.02056504,-0.29366224,-0.09187545,-0.00275930,
 -0.01648261,-0.00787931,0.02314399,0.30909714,0.00001391,0.00000064,-0
 .00000532,-0.00001717,0.00000264,0.00000802,0.00029163,0.00020443,-0.0
 0016734,-0.00000922,-0.00000213,0.00002194,0.00000175,-0.00008806,-0.0
 0007578,0.00002829,0.00000577,-0.00002352,0.00005340,-0.00001180,-0.00
 005073,-0.00002798,-0.00001108,0.00002499,0.00000458,0.00000279,-0.000
 00177,0.00000406,-0.00000106,-0.00000301,-0.00000197,0.00000193,-0.000
 00280,0.00000394,-0.00000031,-0.00000149,-0.00000257,-0.00000058,-0.00
 000102,0.00005601,-0.00003231,-0.00005185,-0.00012495,-0.00003695,0.00
 010781,0.00927658,-0.03018100,-0.02006188,0.00018130,-0.00128330,-0.00
 016029,0.00352580,0.00474840,-0.00253390,0.00006867,0.00005617,-0.0000
 4416,-0.00003095,0.00007276,0.00001305,0.00001814,0.00000014,-0.000011
 19,-0.00000878,-0.00010234,-0.00007280,0.00008241,-0.00001046,-0.00001
 294,-0.00130884,-0.00073142,0.00151920,0.00052807,-0.01186403,-0.00211
 340,-0.00010766,0.00050897,-0.00036788,0.00090461,0.00081887,0.0013855
 7,-0.01433147,-0.08268473,-0.08177260,0.00202946,0.02011681,0.01147935
 ,0.00091711,0.10072730,0.09320122,-0.00010764,0.00004537,0.00005775,0.
 00012349,-0.00003501,-0.00006046,-0.00021278,-0.00025893,0.00012615,0.
 00005771,-0.00011142,-0.00014887,0.00004911,0.00001359,-0.00002084,-0.
 00003621,0.00000031,0.00001642,-0.00037573,0.00019266,0.00038365,0.000
 21201,0.00006547,-0.00019412,-0.00002292,-0.00001441,0.00000766,-0.000
 02650,0.00000599,0.00002179,0.00002543,-0.00005002,-0.00000482,-0.0000
 2672,0.00000204,0.00001063,0.00001755,0.00000448,0.00001323,-0.0003904
 9,-0.00008345,0.00032109,0.00081892,0.00007941,-0.00070065,-0.00193944
 ,-0.00061653,0.00096111,-0.00051417,-0.00072319,0.00043086,0.00252095,
 0.00452179,-0.00132529,-0.00045157,-0.00026513,0.00030930,-0.00008046,
 -0.00000494,0.00006784,-0.00004391,-0.00000678,0.00002004,-0.00014630,
 0.00026129,0.00028764,0.00008492,0.00008233,-0.00008700,-0.01198094,-0
 .00057586,0.00506916,-0.10448162,-0.02619267,0.02111969,0.00199451,-0.
 00593767,0.00254274,0.01039584,0.02085469,-0.00473726,-0.01113808,-0.0
 4165712,0.00200146,0.00375431,0.00002812,0.00294368,-0.00568438,-0.002
 03643,-0.00177715,0.38921158,-0.00001534,0.00005432,0.00001622,0.00001
 439,-0.00002507,-0.00000513,-0.00011818,-0.00021341,0.00006952,-0.0000
 9827,0.00003893,0.00007281,-0.00007238,0.00012757,0.00011976,-0.000029
 47,-0.00001192,0.00002075,-0.00005805,0.00011247,0.00007893,0.00002116
 ,-0.00000693,-0.00002236,0.00000335,0.00000399,-0.00000120,-0.00000046
 ,-0.00000243,0.00000106,0.00001005,-0.00003999,-0.00001661,-0.00000013
 ,0.00000162,-0.00000032,-0.00000005,0.00000005,0.00000460,0.00000737,0
 .00010923,0.00001991,0.00005436,-0.00011173,-0.00007792,-0.00690598,0.
 00755126,0.00539867,0.00004489,0.00140179,-0.00038807,-0.00148470,-0.0
 1550980,-0.00245105,-0.00001025,0.00007004,0.00002019,0.00017144,0.000
 13077,-0.00003840,0.00004022,-0.00000703,-0.00002595,0.00004053,-0.000
 29382,-0.00019237,0.00016115,0.00011918,-0.00005785,0.00849285,0.00838
 311,-0.00147564,-0.06568653,-0.24689498,0.03164480,-0.01034449,-0.0259
 8487,0.01080145,-0.00949696,-0.03818845,0.00317896,-0.00963843,-0.0224
 3170,-0.00308994,0.00039179,0.00158921,-0.00004130,-0.00330575,0.00019
 379,-0.00048381,-0.11783138,0.53448031,0.00004347,-0.00001094,-0.00000
 028,-0.00004558,0.00001079,0.00000801,0.00002993,-0.00000766,0.0000427
 7,-0.00006231,0.00005434,-0.00001354,-0.00003475,0.00002482,0.00005881
 ,-0.00001427,0.00000341,-0.00000850,0.00011330,-0.00003703,-0.00007329
 ,-0.00007008,-0.00001964,0.00004874,0.00000486,0.00000399,-0.00000456,
 0.00000738,0.00000106,-0.00000364,-0.00001524,0.00001064,-0.00001085,0
 .00000867,-0.00000032,-0.00000427,-0.00000442,-0.00000208,0.00000216,0
 .00008441,0.00005511,-0.00006457,-0.00023526,-0.00003593,0.00015568,-0
 .00217558,0.00072500,0.00287626,0.00000985,0.00044475,-0.00017189,-0.0
 0111446,-0.00479202,-0.00083994,0.00014178,0.00008144,-0.00007405,0.00
 007313,0.00000262,0.00000500,0.00000093,0.00000191,-0.00001403,-0.0000
 0792,-0.00013545,-0.00003414,-0.00002480,0.00002923,-0.00006040,0.0062
 6828,0.00161562,0.00087879,0.02237173,0.01725163,-0.07455221,0.0110564
 9,0.03502158,0.00415646,-0.00627583,-0.01633073,0.00679788,-0.00480226
 ,-0.01124930,0.00203311,0.00270199,-0.00043312,0.00187932,-0.00243459,
 -0.00093993,-0.00004686,-0.16638608,0.07066880,0.13933953,0.00012137,-
 0.00003906,-0.00005686,-0.00013979,0.00003562,0.00006569,0.00024213,0.
 00020692,-0.00014503,-0.00010811,0.00017045,0.00021146,-0.00012742,0.0
 0003858,0.00011936,0.00003262,-0.00000402,-0.00001644,0.00042207,-0.00
 020144,-0.00042118,-0.00023811,-0.00007657,0.00021396,0.00002722,0.000
 01740,-0.00001061,0.00003111,-0.00000612,-0.00002429,-0.00002775,0.000
 04751,-0.00000389,0.00003064,-0.00000242,-0.00001239,-0.00001995,-0.00
 000541,-0.00001200,0.00049517,0.00019380,-0.00037479,-0.00095484,-0.00
 010547,0.00079964,-0.00229627,0.00619192,0.00382377,0.00070617,0.00167
 038,-0.00082719,-0.00541272,-0.01511204,0.00046400,0.00052412,0.000326
 24,-0.00034883,0.00021067,0.00003972,-0.00012036,0.00006640,0.00000669
 ,-0.00004358,0.00017929,-0.00050767,-0.00038419,-0.00003260,-0.0000254
 8,0.00003581,0.00208221,0.00888492,-0.00006852,0.01138847,-0.01010574,
 -0.00592677,-0.00074005,-0.00125930,0.00113464,-0.00002818,-0.00473727
 ,-0.00036244,0.00348509,-0.00345998,-0.00196852,-0.00052661,0.00008901
 ,-0.00052386,-0.00070908,0.00028976,-0.00024100,-0.27160649,0.21564325
 ,0.14078726,0.26292323,0.00001225,-0.00002350,-0.00000777,-0.00001345,
 0.00001295,0.00000480,0.00012998,0.00015457,-0.00006114,0.00005705,0.0
 0003819,-0.00000905,-0.00001828,-0.00005389,-0.00001875,0.00001773,0.0
 0000696,-0.00001683,0.00005109,-0.00006333,-0.00005918,-0.00002165,-0.
 00000239,0.00001904,0.00000085,-0.00000052,-0.00000062,0.00000252,0.00
 000099,-0.00000201,-0.00000497,0.00001832,0.00000475,0.00000176,-0.000
 00116,-0.00000048,-0.00000105,-0.00000023,-0.00000197,0.00005427,0.000
 00267,-0.00004435,-0.00009330,0.00004223,0.00009375,0.00128722,-0.0021
 7603,-0.00133392,-0.00007621,-0.00028444,-0.00015473,-0.00241841,0.002
 85026,0.00193892,0.00003714,-0.00000527,-0.00002951,-0.00001134,-0.000
 05838,0.00000438,-0.00000424,0.00000231,0.00000194,-0.00000302,0.00002
 670,0.00003426,-0.00005619,-0.00004579,0.00001203,0.00433299,-0.004941
 25,-0.00172420,0.02806707,-0.03713996,-0.01631868,0.00074659,0.0011847
 9,-0.00001940,-0.00276431,-0.00500616,0.00215486,-0.00139108,0.0017140
 8,-0.00026144,-0.00059132,-0.00003006,-0.00055107,0.00063107,0.0005507
 5,0.00025777,0.17024342,-0.20464549,-0.09201257,-0.19820418,0.24787206
 ,-0.00005020,0.00000952,0.00000717,0.00005537,-0.00001174,-0.00001541,
 -0.00006623,0.00001409,-0.00003344,0.00010526,-0.00007425,0.00000836,0
 .00003533,-0.00003936,-0.00009621,0.00001205,-0.00000200,0.00000946,-0
 .00014875,0.00004909,0.00011520,0.00008814,0.00002755,-0.00006788,-0.0
 0000883,-0.00000609,0.00000524,-0.00001079,0.00000064,0.00000659,0.000
 01461,-0.00001193,0.00001093,-0.00001122,0.00000059,0.00000499,0.00000
 646,0.00000214,-0.00000026,-0.00015185,-0.00008217,0.00011216,0.000331
 88,0.00005674,-0.00024062,0.00170207,-0.00289738,-0.00299672,0.0002048
 8,-0.00052261,0.00059238,0.00236366,0.00676401,0.00065904,-0.00018949,
 -0.00012297,0.00010957,-0.00010749,0.00001694,0.00001836,-0.00001233,-
 0.00000280,0.00001431,0.00003038,0.00019284,0.00005441,0.00000465,-0.0
 0002470,0.00003708,-0.00157160,-0.00369236,-0.00386670,-0.00430283,0.0
 0327680,0.00207309,-0.00038656,0.00174177,0.00009513,0.00005727,0.0006
 4624,0.00073627,-0.00029421,0.00042128,0.00261671,-0.00084842,-0.00058
 684,-0.00081759,0.00018102,0.00050431,-0.00017862,0.13873064,-0.113748
 53,-0.08230551,-0.13576285,0.10810117,0.08333251\\0.00002466,-0.000049
 37,-0.00002454,-0.00000611,0.00000761,-0.00000393,0.00000513,-0.000001
 89,-0.00000418,-0.00000868,-0.00001552,0.00000109,-0.00000201,0.000002
 17,-0.00000095,0.00000439,-0.00001577,-0.00000732,-0.00000930,-0.00001
 103,-0.00000296,0.00004958,-0.00004278,-0.00002565,0.00000798,0.000016
 59,0.00000946,-0.00001034,0.00000015,-0.00000655,-0.00003397,0.0000659
 2,0.00003895,0.00001100,0.00000280,-0.00001834,-0.00000361,-0.00000575
 ,0.00000458,0.00001168,0.00000722,-0.00001188,0.00003226,0.00002145,0.
 00000118,0.00002698,-0.00001538,-0.00002437,-0.00000202,0.00001454,0.0
 0000778,-0.00002186,0.00001008,0.00001601,-0.00006186,-0.00000094,0.00
 003494,0.00000873,-0.00000976,-0.00000552,0.00000660,0.00001818,-0.000
 00220,-0.00001603,-0.00000808,0.00000573,-0.00000131,0.00001606,0.0000
 0852,-0.00000597,-0.00000441,-0.00000794,0.00004689,0.00005631,-0.0000
 4554,-0.00000642,-0.00000254,-0.00000528,-0.00000788,-0.00001015,0.000
 01566,-0.00002784,-0.00001898,0.00004197,0.00000314,-0.00000166,0.0000
 0540,0.00000361,0.00001926,-0.00000781,-0.00002977,-0.00005332,0.00001
 423,0.00001235,0.00000898,-0.00000053\\\@


 YOU KNOW YOU'RE A TEACHER WHEN YOU SAY 2, WRITE 3, AND MEAN 4.
 -- RONALD ANSTROM, HIGH SCHOOL TEACHER, UNDERWOOD, N.D. 1974
 Job cpu time:       0 days  9 hours 21 minutes  5.2 seconds.
 Elapsed time:       0 days  0 hours 15 minutes 36.1 seconds.
 File lengths (MBytes):  RWF=   1017 Int=      0 D2E=      0 Chk=     35 Scr=      1
 Normal termination of Gaussian 16 at Fri Jun 28 15:20:52 2019.
