 Entering Gaussian System, Link 0=g16
 Initial command:
 /nopt/nrel/apps/gaussian/g16B/g16/l1.exe "/dev/shm/Gau-354768.inp" -scrdir="/dev/shm/"
 Default linda workers: r1i6n21
 Default is to use  36 SMP processors on each worker.
 Entering Link 1 = /nopt/nrel/apps/gaussian/g16B/g16/l1.exe PID=    354769.
  
 Copyright (c) 1988-2017, Gaussian, Inc.  All Rights Reserved.
  
 This is part of the Gaussian(R) 16 program.  It is based on
 the Gaussian(R) 09 system (copyright 2009, Gaussian, Inc.),
 the Gaussian(R) 03 system (copyright 2003, Gaussian, Inc.),
 the Gaussian(R) 98 system (copyright 1998, Gaussian, Inc.),
 the Gaussian(R) 94 system (copyright 1995, Gaussian, Inc.),
 the Gaussian 92(TM) system (copyright 1992, Gaussian, Inc.),
 the Gaussian 90(TM) system (copyright 1990, Gaussian, Inc.),
 the Gaussian 88(TM) system (copyright 1988, Gaussian, Inc.),
 the Gaussian 86(TM) system (copyright 1986, Carnegie Mellon
 University), and the Gaussian 82(TM) system (copyright 1983,
 Carnegie Mellon University). Gaussian is a federally registered
 trademark of Gaussian, Inc.
  
 This software contains proprietary and confidential information,
 including trade secrets, belonging to Gaussian, Inc.
  
 This software is provided under written license and may be
 used, copied, transmitted, or stored only in accord with that
 written license.
  
 The following legend is applicable only to US Government
 contracts under FAR:
  
                    RESTRICTED RIGHTS LEGEND
  
 Use, reproduction and disclosure by the US Government is
 subject to restrictions as set forth in subparagraphs (a)
 and (c) of the Commercial Computer Software - Restricted
 Rights clause in FAR 52.227-19.
  
 Gaussian, Inc.
 340 Quinnipiac St., Bldg. 40, Wallingford CT 06492
  
  
 ---------------------------------------------------------------
 Warning -- This program may not be used in any manner that
 competes with the business of Gaussian, Inc. or will provide
 assistance to any competitor of Gaussian, Inc.  The licensee
 of this program is prohibited from giving any competitor of
 Gaussian, Inc. access to this program.  By using this program,
 the user acknowledges that Gaussian, Inc. is engaged in the
 business of creating and licensing software in the field of
 computational chemistry and represents and warrants to the
 licensee that it is not a competitor of Gaussian, Inc. and that
 it will not use this program in any manner prohibited above.
 ---------------------------------------------------------------
  

 Cite this work as:
 Gaussian 16, Revision B.01,
 M. J. Frisch, G. W. Trucks, H. B. Schlegel, G. E. Scuseria, 
 M. A. Robb, J. R. Cheeseman, G. Scalmani, V. Barone, 
 G. A. Petersson, H. Nakatsuji, X. Li, M. Caricato, A. V. Marenich, 
 J. Bloino, B. G. Janesko, R. Gomperts, B. Mennucci, H. P. Hratchian, 
 J. V. Ortiz, A. F. Izmaylov, J. L. Sonnenberg, D. Williams-Young, 
 F. Ding, F. Lipparini, F. Egidi, J. Goings, B. Peng, A. Petrone, 
 T. Henderson, D. Ranasinghe, V. G. Zakrzewski, J. Gao, N. Rega, 
 G. Zheng, W. Liang, M. Hada, M. Ehara, K. Toyota, R. Fukuda, 
 J. Hasegawa, M. Ishida, T. Nakajima, Y. Honda, O. Kitao, H. Nakai, 
 T. Vreven, K. Throssell, J. A. Montgomery, Jr., J. E. Peralta, 
 F. Ogliaro, M. J. Bearpark, J. J. Heyd, E. N. Brothers, K. N. Kudin, 
 V. N. Staroverov, T. A. Keith, R. Kobayashi, J. Normand, 
 K. Raghavachari, A. P. Rendell, J. C. Burant, S. S. Iyengar, 
 J. Tomasi, M. Cossi, J. M. Millam, M. Klene, C. Adamo, R. Cammi, 
 J. W. Ochterski, R. L. Martin, K. Morokuma, O. Farkas, 
 J. B. Foresman, and D. J. Fox, Gaussian, Inc., Wallingford CT, 2016.
 
 ******************************************
 Gaussian 16:  ES64L-G16RevB.01 20-Dec-2017
                26-Jun-2019 
 ******************************************
 %RWF=/dev/shm/,5GB,/tmp/scratch/907646/,-1
 %NoSave
 %Chk=/dev/shm/pet_dimer.chk
 SetLPE:    new flags="-opt 'Tsnet.Node.lindarsharg: ssh'  -nodelist 'r1i6n21.ib0.cm.hpc.nrel.gov' -env GAUSS_MDEF=9663676416 -env GAUSS_EXEDIR="/nopt/nrel/apps/gaussian/g16B/g16/bsd:/nopt/nrel/apps/gaussian/g16B/g16/local:/nopt/nrel/apps/gaussian/g16B/g16/extras:/nopt/nrel/apps/gaussian/g16B/g16""
 Will use up to    1 processors via Linda.
 Default route: CacheSize=180224 MaxDisk=256GB
 ------------------------------------------------
 # m062x/Def2TZVP nosymm scf=xqc opt freq=NoRaman
 ------------------------------------------------
 1/4=180224,18=20,19=15,26=3,38=1/1,3;
 2/4=180224,9=110,12=2,15=1,17=6,18=5,40=1/2;
 3/4=180224,5=44,7=101,11=2,25=1,30=1,71=1,74=-55/1,2,3;
 4/4=180224/1;
 5/4=180224,5=2,8=3,13=1,38=5/2,8;
 6/4=180224,7=2,8=2,9=2,10=2,28=1/1;
 7/4=180224,30=1/1,2,3,16;
 1/4=180224,18=20,19=15,26=3/3(2);
 2/4=180224,9=110,15=1/2;
 99/4=180224/99;
 2/4=180224,9=110,15=1/2;
 3/4=180224,5=44,7=101,11=2,25=1,30=1,71=1,74=-55/1,2,3;
 4/4=180224,5=5,16=3,69=1/1;
 5/4=180224,5=2,8=3,13=1,38=5/2,8;
 7/4=180224,30=1/1,2,3,16;
 1/4=180224,18=20,19=15,26=3/3(-5);
 2/4=180224,9=110,15=1/2;
 6/4=180224,7=2,8=2,9=2,10=2,19=2,28=1/1;
 99/4=180224,9=1/99;
 ---------------------------
 dimer from optimized trimer
 ---------------------------
 Symbolic Z-matrix:
 Charge =  0 Multiplicity = 1
 O                     3.29859   6.38962  -1.43524 
 H                     4.21713   6.15353  -1.27784 
 C                    -0.37629   2.4602    4.98718 
 H                    -0.59647   1.5327    5.49603 
 C                     0.37542   2.46318   3.82531 
 H                     0.75791   1.54431   3.4019 
 O                     1.89672   2.5917    1.45326 
 C                     2.43944   4.83267   0.1879 
 H                     1.93353   4.25159  -0.58385 
 H                     3.41383   4.37373   0.37275 
 C                     2.57879   6.28341  -0.22753 
 H                     1.59281   6.70884  -0.41319 
 H                     3.04604   6.85759   0.57896 
 C                     0.6514    3.66357   3.17943 
 C                     1.46648   3.60583   1.93033 
 O                    -1.87544   2.51004   7.28803 
 C                    -0.85157   3.6628    5.50234 
 C                    -1.66515   3.72162   6.75042 
 O                     1.67194   4.81489   1.39227 
 C                     0.17545   4.86592   3.69433 
 H                     0.39513   5.7927    3.18402 
 C                    -0.57577   4.86339   4.85644 
 H                    -0.9584    5.7824    5.27945 
 O                    -2.09222   4.73342   7.23416 
 C                    -5.59279  -1.31261   13.68347 
 H                    -5.82225  -2.24069   14.18709 
 C                    -4.84268  -1.31073   12.52065 
 H                    -4.47063  -2.2312    12.09146 
 O                    -3.32132  -1.18196   10.14665 
 C                    -2.75569   1.05221   8.89924 
 H                    -1.77301   0.61813   9.08722 
 H                    -3.25195   0.45519   8.13335 
 C                    -4.55484  -0.10916   11.88197 
 C                    -3.74273  -0.16893   10.63249 
 C                    -2.64847   2.50037   8.48555 
 H                    -2.15332   3.09755   9.25211 
 H                    -3.6312    2.934     8.2968 
 O                    -7.0862   -1.26032   15.98765 
 C                    -6.05439  -0.10807   14.20641 
 C                    -6.86629  -0.04824   15.45602 
 O                    -3.52758   1.04269   10.09787 
 C                    -5.0166    1.09536   12.40481 
 H                    -4.78742   2.02341   11.90101 
 C                    -5.76643   1.09352   13.5678 
 H                    -6.13834   2.01399   13.99709 
 O                    -7.28378   0.96522   15.94434 
 C                    -7.97498  -2.71882   17.59401 
 H                    -8.47454  -3.3096    16.82538 
 H                    -6.99504  -3.15974   17.78044 
 C                    -7.85847  -1.26975   17.18603 
 H                    -8.83835  -0.82879   16.99958 
 H                    -7.35863  -0.67884   17.95437 
 O                    -8.74735  -2.72809   18.79195 
 H                    -9.61701  -2.3348    18.619 
 

 GradGradGradGradGradGradGradGradGradGradGradGradGradGradGradGradGradGrad
 Berny optimization.
 Initialization pass.
                           ----------------------------
                           !    Initial Parameters    !
                           ! (Angstroms and Degrees)  !
 --------------------------                            --------------------------
 ! Name  Definition              Value          Derivative Info.                !
 --------------------------------------------------------------------------------
 ! R1    R(1,2)                  0.9614         estimate D2E/DX2                !
 ! R2    R(1,11)                 1.4099         estimate D2E/DX2                !
 ! R3    R(3,4)                  1.0806         estimate D2E/DX2                !
 ! R4    R(3,5)                  1.3838         estimate D2E/DX2                !
 ! R5    R(3,17)                 1.392          estimate D2E/DX2                !
 ! R6    R(5,6)                  1.0816         estimate D2E/DX2                !
 ! R7    R(5,14)                 1.3908         estimate D2E/DX2                !
 ! R8    R(7,15)                 1.2005         estimate D2E/DX2                !
 ! R9    R(8,9)                  1.0905         estimate D2E/DX2                !
 ! R10   R(8,10)                 1.0928         estimate D2E/DX2                !
 ! R11   R(8,11)                 1.5155         estimate D2E/DX2                !
 ! R12   R(8,19)                 1.4282         estimate D2E/DX2                !
 ! R13   R(11,12)                1.0898         estimate D2E/DX2                !
 ! R14   R(11,13)                1.0947         estimate D2E/DX2                !
 ! R15   R(14,15)                1.4926         estimate D2E/DX2                !
 ! R16   R(14,20)                1.3919         estimate D2E/DX2                !
 ! R17   R(15,19)                1.3392         estimate D2E/DX2                !
 ! R18   R(16,18)                1.3421         estimate D2E/DX2                !
 ! R19   R(16,35)                1.4254         estimate D2E/DX2                !
 ! R20   R(17,18)                1.491          estimate D2E/DX2                !
 ! R21   R(17,22)                1.3909         estimate D2E/DX2                !
 ! R22   R(18,24)                1.2001         estimate D2E/DX2                !
 ! R23   R(20,21)                1.0806         estimate D2E/DX2                !
 ! R24   R(20,22)                1.3838         estimate D2E/DX2                !
 ! R25   R(22,23)                1.0816         estimate D2E/DX2                !
 ! R26   R(25,26)                1.0806         estimate D2E/DX2                !
 ! R27   R(25,27)                1.3838         estimate D2E/DX2                !
 ! R28   R(25,39)                1.3919         estimate D2E/DX2                !
 ! R29   R(27,28)                1.0816         estimate D2E/DX2                !
 ! R30   R(27,33)                1.3909         estimate D2E/DX2                !
 ! R31   R(29,34)                1.1999         estimate D2E/DX2                !
 ! R32   R(30,31)                1.0906         estimate D2E/DX2                !
 ! R33   R(30,32)                1.0905         estimate D2E/DX2                !
 ! R34   R(30,35)                1.5099         estimate D2E/DX2                !
 ! R35   R(30,41)                1.4257         estimate D2E/DX2                !
 ! R36   R(33,34)                1.4914         estimate D2E/DX2                !
 ! R37   R(33,42)                1.3919         estimate D2E/DX2                !
 ! R38   R(34,41)                1.3417         estimate D2E/DX2                !
 ! R39   R(35,36)                1.0906         estimate D2E/DX2                !
 ! R40   R(35,37)                1.0906         estimate D2E/DX2                !
 ! R41   R(38,40)                1.3417         estimate D2E/DX2                !
 ! R42   R(38,50)                1.4257         estimate D2E/DX2                !
 ! R43   R(39,40)                1.4914         estimate D2E/DX2                !
 ! R44   R(39,44)                1.3909         estimate D2E/DX2                !
 ! R45   R(40,46)                1.1999         estimate D2E/DX2                !
 ! R46   R(42,43)                1.0806         estimate D2E/DX2                !
 ! R47   R(42,44)                1.3838         estimate D2E/DX2                !
 ! R48   R(44,45)                1.0816         estimate D2E/DX2                !
 ! R49   R(47,48)                1.0906         estimate D2E/DX2                !
 ! R50   R(47,49)                1.0906         estimate D2E/DX2                !
 ! R51   R(47,50)                1.5099         estimate D2E/DX2                !
 ! R52   R(47,53)                1.4254         estimate D2E/DX2                !
 ! R53   R(50,51)                1.0906         estimate D2E/DX2                !
 ! R54   R(50,52)                1.0906         estimate D2E/DX2                !
 ! R55   R(53,54)                0.97           estimate D2E/DX2                !
 ! A1    A(2,1,11)             109.21           estimate D2E/DX2                !
 ! A2    A(4,3,5)              120.5241         estimate D2E/DX2                !
 ! A3    A(4,3,17)             119.849          estimate D2E/DX2                !
 ! A4    A(5,3,17)             119.6269         estimate D2E/DX2                !
 ! A5    A(3,5,6)              121.2606         estimate D2E/DX2                !
 ! A6    A(3,5,14)             119.9709         estimate D2E/DX2                !
 ! A7    A(6,5,14)             118.7684         estimate D2E/DX2                !
 ! A8    A(9,8,10)             108.034          estimate D2E/DX2                !
 ! A9    A(9,8,11)             111.0237         estimate D2E/DX2                !
 ! A10   A(9,8,19)             109.9279         estimate D2E/DX2                !
 ! A11   A(10,8,11)            111.4942         estimate D2E/DX2                !
 ! A12   A(10,8,19)            109.3463         estimate D2E/DX2                !
 ! A13   A(11,8,19)            107.0069         estimate D2E/DX2                !
 ! A14   A(1,11,8)             110.7236         estimate D2E/DX2                !
 ! A15   A(1,11,12)            106.6518         estimate D2E/DX2                !
 ! A16   A(1,11,13)            111.9394         estimate D2E/DX2                !
 ! A17   A(8,11,12)            109.7073         estimate D2E/DX2                !
 ! A18   A(8,11,13)            109.8397         estimate D2E/DX2                !
 ! A19   A(12,11,13)           107.8737         estimate D2E/DX2                !
 ! A20   A(5,14,15)            117.62           estimate D2E/DX2                !
 ! A21   A(5,14,20)            120.3933         estimate D2E/DX2                !
 ! A22   A(15,14,20)           121.9868         estimate D2E/DX2                !
 ! A23   A(7,15,14)            124.1212         estimate D2E/DX2                !
 ! A24   A(7,15,19)            123.2307         estimate D2E/DX2                !
 ! A25   A(14,15,19)           112.6481         estimate D2E/DX2                !
 ! A26   A(18,16,35)           115.3182         estimate D2E/DX2                !
 ! A27   A(3,17,18)            122.019          estimate D2E/DX2                !
 ! A28   A(3,17,22)            120.4094         estimate D2E/DX2                !
 ! A29   A(18,17,22)           117.5716         estimate D2E/DX2                !
 ! A30   A(16,18,17)           112.6563         estimate D2E/DX2                !
 ! A31   A(16,18,24)           122.9503         estimate D2E/DX2                !
 ! A32   A(17,18,24)           124.3935         estimate D2E/DX2                !
 ! A33   A(8,19,15)            115.6245         estimate D2E/DX2                !
 ! A34   A(14,20,21)           119.7805         estimate D2E/DX2                !
 ! A35   A(14,20,22)           119.6521         estimate D2E/DX2                !
 ! A36   A(21,20,22)           120.5674         estimate D2E/DX2                !
 ! A37   A(17,22,20)           119.9473         estimate D2E/DX2                !
 ! A38   A(17,22,23)           118.7922         estimate D2E/DX2                !
 ! A39   A(20,22,23)           121.2604         estimate D2E/DX2                !
 ! A40   A(26,25,27)           120.5261         estimate D2E/DX2                !
 ! A41   A(26,25,39)           119.8504         estimate D2E/DX2                !
 ! A42   A(27,25,39)           119.6235         estimate D2E/DX2                !
 ! A43   A(25,27,28)           121.2486         estimate D2E/DX2                !
 ! A44   A(25,27,33)           119.949          estimate D2E/DX2                !
 ! A45   A(28,27,33)           118.8025         estimate D2E/DX2                !
 ! A46   A(31,30,32)           108.2509         estimate D2E/DX2                !
 ! A47   A(31,30,35)           111.4065         estimate D2E/DX2                !
 ! A48   A(31,30,41)           109.893          estimate D2E/DX2                !
 ! A49   A(32,30,35)           111.405          estimate D2E/DX2                !
 ! A50   A(32,30,41)           109.9022         estimate D2E/DX2                !
 ! A51   A(35,30,41)           105.9738         estimate D2E/DX2                !
 ! A52   A(27,33,34)           117.5662         estimate D2E/DX2                !
 ! A53   A(27,33,42)           120.4273         estimate D2E/DX2                !
 ! A54   A(34,33,42)           122.0065         estimate D2E/DX2                !
 ! A55   A(29,34,33)           124.352          estimate D2E/DX2                !
 ! A56   A(29,34,41)           123.0068         estimate D2E/DX2                !
 ! A57   A(33,34,41)           112.6412         estimate D2E/DX2                !
 ! A58   A(16,35,30)           105.9741         estimate D2E/DX2                !
 ! A59   A(16,35,36)           109.9118         estimate D2E/DX2                !
 ! A60   A(16,35,37)           109.9127         estimate D2E/DX2                !
 ! A61   A(30,35,36)           111.3978         estimate D2E/DX2                !
 ! A62   A(30,35,37)           111.3939         estimate D2E/DX2                !
 ! A63   A(36,35,37)           108.2424         estimate D2E/DX2                !
 ! A64   A(40,38,50)           115.3294         estimate D2E/DX2                !
 ! A65   A(25,39,40)           122.0078         estimate D2E/DX2                !
 ! A66   A(25,39,44)           120.4275         estimate D2E/DX2                !
 ! A67   A(40,39,44)           117.5647         estimate D2E/DX2                !
 ! A68   A(38,40,39)           112.6428         estimate D2E/DX2                !
 ! A69   A(38,40,46)           123.0059         estimate D2E/DX2                !
 ! A70   A(39,40,46)           124.3512         estimate D2E/DX2                !
 ! A71   A(30,41,34)           115.3314         estimate D2E/DX2                !
 ! A72   A(33,42,43)           119.8502         estimate D2E/DX2                !
 ! A73   A(33,42,44)           119.6242         estimate D2E/DX2                !
 ! A74   A(43,42,44)           120.5256         estimate D2E/DX2                !
 ! A75   A(39,44,42)           119.9485         estimate D2E/DX2                !
 ! A76   A(39,44,45)           118.8016         estimate D2E/DX2                !
 ! A77   A(42,44,45)           121.2498         estimate D2E/DX2                !
 ! A78   A(48,47,49)           108.2433         estimate D2E/DX2                !
 ! A79   A(48,47,50)           111.3949         estimate D2E/DX2                !
 ! A80   A(48,47,53)           109.9131         estimate D2E/DX2                !
 ! A81   A(49,47,50)           111.3983         estimate D2E/DX2                !
 ! A82   A(49,47,53)           109.9126         estimate D2E/DX2                !
 ! A83   A(50,47,53)           105.9705         estimate D2E/DX2                !
 ! A84   A(38,50,47)           105.9779         estimate D2E/DX2                !
 ! A85   A(38,50,51)           109.8961         estimate D2E/DX2                !
 ! A86   A(38,50,52)           109.8979         estimate D2E/DX2                !
 ! A87   A(47,50,51)           111.4018         estimate D2E/DX2                !
 ! A88   A(47,50,52)           111.4077         estimate D2E/DX2                !
 ! A89   A(51,50,52)           108.2503         estimate D2E/DX2                !
 ! A90   A(47,53,54)           109.4711         estimate D2E/DX2                !
 ! D1    D(2,1,11,8)           -69.5529         estimate D2E/DX2                !
 ! D2    D(2,1,11,12)          171.1403         estimate D2E/DX2                !
 ! D3    D(2,1,11,13)           53.3756         estimate D2E/DX2                !
 ! D4    D(4,3,5,6)             -0.0129         estimate D2E/DX2                !
 ! D5    D(4,3,5,14)           179.9694         estimate D2E/DX2                !
 ! D6    D(17,3,5,6)           179.9969         estimate D2E/DX2                !
 ! D7    D(17,3,5,14)           -0.0209         estimate D2E/DX2                !
 ! D8    D(4,3,17,18)            0.0559         estimate D2E/DX2                !
 ! D9    D(4,3,17,22)         -179.9626         estimate D2E/DX2                !
 ! D10   D(5,3,17,18)         -179.9538         estimate D2E/DX2                !
 ! D11   D(5,3,17,22)            0.0277         estimate D2E/DX2                !
 ! D12   D(3,5,14,15)         -179.9899         estimate D2E/DX2                !
 ! D13   D(3,5,14,20)           -0.0136         estimate D2E/DX2                !
 ! D14   D(6,5,14,15)           -0.0072         estimate D2E/DX2                !
 ! D15   D(6,5,14,20)          179.9691         estimate D2E/DX2                !
 ! D16   D(9,8,11,1)           -58.5            estimate D2E/DX2                !
 ! D17   D(9,8,11,12)           58.949          estimate D2E/DX2                !
 ! D18   D(9,8,11,13)          177.3621         estimate D2E/DX2                !
 ! D19   D(10,8,11,1)           62.0172         estimate D2E/DX2                !
 ! D20   D(10,8,11,12)         179.4663         estimate D2E/DX2                !
 ! D21   D(10,8,11,13)         -62.1206         estimate D2E/DX2                !
 ! D22   D(19,8,11,1)         -178.4602         estimate D2E/DX2                !
 ! D23   D(19,8,11,12)         -61.0111         estimate D2E/DX2                !
 ! D24   D(19,8,11,13)          57.402          estimate D2E/DX2                !
 ! D25   D(9,8,19,15)           60.6631         estimate D2E/DX2                !
 ! D26   D(10,8,19,15)         -57.7807         estimate D2E/DX2                !
 ! D27   D(11,8,19,15)        -178.6768         estimate D2E/DX2                !
 ! D28   D(5,14,15,7)           -0.0781         estimate D2E/DX2                !
 ! D29   D(5,14,15,19)        -179.9895         estimate D2E/DX2                !
 ! D30   D(20,14,15,7)         179.9461         estimate D2E/DX2                !
 ! D31   D(20,14,15,19)          0.0347         estimate D2E/DX2                !
 ! D32   D(5,14,20,21)        -179.9521         estimate D2E/DX2                !
 ! D33   D(5,14,20,22)           0.0414         estimate D2E/DX2                !
 ! D34   D(15,14,20,21)          0.0231         estimate D2E/DX2                !
 ! D35   D(15,14,20,22)       -179.9834         estimate D2E/DX2                !
 ! D36   D(7,15,19,8)            0.4491         estimate D2E/DX2                !
 ! D37   D(14,15,19,8)        -179.6386         estimate D2E/DX2                !
 ! D38   D(35,16,18,17)        179.9963         estimate D2E/DX2                !
 ! D39   D(35,16,18,24)          0.012          estimate D2E/DX2                !
 ! D40   D(18,16,35,30)        179.8734         estimate D2E/DX2                !
 ! D41   D(18,16,35,36)        -59.6415         estimate D2E/DX2                !
 ! D42   D(18,16,35,37)         59.3925         estimate D2E/DX2                !
 ! D43   D(3,17,18,16)          -0.2413         estimate D2E/DX2                !
 ! D44   D(3,17,18,24)         179.7427         estimate D2E/DX2                !
 ! D45   D(22,17,18,16)        179.7767         estimate D2E/DX2                !
 ! D46   D(22,17,18,24)         -0.2393         estimate D2E/DX2                !
 ! D47   D(3,17,22,20)           0.0001         estimate D2E/DX2                !
 ! D48   D(3,17,22,23)         179.9768         estimate D2E/DX2                !
 ! D49   D(18,17,22,20)        179.9824         estimate D2E/DX2                !
 ! D50   D(18,17,22,23)         -0.0409         estimate D2E/DX2                !
 ! D51   D(14,20,22,17)         -0.0344         estimate D2E/DX2                !
 ! D52   D(14,20,22,23)        179.9894         estimate D2E/DX2                !
 ! D53   D(21,20,22,17)        179.959          estimate D2E/DX2                !
 ! D54   D(21,20,22,23)         -0.0171         estimate D2E/DX2                !
 ! D55   D(26,25,27,28)         -0.0209         estimate D2E/DX2                !
 ! D56   D(26,25,27,33)        179.9751         estimate D2E/DX2                !
 ! D57   D(39,25,27,28)        179.9883         estimate D2E/DX2                !
 ! D58   D(39,25,27,33)         -0.0157         estimate D2E/DX2                !
 ! D59   D(26,25,39,40)          0.0308         estimate D2E/DX2                !
 ! D60   D(26,25,39,44)       -179.9818         estimate D2E/DX2                !
 ! D61   D(27,25,39,40)       -179.9783         estimate D2E/DX2                !
 ! D62   D(27,25,39,44)          0.0091         estimate D2E/DX2                !
 ! D63   D(25,27,33,34)       -179.9894         estimate D2E/DX2                !
 ! D64   D(25,27,33,42)          0.0068         estimate D2E/DX2                !
 ! D65   D(28,27,33,34)          0.0067         estimate D2E/DX2                !
 ! D66   D(28,27,33,42)       -179.9971         estimate D2E/DX2                !
 ! D67   D(31,30,35,16)         60.4377         estimate D2E/DX2                !
 ! D68   D(31,30,35,36)        -59.0771         estimate D2E/DX2                !
 ! D69   D(31,30,35,37)        179.9515         estimate D2E/DX2                !
 ! D70   D(32,30,35,16)        -60.5584         estimate D2E/DX2                !
 ! D71   D(32,30,35,36)        179.9268         estimate D2E/DX2                !
 ! D72   D(32,30,35,37)         58.9553         estimate D2E/DX2                !
 ! D73   D(41,30,35,16)        179.9345         estimate D2E/DX2                !
 ! D74   D(41,30,35,36)         60.4197         estimate D2E/DX2                !
 ! D75   D(41,30,35,37)        -60.5518         estimate D2E/DX2                !
 ! D76   D(31,30,41,34)        -59.6686         estimate D2E/DX2                !
 ! D77   D(32,30,41,34)         59.3579         estimate D2E/DX2                !
 ! D78   D(35,30,41,34)        179.8463         estimate D2E/DX2                !
 ! D79   D(27,33,34,29)         -0.1642         estimate D2E/DX2                !
 ! D80   D(27,33,34,41)        179.8245         estimate D2E/DX2                !
 ! D81   D(42,33,34,29)        179.8397         estimate D2E/DX2                !
 ! D82   D(42,33,34,41)         -0.1717         estimate D2E/DX2                !
 ! D83   D(27,33,42,43)        179.9956         estimate D2E/DX2                !
 ! D84   D(27,33,42,44)          0.0089         estimate D2E/DX2                !
 ! D85   D(34,33,42,43)         -0.0083         estimate D2E/DX2                !
 ! D86   D(34,33,42,44)       -179.9951         estimate D2E/DX2                !
 ! D87   D(29,34,41,30)         -0.0105         estimate D2E/DX2                !
 ! D88   D(33,34,41,30)       -179.9993         estimate D2E/DX2                !
 ! D89   D(50,38,40,39)       -179.984          estimate D2E/DX2                !
 ! D90   D(50,38,40,46)          0.0251         estimate D2E/DX2                !
 ! D91   D(40,38,50,47)        179.985          estimate D2E/DX2                !
 ! D92   D(40,38,50,51)         59.5015         estimate D2E/DX2                !
 ! D93   D(40,38,50,52)        -59.5234         estimate D2E/DX2                !
 ! D94   D(25,39,40,38)         -0.0901         estimate D2E/DX2                !
 ! D95   D(25,39,40,46)        179.9007         estimate D2E/DX2                !
 ! D96   D(44,39,40,38)        179.9221         estimate D2E/DX2                !
 ! D97   D(44,39,40,46)         -0.0871         estimate D2E/DX2                !
 ! D98   D(25,39,44,42)          0.0066         estimate D2E/DX2                !
 ! D99   D(25,39,44,45)        179.9986         estimate D2E/DX2                !
 ! D100  D(40,39,44,42)        179.9946         estimate D2E/DX2                !
 ! D101  D(40,39,44,45)         -0.0134         estimate D2E/DX2                !
 ! D102  D(33,42,44,39)         -0.0155         estimate D2E/DX2                !
 ! D103  D(33,42,44,45)        179.9927         estimate D2E/DX2                !
 ! D104  D(43,42,44,39)        179.9978         estimate D2E/DX2                !
 ! D105  D(43,42,44,45)          0.006          estimate D2E/DX2                !
 ! D106  D(48,47,50,38)        -60.4746         estimate D2E/DX2                !
 ! D107  D(48,47,50,51)         59.0257         estimate D2E/DX2                !
 ! D108  D(48,47,50,52)       -179.9804         estimate D2E/DX2                !
 ! D109  D(49,47,50,38)         60.499          estimate D2E/DX2                !
 ! D110  D(49,47,50,51)        179.9993         estimate D2E/DX2                !
 ! D111  D(49,47,50,52)        -59.0068         estimate D2E/DX2                !
 ! D112  D(53,47,50,38)       -179.9871         estimate D2E/DX2                !
 ! D113  D(53,47,50,51)        -60.4868         estimate D2E/DX2                !
 ! D114  D(53,47,50,52)         60.5071         estimate D2E/DX2                !
 ! D115  D(48,47,53,54)        -60.9642         estimate D2E/DX2                !
 ! D116  D(49,47,53,54)        180.0            estimate D2E/DX2                !
 ! D117  D(50,47,53,54)         59.516          estimate D2E/DX2                !
 --------------------------------------------------------------------------------
 Trust Radius=3.00D-01 FncErr=1.00D-07 GrdErr=1.00D-06 EigMax=2.50D+02 EigMin=1.00D-04
 Number of steps in this run=    272 maximum allowed number of steps=    324.
 GradGradGradGradGradGradGradGradGradGradGradGradGradGradGradGradGradGrad

 Symmetry turned off by external request.
 Stoichiometry    C22H22O10
 Framework group  C1[X(C22H22O10)]
 Deg. of freedom   156
 Full point group                 C1      NOp   1
                          Input orientation:                          
 ---------------------------------------------------------------------
 Center     Atomic      Atomic             Coordinates (Angstroms)
 Number     Number       Type             X           Y           Z
 ---------------------------------------------------------------------
      1          8           0        3.298590    6.389620   -1.435240
      2          1           0        4.217130    6.153530   -1.277840
      3          6           0       -0.376290    2.460200    4.987180
      4          1           0       -0.596470    1.532700    5.496030
      5          6           0        0.375420    2.463180    3.825310
      6          1           0        0.757910    1.544310    3.401900
      7          8           0        1.896720    2.591700    1.453260
      8          6           0        2.439440    4.832670    0.187900
      9          1           0        1.933530    4.251590   -0.583850
     10          1           0        3.413830    4.373730    0.372750
     11          6           0        2.578790    6.283410   -0.227530
     12          1           0        1.592810    6.708840   -0.413190
     13          1           0        3.046040    6.857590    0.578960
     14          6           0        0.651400    3.663570    3.179430
     15          6           0        1.466480    3.605830    1.930330
     16          8           0       -1.875440    2.510040    7.288030
     17          6           0       -0.851570    3.662800    5.502340
     18          6           0       -1.665150    3.721620    6.750420
     19          8           0        1.671940    4.814890    1.392270
     20          6           0        0.175450    4.865920    3.694330
     21          1           0        0.395130    5.792700    3.184020
     22          6           0       -0.575770    4.863390    4.856440
     23          1           0       -0.958400    5.782400    5.279450
     24          8           0       -2.092220    4.733420    7.234160
     25          6           0       -5.592790   -1.312610   13.683470
     26          1           0       -5.822250   -2.240690   14.187090
     27          6           0       -4.842680   -1.310730   12.520650
     28          1           0       -4.470630   -2.231200   12.091460
     29          8           0       -3.321320   -1.181960   10.146650
     30          6           0       -2.755690    1.052210    8.899240
     31          1           0       -1.773010    0.618130    9.087220
     32          1           0       -3.251950    0.455190    8.133350
     33          6           0       -4.554840   -0.109160   11.881970
     34          6           0       -3.742730   -0.168930   10.632490
     35          6           0       -2.648470    2.500370    8.485550
     36          1           0       -2.153320    3.097550    9.252110
     37          1           0       -3.631200    2.934000    8.296800
     38          8           0       -7.086200   -1.260320   15.987650
     39          6           0       -6.054390   -0.108070   14.206410
     40          6           0       -6.866290   -0.048240   15.456020
     41          8           0       -3.527580    1.042690   10.097870
     42          6           0       -5.016600    1.095360   12.404810
     43          1           0       -4.787420    2.023410   11.901010
     44          6           0       -5.766430    1.093520   13.567800
     45          1           0       -6.138340    2.013990   13.997090
     46          8           0       -7.283780    0.965220   15.944340
     47          6           0       -7.974980   -2.718820   17.594010
     48          1           0       -8.474540   -3.309600   16.825380
     49          1           0       -6.995040   -3.159740   17.780440
     50          6           0       -7.858470   -1.269750   17.186030
     51          1           0       -8.838350   -0.828790   16.999580
     52          1           0       -7.358630   -0.678840   17.954370
     53          8           0       -8.747350   -2.728090   18.791950
     54          1           0       -9.617010   -2.334800   18.619000
 ---------------------------------------------------------------------
 Rotational constants (GHZ):           0.8490231           0.0214944           0.0209824
 Standard basis: def2TZVP (5D, 7F)
  1124 basis functions,  1808 primitive gaussians,  1284 cartesian basis functions
   117 alpha electrons      117 beta electrons
       nuclear repulsion energy      2739.5711172106 Hartrees.
 NAtoms=   54 NActive=   54 NUniq=   54 SFac= 1.00D+00 NAtFMM=   60 NAOKFM=F Big=F
 Integral buffers will be    131072 words long.
 Raffenetti 2 integral format.
 Two-electron integral symmetry is turned off.
 One-electron integrals computed using PRISM.
   1 Symmetry operations used in ECPInt.
 ECPInt:  NShTT=   97020 NPrTT=  299148 LenC2=   54191 LenP2D=  114248.
 LDataN:  DoStor=T MaxTD1= 6 Len=  172
 NBasis=  1124 RedAO= T EigKep=  6.84D-06  NBF=  1124
 NBsUse=  1124 1.00D-06 EigRej= -1.00D+00 NBFU=  1124
 ExpMin= 9.52D-02 ExpMax= 2.70D+04 ExpMxC= 9.22D+02 IAcc=3 IRadAn=         5 AccDes= 0.00D+00
 Harris functional with IExCor= 1009 and IRadAn=       5 diagonalized for initial guess.
 HarFok:  IExCor= 1009 AccDes= 0.00D+00 IRadAn=         5 IDoV= 1 UseB2=F ITyADJ=14
 ICtDFT=  3500011 ScaDFX=  1.000000  1.000000  1.000000  1.000000
 FoFCou: FMM=F IPFlag=           0 FMFlag=      100000 FMFlg1=           0
         NFxFlg=           0 DoJE=T BraDBF=F KetDBF=T FulRan=T
         wScrn=  0.000000 ICntrl=       500 IOpCl=  0 I1Cent=   200000004 NGrid=           0
         NMat0=    1 NMatS0=      1 NMatT0=    0 NMatD0=    1 NMtDS0=    0 NMtDT0=    0
 Symmetry not used in FoFCou.
 Requested convergence on RMS density matrix=1.00D-08 within  32 cycles.
 Requested convergence on MAX density matrix=1.00D-06.
 Requested convergence on             energy=1.00D-06.
 No special actions if energy rises.
 Integral accuracy reduced to 1.0D-05 until final iterations.
 Failed to achieve initial convergence to 1.0D-08 in 10 cycles.
 Switch to full accuracy anyway.
 SCF Done:  E(RM062X) =  -1603.87606889     A.U. after   16 cycles
            NFock= 16  Conv=0.49D-08     -V/T= 2.0044
 QCSCF skips out because SCF is already converged.

 **********************************************************************

            Population analysis using the SCF Density.

 **********************************************************************

 Alpha  occ. eigenvalues --  -19.69168 -19.69151 -19.68694 -19.68602 -19.64012
 Alpha  occ. eigenvalues --  -19.63697 -19.63119 -19.63106 -19.62849 -19.62776
 Alpha  occ. eigenvalues --  -10.68935 -10.68922 -10.68610 -10.68607 -10.61403
 Alpha  occ. eigenvalues --  -10.61361 -10.60454 -10.60402 -10.59809 -10.59788
 Alpha  occ. eigenvalues --  -10.57831 -10.57804 -10.57758 -10.57734 -10.56812
 Alpha  occ. eigenvalues --  -10.56790 -10.56788 -10.56750 -10.56605 -10.56579
 Alpha  occ. eigenvalues --  -10.56562 -10.56528  -1.26155  -1.25737  -1.25520
 Alpha  occ. eigenvalues --   -1.25499  -1.16562  -1.16516  -1.16220  -1.16090
 Alpha  occ. eigenvalues --   -1.15710  -1.15352  -0.99640  -0.99581  -0.92291
 Alpha  occ. eigenvalues --   -0.90914  -0.89343  -0.87377  -0.87287  -0.86899
 Alpha  occ. eigenvalues --   -0.86215  -0.80331  -0.77343  -0.75476  -0.73468
 Alpha  occ. eigenvalues --   -0.72949  -0.71512  -0.70993  -0.69418  -0.68021
 Alpha  occ. eigenvalues --   -0.67054  -0.65748  -0.64253  -0.64219  -0.62208
 Alpha  occ. eigenvalues --   -0.61994  -0.61728  -0.60953  -0.60841  -0.58702
 Alpha  occ. eigenvalues --   -0.58288  -0.57760  -0.57697  -0.57567  -0.57203
 Alpha  occ. eigenvalues --   -0.57164  -0.54342  -0.54203  -0.53560  -0.53443
 Alpha  occ. eigenvalues --   -0.53286  -0.52546  -0.52364  -0.52246  -0.51756
 Alpha  occ. eigenvalues --   -0.51536  -0.51407  -0.50124  -0.48494  -0.48391
 Alpha  occ. eigenvalues --   -0.47885  -0.47004  -0.46345  -0.45847  -0.45215
 Alpha  occ. eigenvalues --   -0.45093  -0.45018  -0.44521  -0.44143  -0.42522
 Alpha  occ. eigenvalues --   -0.42362  -0.41641  -0.41622  -0.39825  -0.39474
 Alpha  occ. eigenvalues --   -0.39237  -0.39121  -0.37884  -0.37549  -0.37544
 Alpha  occ. eigenvalues --   -0.37344  -0.36846  -0.36683  -0.33669  -0.33633
 Alpha  occ. eigenvalues --   -0.33365  -0.33332
 Alpha virt. eigenvalues --   -0.05277  -0.05176   0.00060   0.00092   0.04165
 Alpha virt. eigenvalues --    0.04375   0.04757   0.04802   0.05853   0.06821
 Alpha virt. eigenvalues --    0.07155   0.07830   0.09269   0.09547   0.09691
 Alpha virt. eigenvalues --    0.09829   0.10497   0.10790   0.10947   0.11282
 Alpha virt. eigenvalues --    0.11738   0.12065   0.12211   0.12491   0.13315
 Alpha virt. eigenvalues --    0.13754   0.13933   0.14350   0.14677   0.15891
 Alpha virt. eigenvalues --    0.16409   0.16643   0.16729   0.16834   0.17023
 Alpha virt. eigenvalues --    0.17055   0.18118   0.18220   0.18841   0.19229
 Alpha virt. eigenvalues --    0.19570   0.19661   0.20689   0.20914   0.21138
 Alpha virt. eigenvalues --    0.21273   0.21580   0.22175   0.22606   0.22848
 Alpha virt. eigenvalues --    0.23175   0.24656   0.24692   0.24817   0.24959
 Alpha virt. eigenvalues --    0.25128   0.25266   0.25407   0.25725   0.26082
 Alpha virt. eigenvalues --    0.26449   0.26545   0.27256   0.27740   0.27893
 Alpha virt. eigenvalues --    0.28052   0.28454   0.28835   0.28901   0.29073
 Alpha virt. eigenvalues --    0.29249   0.29422   0.29928   0.30539   0.30605
 Alpha virt. eigenvalues --    0.30850   0.31355   0.32216   0.32993   0.33136
 Alpha virt. eigenvalues --    0.33287   0.33646   0.33930   0.34246   0.35679
 Alpha virt. eigenvalues --    0.36281   0.36317   0.36578   0.36670   0.36714
 Alpha virt. eigenvalues --    0.37352   0.37444   0.37789   0.38354   0.38610
 Alpha virt. eigenvalues --    0.38811   0.39226   0.39351   0.39702   0.39759
 Alpha virt. eigenvalues --    0.40125   0.40530   0.41246   0.41713   0.41932
 Alpha virt. eigenvalues --    0.42110   0.42386   0.42549   0.43072   0.43209
 Alpha virt. eigenvalues --    0.43736   0.43753   0.43840   0.44008   0.44042
 Alpha virt. eigenvalues --    0.44270   0.44317   0.45052   0.45156   0.45244
 Alpha virt. eigenvalues --    0.45366   0.45715   0.46113   0.46151   0.46366
 Alpha virt. eigenvalues --    0.46735   0.47690   0.48539   0.49056   0.49450
 Alpha virt. eigenvalues --    0.49532   0.50120   0.50359   0.51121   0.51424
 Alpha virt. eigenvalues --    0.51824   0.52124   0.52388   0.52473   0.52583
 Alpha virt. eigenvalues --    0.52954   0.53291   0.53401   0.53629   0.54147
 Alpha virt. eigenvalues --    0.54833   0.55034   0.55377   0.55588   0.55904
 Alpha virt. eigenvalues --    0.56045   0.56782   0.56974   0.57827   0.58136
 Alpha virt. eigenvalues --    0.58696   0.59462   0.60805   0.61266   0.61621
 Alpha virt. eigenvalues --    0.62023   0.62245   0.62515   0.62840   0.63162
 Alpha virt. eigenvalues --    0.63462   0.63954   0.64253   0.64676   0.65088
 Alpha virt. eigenvalues --    0.65187   0.66035   0.66431   0.66723   0.66957
 Alpha virt. eigenvalues --    0.67221   0.67594   0.68298   0.68690   0.68955
 Alpha virt. eigenvalues --    0.69126   0.69303   0.70782   0.71349   0.71653
 Alpha virt. eigenvalues --    0.72629   0.72999   0.73207   0.73653   0.73907
 Alpha virt. eigenvalues --    0.74163   0.74593   0.75216   0.75417   0.75534
 Alpha virt. eigenvalues --    0.75863   0.76560   0.77139   0.77516   0.77914
 Alpha virt. eigenvalues --    0.78208   0.78475   0.78984   0.79139   0.79344
 Alpha virt. eigenvalues --    0.80324   0.81075   0.81554   0.81802   0.82591
 Alpha virt. eigenvalues --    0.82819   0.83310   0.84406   0.84930   0.85212
 Alpha virt. eigenvalues --    0.85681   0.86422   0.86665   0.86909   0.87426
 Alpha virt. eigenvalues --    0.87744   0.87983   0.88441   0.88705   0.88862
 Alpha virt. eigenvalues --    0.89378   0.89913   0.90142   0.90468   0.91048
 Alpha virt. eigenvalues --    0.91746   0.92235   0.92277   0.92708   0.93035
 Alpha virt. eigenvalues --    0.93190   0.93321   0.93665   0.94132   0.94857
 Alpha virt. eigenvalues --    0.95347   0.95409   0.95745   0.96176   0.96355
 Alpha virt. eigenvalues --    0.97672   0.98725   1.00522   1.00658   1.00975
 Alpha virt. eigenvalues --    1.01584   1.02748   1.02980   1.03074   1.03473
 Alpha virt. eigenvalues --    1.03694   1.05944   1.06102   1.07176   1.07583
 Alpha virt. eigenvalues --    1.07684   1.08076   1.08496   1.08853   1.09419
 Alpha virt. eigenvalues --    1.09985   1.10186   1.10955   1.11605   1.12227
 Alpha virt. eigenvalues --    1.13967   1.14089   1.14344   1.15081   1.16047
 Alpha virt. eigenvalues --    1.16379   1.18247   1.18458   1.19523   1.21073
 Alpha virt. eigenvalues --    1.21885   1.22948   1.23394   1.24877   1.25015
 Alpha virt. eigenvalues --    1.25139   1.25243   1.25740   1.26012   1.26260
 Alpha virt. eigenvalues --    1.28767   1.30824   1.31010   1.31592   1.31940
 Alpha virt. eigenvalues --    1.32375   1.32586   1.33401   1.33559   1.33946
 Alpha virt. eigenvalues --    1.34133   1.34461   1.38132   1.38235   1.38635
 Alpha virt. eigenvalues --    1.38950   1.39739   1.40056   1.41207   1.41323
 Alpha virt. eigenvalues --    1.41532   1.41578   1.41865   1.42317   1.43516
 Alpha virt. eigenvalues --    1.44289   1.44329   1.44701   1.45616   1.46028
 Alpha virt. eigenvalues --    1.47192   1.48379   1.48945   1.49939   1.51120
 Alpha virt. eigenvalues --    1.51877   1.52384   1.52434   1.52880   1.53051
 Alpha virt. eigenvalues --    1.53177   1.54530   1.54884   1.55072   1.55418
 Alpha virt. eigenvalues --    1.56751   1.56986   1.57107   1.57568   1.57615
 Alpha virt. eigenvalues --    1.58137   1.58630   1.59210   1.59561   1.59887
 Alpha virt. eigenvalues --    1.60382   1.60990   1.62042   1.62317   1.62396
 Alpha virt. eigenvalues --    1.62614   1.62848   1.63082   1.63221   1.63546
 Alpha virt. eigenvalues --    1.63599   1.63894   1.63930   1.64060   1.64676
 Alpha virt. eigenvalues --    1.64833   1.65252   1.66180   1.67977   1.68713
 Alpha virt. eigenvalues --    1.68893   1.69766   1.70424   1.72165   1.72619
 Alpha virt. eigenvalues --    1.73370   1.74497   1.74528   1.74703   1.74812
 Alpha virt. eigenvalues --    1.75811   1.75922   1.77351   1.79080   1.79608
 Alpha virt. eigenvalues --    1.79864   1.81589   1.82478   1.82624   1.82886
 Alpha virt. eigenvalues --    1.83432   1.83679   1.84596   1.85262   1.85801
 Alpha virt. eigenvalues --    1.86505   1.86728   1.87110   1.87710   1.87978
 Alpha virt. eigenvalues --    1.88333   1.88526   1.89221   1.89731   1.91163
 Alpha virt. eigenvalues --    1.91322   1.91985   1.92613   1.92732   1.92835
 Alpha virt. eigenvalues --    1.92994   1.95093   1.96838   1.97552   1.99226
 Alpha virt. eigenvalues --    1.99575   1.99989   2.00030   2.00379   2.01081
 Alpha virt. eigenvalues --    2.02199   2.02524   2.03171   2.03342   2.04065
 Alpha virt. eigenvalues --    2.04604   2.04815   2.05118   2.05496   2.05842
 Alpha virt. eigenvalues --    2.05949   2.06003   2.06286   2.06977   2.07441
 Alpha virt. eigenvalues --    2.07747   2.09224   2.09663   2.10299   2.11231
 Alpha virt. eigenvalues --    2.12821   2.13280   2.14098   2.14740   2.15275
 Alpha virt. eigenvalues --    2.15457   2.16144   2.16503   2.17440   2.17953
 Alpha virt. eigenvalues --    2.18059   2.18872   2.18978   2.19824   2.21271
 Alpha virt. eigenvalues --    2.22289   2.25088   2.25603   2.26653   2.27244
 Alpha virt. eigenvalues --    2.27565   2.27800   2.28475   2.28628   2.29067
 Alpha virt. eigenvalues --    2.29193   2.30896   2.31322   2.31963   2.32144
 Alpha virt. eigenvalues --    2.32410   2.32458   2.32669   2.33170   2.33777
 Alpha virt. eigenvalues --    2.33889   2.34052   2.36038   2.37301   2.37578
 Alpha virt. eigenvalues --    2.37850   2.38700   2.39149   2.39687   2.40040
 Alpha virt. eigenvalues --    2.40290   2.41582   2.42022   2.43114   2.43661
 Alpha virt. eigenvalues --    2.43970   2.44241   2.44807   2.45841   2.46232
 Alpha virt. eigenvalues --    2.46802   2.47971   2.48089   2.48980   2.49352
 Alpha virt. eigenvalues --    2.50290   2.50508   2.51298   2.51774   2.54946
 Alpha virt. eigenvalues --    2.55153   2.55183   2.55745   2.55830   2.55905
 Alpha virt. eigenvalues --    2.56831   2.57092   2.57795   2.59426   2.59539
 Alpha virt. eigenvalues --    2.60165   2.60461   2.60564   2.60787   2.61236
 Alpha virt. eigenvalues --    2.61928   2.62040   2.62809   2.63857   2.64043
 Alpha virt. eigenvalues --    2.65207   2.65396   2.65649   2.66245   2.66648
 Alpha virt. eigenvalues --    2.66926   2.68161   2.69168   2.69729   2.70307
 Alpha virt. eigenvalues --    2.70393   2.70526   2.71082   2.71514   2.71879
 Alpha virt. eigenvalues --    2.72146   2.72246   2.72357   2.72913   2.72992
 Alpha virt. eigenvalues --    2.73554   2.75544   2.75613   2.76337   2.76671
 Alpha virt. eigenvalues --    2.76938   2.77779   2.78669   2.80004   2.80090
 Alpha virt. eigenvalues --    2.80406   2.81485   2.82487   2.82863   2.83089
 Alpha virt. eigenvalues --    2.83780   2.83871   2.84255   2.84393   2.84993
 Alpha virt. eigenvalues --    2.85652   2.86190   2.86255   2.86331   2.86523
 Alpha virt. eigenvalues --    2.86687   2.87068   2.87355   2.88487   2.88869
 Alpha virt. eigenvalues --    2.89315   2.89692   2.90106   2.91491   2.91997
 Alpha virt. eigenvalues --    2.92735   2.92935   2.93407   2.93773   2.93869
 Alpha virt. eigenvalues --    2.94278   2.94810   2.94846   2.95665   2.96084
 Alpha virt. eigenvalues --    2.96669   2.97135   2.97428   2.97504   2.97713
 Alpha virt. eigenvalues --    2.98000   2.98444   3.01049   3.01577   3.02042
 Alpha virt. eigenvalues --    3.02240   3.02398   3.03083   3.03390   3.03966
 Alpha virt. eigenvalues --    3.05308   3.06139   3.06345   3.06441   3.07263
 Alpha virt. eigenvalues --    3.07553   3.08382   3.08956   3.09267   3.10156
 Alpha virt. eigenvalues --    3.11363   3.11895   3.12767   3.12989   3.13556
 Alpha virt. eigenvalues --    3.14168   3.14364   3.14820   3.15268   3.15592
 Alpha virt. eigenvalues --    3.16557   3.16884   3.17142   3.17961   3.18483
 Alpha virt. eigenvalues --    3.18666   3.18958   3.19132   3.19321   3.20350
 Alpha virt. eigenvalues --    3.21546   3.22146   3.22720   3.23016   3.23438
 Alpha virt. eigenvalues --    3.23995   3.24201   3.24408   3.24914   3.25183
 Alpha virt. eigenvalues --    3.25267   3.25486   3.25769   3.26013   3.26191
 Alpha virt. eigenvalues --    3.26432   3.27007   3.27940   3.28709   3.28839
 Alpha virt. eigenvalues --    3.29453   3.29873   3.30053   3.30700   3.31278
 Alpha virt. eigenvalues --    3.31981   3.32838   3.33549   3.34302   3.34474
 Alpha virt. eigenvalues --    3.34717   3.34990   3.35689   3.35937   3.36324
 Alpha virt. eigenvalues --    3.36739   3.37431   3.37935   3.38367   3.38671
 Alpha virt. eigenvalues --    3.38800   3.39288   3.39351   3.39400   3.40355
 Alpha virt. eigenvalues --    3.41019   3.41257   3.41662   3.41929   3.42164
 Alpha virt. eigenvalues --    3.42499   3.42709   3.42966   3.44041   3.44339
 Alpha virt. eigenvalues --    3.45776   3.46011   3.46815   3.47069   3.47203
 Alpha virt. eigenvalues --    3.47851   3.48383   3.48764   3.49086   3.49244
 Alpha virt. eigenvalues --    3.49591   3.49698   3.50779   3.51241   3.51908
 Alpha virt. eigenvalues --    3.52888   3.53189   3.53355   3.53707   3.53893
 Alpha virt. eigenvalues --    3.55151   3.55234   3.55732   3.56165   3.57025
 Alpha virt. eigenvalues --    3.57998   3.58711   3.59556   3.62113   3.62312
 Alpha virt. eigenvalues --    3.62854   3.62991   3.64476   3.64635   3.65207
 Alpha virt. eigenvalues --    3.66047   3.66377   3.66761   3.69530   3.70107
 Alpha virt. eigenvalues --    3.70692   3.72266   3.74237   3.75739   3.76452
 Alpha virt. eigenvalues --    3.77955   3.78663   3.80601   3.81095   3.83036
 Alpha virt. eigenvalues --    3.83325   3.84018   3.84572   3.85438   3.85538
 Alpha virt. eigenvalues --    3.86246   3.86939   3.87770   3.88568   3.89197
 Alpha virt. eigenvalues --    3.90746   3.91576   3.91911   3.92187   3.92878
 Alpha virt. eigenvalues --    3.93473   3.93816   3.94901   3.97041   3.97803
 Alpha virt. eigenvalues --    3.98992   3.99140   4.03325   4.03614   4.04814
 Alpha virt. eigenvalues --    4.05064   4.05599   4.05809   4.06042   4.08262
 Alpha virt. eigenvalues --    4.09547   4.11440   4.13661   4.14593   4.14944
 Alpha virt. eigenvalues --    4.14999   4.15167   4.15814   4.18112   4.18588
 Alpha virt. eigenvalues --    4.18871   4.19032   4.19034   4.19855   4.20173
 Alpha virt. eigenvalues --    4.20224   4.24291   4.24756   4.24927   4.26115
 Alpha virt. eigenvalues --    4.26445   4.26910   4.27041   4.28262   4.30042
 Alpha virt. eigenvalues --    4.30129   4.30621   4.32724   4.33415   4.34020
 Alpha virt. eigenvalues --    4.34850   4.36721   4.37631   4.38436   4.43510
 Alpha virt. eigenvalues --    4.44035   4.44923   4.45757   4.46419   4.48889
 Alpha virt. eigenvalues --    4.49305   4.51141   4.53887   4.54377   4.54616
 Alpha virt. eigenvalues --    4.55077   4.57524   4.59941   4.59968   4.60623
 Alpha virt. eigenvalues --    4.60650   4.62456   4.62681   4.65633   4.65987
 Alpha virt. eigenvalues --    4.70117   4.70424   4.70876   4.71810   4.73653
 Alpha virt. eigenvalues --    4.74332   4.76589   4.77847   4.78779   4.81262
 Alpha virt. eigenvalues --    4.81447   4.88855   4.89311   4.89596   4.90042
 Alpha virt. eigenvalues --    4.91645   4.91937   4.97066   4.97377   4.97649
 Alpha virt. eigenvalues --    4.98920   5.07987   5.08055   5.13954   5.15189
 Alpha virt. eigenvalues --    5.17212   5.17754   5.17767   5.17839   5.22068
 Alpha virt. eigenvalues --    5.22401   5.25486   5.25749   5.26145   5.26541
 Alpha virt. eigenvalues --    5.28642   5.28885   5.29630   5.30264   5.30286
 Alpha virt. eigenvalues --    5.32083   5.32317   5.33129   5.34064   5.34412
 Alpha virt. eigenvalues --    5.36690   5.37147   5.45288   5.46214   5.46554
 Alpha virt. eigenvalues --    5.46786   5.48158   5.49914   5.50423   5.50907
 Alpha virt. eigenvalues --    5.50994   5.51452   5.54094   5.54622   5.59180
 Alpha virt. eigenvalues --    5.59296   5.66228   5.67583   5.67740   5.67898
 Alpha virt. eigenvalues --    5.68105   5.68782   5.69548   5.69707   5.71500
 Alpha virt. eigenvalues --    5.72535   5.73390   5.75767   5.84470   5.86472
 Alpha virt. eigenvalues --    5.88422   5.90840   5.91415   5.92141   5.96002
 Alpha virt. eigenvalues --    5.97004   5.97345   5.97681   6.12340   6.14284
 Alpha virt. eigenvalues --    6.14472   6.16542   6.17181   6.17656   6.17841
 Alpha virt. eigenvalues --    6.17943   6.22831   6.25038   6.25683   6.25718
 Alpha virt. eigenvalues --    6.28590   6.29513   6.34326   6.34674   6.34905
 Alpha virt. eigenvalues --    6.34981   6.41562   6.42249   6.42384   6.43081
 Alpha virt. eigenvalues --    6.44046   6.44275   6.54506   6.55809   6.57323
 Alpha virt. eigenvalues --    6.58409   6.63592   6.63913   6.64406   6.64478
 Alpha virt. eigenvalues --    6.64565   6.64771   6.70838   6.71091   6.73745
 Alpha virt. eigenvalues --    6.74421   6.74850   6.75213   6.75364   6.75628
 Alpha virt. eigenvalues --    6.77733   6.78450   6.86810   6.87550   6.87659
 Alpha virt. eigenvalues --    6.87738   6.91874   6.92147   6.93359   6.93584
 Alpha virt. eigenvalues --    6.94476   6.94557   7.06505   7.06594   7.07524
 Alpha virt. eigenvalues --    7.07870   7.09700   7.10919   7.12335   7.12823
 Alpha virt. eigenvalues --    7.14790   7.15171   7.31848   7.34569   7.34789
 Alpha virt. eigenvalues --    7.37140   7.40256   7.42239   7.43203   7.45320
 Alpha virt. eigenvalues --   22.32037  22.32133  22.49655  22.52869  22.57630
 Alpha virt. eigenvalues --   22.62594  22.62942  22.65606  22.80676  22.80716
 Alpha virt. eigenvalues --   22.83960  22.84034  22.86945  22.87284  23.00502
 Alpha virt. eigenvalues --   23.00561  23.38031  23.38250  23.52888  23.53466
 Alpha virt. eigenvalues --   23.65927  23.66246  43.90283  43.91688  44.06278
 Alpha virt. eigenvalues --   44.06976  44.08667  44.09967  44.40133  44.40334
 Alpha virt. eigenvalues --   44.45520  44.48162
          Condensed to atoms (all electrons):
 Mulliken charges:
               1
     1  O   -0.459611
     2  H    0.314256
     3  C   -0.162922
     4  H    0.171732
     5  C   -0.165094
     6  H    0.182001
     7  O   -0.333699
     8  C   -0.140945
     9  H    0.158326
    10  H    0.135563
    11  C   -0.062657
    12  H    0.136742
    13  H    0.129952
    14  C    0.040011
    15  C    0.339258
    16  O   -0.275687
    17  C    0.041288
    18  C    0.339596
    19  O   -0.278762
    20  C   -0.162558
    21  H    0.170096
    22  C   -0.163230
    23  H    0.181115
    24  O   -0.332589
    25  C   -0.162758
    26  H    0.169823
    27  C   -0.162883
    28  H    0.181210
    29  O   -0.332343
    30  C   -0.113954
    31  H    0.155911
    32  H    0.156112
    33  C    0.041019
    34  C    0.339468
    35  C   -0.113890
    36  H    0.155887
    37  H    0.155977
    38  O   -0.279082
    39  C    0.039790
    40  C    0.337798
    41  O   -0.275572
    42  C   -0.162855
    43  H    0.171841
    44  C   -0.164802
    45  H    0.181931
    46  O   -0.333618
    47  C   -0.048350
    48  H    0.130213
    49  H    0.139999
    50  C   -0.158953
    51  H    0.134437
    52  H    0.162453
    53  O   -0.460962
    54  H    0.313969
 Sum of Mulliken charges =  -0.00000
 Mulliken charges with hydrogens summed into heavy atoms:
               1
     1  O   -0.145355
     3  C    0.008810
     5  C    0.016907
     7  O   -0.333699
     8  C    0.152945
    11  C    0.204037
    14  C    0.040011
    15  C    0.339258
    16  O   -0.275687
    17  C    0.041288
    18  C    0.339596
    19  O   -0.278762
    20  C    0.007538
    22  C    0.017885
    24  O   -0.332589
    25  C    0.007065
    27  C    0.018327
    29  O   -0.332343
    30  C    0.198069
    33  C    0.041019
    34  C    0.339468
    35  C    0.197975
    38  O   -0.279082
    39  C    0.039790
    40  C    0.337798
    41  O   -0.275572
    42  C    0.008986
    44  C    0.017129
    46  O   -0.333618
    47  C    0.221863
    50  C    0.137937
    53  O   -0.146994
 Electronic spatial extent (au):  <R**2>=         118126.2189
 Charge=             -0.0000 electrons
 Dipole moment (field-independent basis, Debye):
    X=              0.2033    Y=              0.1858    Z=             -0.1398  Tot=              0.3088
 Quadrupole moment (field-independent basis, Debye-Ang):
   XX=           -160.7040   YY=           -188.0191   ZZ=           -220.7457
   XY=             17.2924   XZ=             -4.5083   YZ=             -6.1537
 Traceless Quadrupole moment (field-independent basis, Debye-Ang):
   XX=             29.1189   YY=              1.8038   ZZ=            -30.9228
   XY=             17.2924   XZ=             -4.5083   YZ=             -6.1537
 Octapole moment (field-independent basis, Debye-Ang**2):
  XXX=           1319.6236  YYY=          -1001.7067  ZZZ=          -5753.4079  XYY=            586.5148
  XXY=           -355.7170  XXZ=          -1388.3206  XZZ=            527.9689  YZZ=           -485.2471
  YYZ=          -1674.1232  XYZ=            132.6624
 Hexadecapole moment (field-independent basis, Debye-Ang**3):
 XXXX=         -18582.7332 YYYY=         -11528.4086 ZZZZ=        -145872.3492 XXXY=           -660.2977
 XXXZ=          20565.1287 YYYX=          -1558.7895 YYYZ=           -889.8804 ZZZX=          28121.0637
 ZZZY=          -1522.5366 XXYY=          -5493.2228 XXZZ=         -21252.9939 YYZZ=         -24066.9692
 XXYZ=          -1413.1351 YYXZ=           8943.0239 ZZXY=            527.8085
 N-N= 2.739571117211D+03 E-N=-9.229734124579D+03  KE= 1.596783656109D+03
   1 Symmetry operations used in ECPInt.
 ECPInt:  NShTT=   97020 NPrTT=  299148 LenC2=   54191 LenP2D=  114248.
 LDataN:  DoStor=T MaxTD1= 7 Len=  274
 Calling FoFJK, ICntrl=      2127 FMM=F ISym2X=0 I1Cent= 0 IOpClX= 0 NMat=1 NMatS=1 NMatT=0.
 -------------------------------------------------------------------
 Center     Atomic                   Forces (Hartrees/Bohr)
 Number     Number              X              Y              Z
 -------------------------------------------------------------------
      1        8           0.000001446    0.000001253   -0.000003953
      2        1          -0.000000826   -0.000000242    0.000001442
      3        6          -0.000000075   -0.000009471   -0.000002564
      4        1           0.000000735    0.000007452    0.000002237
      5        6          -0.000000960    0.000006849    0.000002617
      6        1           0.000002222   -0.000001484   -0.000000360
      7        8           0.000007552   -0.000011104   -0.000014478
      8        6           0.000001974    0.000001763    0.000006463
      9        1           0.000000024   -0.000001043   -0.000001553
     10        1          -0.000002311    0.000001535   -0.000001102
     11        6           0.000004852   -0.000002849    0.000002659
     12        1          -0.000003946    0.000001575   -0.000000085
     13        1          -0.000000678   -0.000000820   -0.000000668
     14        6           0.000006891   -0.000005758   -0.000013154
     15        6          -0.000015051    0.000006055    0.000030825
     16        8           0.000026747    0.000050096   -0.000061809
     17        6           0.000000240    0.000006822   -0.000003913
     18        6          -0.000019752   -0.000056651    0.000054730
     19        8           0.000004047    0.000004758   -0.000011740
     20        6          -0.000001888    0.000002364    0.000002216
     21        1           0.000000654    0.000000764    0.000000176
     22        6           0.000003508   -0.000002045   -0.000007495
     23        1          -0.000000312   -0.000000399    0.000002871
     24        8           0.000003262    0.000020529   -0.000022794
     25        6           0.000040835    0.000068743   -0.000086545
     26        1          -0.000045397    0.000082921    0.000082440
     27        6          -0.000031441   -0.000006778    0.000030933
     28        1           0.000023489    0.000010939   -0.000017812
     29        8           0.000099215   -0.000095143   -0.000165542
     30        6          -0.000039922   -0.000006708    0.000092934
     31        1           0.000003410    0.000003678   -0.000008308
     32        1           0.000001883   -0.000003151   -0.000015029
     33        6           0.000102045    0.000042034   -0.000163236
     34        6          -0.000205561    0.000013857    0.000344344
     35        6          -0.000014667   -0.000019575    0.000032506
     36        1          -0.000001681   -0.000001480    0.000000292
     37        1           0.000004073   -0.000001061    0.000000665
     38        8           0.001077565    0.006243359   -0.004533288
     39        6           0.000098717    0.000524074   -0.000198413
     40        6           0.000370906   -0.002837498    0.000410997
     41        8           0.000089766    0.000071887   -0.000168566
     42        6           0.000017409    0.000030176   -0.000044388
     43        1           0.000019667    0.000001247   -0.000017866
     44        6           0.000092143   -0.000170703   -0.000143920
     45        1          -0.000009048   -0.000019825    0.000050144
     46        8          -0.000363569    0.001050263   -0.000126053
     47        6          -0.017546909    0.008508843    0.010340143
     48        1           0.001434976    0.000175497   -0.004139494
     49        1          -0.002476566    0.001234526    0.004905169
     50        6           0.008715864   -0.004604147   -0.006201674
     51        1          -0.001064940    0.000518037   -0.001019617
     52        1          -0.000414147   -0.000863299    0.000402268
     53        8           0.001620089   -0.005606971    0.001087223
     54        1           0.008383441   -0.004363691   -0.000690874
 -------------------------------------------------------------------
 Cartesian Forces:  Max     0.017546909 RMS     0.002321913

 GradGradGradGradGradGradGradGradGradGradGradGradGradGradGradGradGradGrad
 Berny optimization.
 FormGI is forming the generalized inverse of G from B-inverse, IUseBI=4.
 Internal  Forces:  Max     0.019448899 RMS     0.001857982
 Search for a local minimum.
 Step number   1 out of a maximum of  272
 All quantities printed in internal units (Hartrees-Bohrs-Radians)
 Mixed Optimization -- RFO/linear search
 Second derivative matrix not updated -- first step.
 ITU=  0
     Eigenvalues ---    0.00561   0.00635   0.00635   0.00863   0.00880
     Eigenvalues ---    0.00880   0.00885   0.01318   0.01352   0.01352
     Eigenvalues ---    0.01356   0.01356   0.01396   0.01397   0.01398
     Eigenvalues ---    0.01400   0.01560   0.01763   0.01765   0.01842
     Eigenvalues ---    0.01844   0.02202   0.02203   0.02225   0.02225
     Eigenvalues ---    0.02237   0.02237   0.02250   0.02250   0.02257
     Eigenvalues ---    0.02258   0.02268   0.02268   0.02270   0.02270
     Eigenvalues ---    0.02458   0.02463   0.02463   0.02496   0.05118
     Eigenvalues ---    0.05477   0.05634   0.05635   0.05635   0.05635
     Eigenvalues ---    0.05814   0.05856   0.05856   0.05858   0.05858
     Eigenvalues ---    0.05999   0.11075   0.11075   0.11076   0.11076
     Eigenvalues ---    0.11165   0.11506   0.13495   0.13496   0.13496
     Eigenvalues ---    0.13496   0.13570   0.13870   0.16000   0.16000
     Eigenvalues ---    0.16000   0.16000   0.16000   0.16000   0.16000
     Eigenvalues ---    0.16000   0.16000   0.16000   0.21932   0.21932
     Eigenvalues ---    0.21932   0.21932   0.21944   0.22000   0.22000
     Eigenvalues ---    0.22024   0.22982   0.22983   0.24000   0.24000
     Eigenvalues ---    0.25000   0.25000   0.25000   0.25000   0.25000
     Eigenvalues ---    0.25000   0.25000   0.25000   0.25000   0.25000
     Eigenvalues ---    0.25000   0.25000   0.25000   0.25000   0.25000
     Eigenvalues ---    0.25000   0.30807   0.31360   0.31360   0.33163
     Eigenvalues ---    0.33296   0.33296   0.33340   0.34272   0.34490
     Eigenvalues ---    0.34741   0.34743   0.34743   0.34743   0.34745
     Eigenvalues ---    0.34745   0.34746   0.34749   0.34755   0.34838
     Eigenvalues ---    0.35798   0.35800   0.35800   0.35801   0.35924
     Eigenvalues ---    0.35926   0.35926   0.35927   0.41243   0.41613
     Eigenvalues ---    0.41614   0.41660   0.41661   0.42920   0.42925
     Eigenvalues ---    0.43300   0.43304   0.44011   0.46985   0.46988
     Eigenvalues ---    0.47166   0.47171   0.47598   0.47599   0.48412
     Eigenvalues ---    0.48420   0.53377   0.55180   0.56742   0.56828
     Eigenvalues ---    0.56828   0.57377   1.04580   1.04795   1.04853
     Eigenvalues ---    1.04853
 RFO step:  Lambda=-4.62366618D-03 EMin= 5.61318973D-03
 Linear search not attempted -- first point.
 Iteration  1 RMS(Cart)=  0.02524069 RMS(Int)=  0.00064065
 Iteration  2 RMS(Cart)=  0.00090741 RMS(Int)=  0.00027693
 Iteration  3 RMS(Cart)=  0.00000127 RMS(Int)=  0.00027692
 Iteration  4 RMS(Cart)=  0.00000000 RMS(Int)=  0.00027692
 Variable       Old X    -DE/DX   Delta X   Delta X   Delta X     New X
                                 (Linear)    (Quad)   (Total)
    R1        1.81672  -0.00000   0.00000  -0.00000  -0.00000   1.81672
    R2        2.66442   0.00000   0.00000   0.00001   0.00001   2.66442
    R3        2.04201  -0.00001   0.00000  -0.00002  -0.00002   2.04199
    R4        2.61508   0.00000   0.00000   0.00000   0.00000   2.61509
    R5        2.63041   0.00000   0.00000   0.00000   0.00000   2.63041
    R6        2.04396   0.00000   0.00000   0.00001   0.00001   2.04397
    R7        2.62819  -0.00000   0.00000  -0.00000  -0.00000   2.62819
    R8        2.26859   0.00002   0.00000   0.00002   0.00002   2.26860
    R9        2.06075   0.00000   0.00000   0.00001   0.00001   2.06076
   R10        2.06511  -0.00000   0.00000  -0.00001  -0.00001   2.06510
   R11        2.86382  -0.00000   0.00000  -0.00000  -0.00000   2.86382
   R12        2.69899  -0.00000   0.00000  -0.00001  -0.00001   2.69898
   R13        2.05938   0.00000   0.00000   0.00001   0.00001   2.05939
   R14        2.06874  -0.00000   0.00000  -0.00000  -0.00000   2.06873
   R15        2.82066  -0.00001   0.00000  -0.00002  -0.00002   2.82064
   R16        2.63025   0.00000   0.00000   0.00001   0.00001   2.63026
   R17        2.53079   0.00001   0.00000   0.00002   0.00002   2.53080
   R18        2.53616  -0.00004   0.00000  -0.00007  -0.00007   2.53609
   R19        2.69359   0.00004   0.00000   0.00010   0.00010   2.69369
   R20        2.81758   0.00001   0.00000   0.00004   0.00004   2.81761
   R21        2.62846   0.00000   0.00000   0.00000   0.00000   2.62847
   R22        2.26778   0.00001   0.00000   0.00001   0.00001   2.26778
   R23        2.04195   0.00000   0.00000   0.00000   0.00000   2.04195
   R24        2.61496   0.00000   0.00000   0.00000   0.00000   2.61496
   R25        2.04398   0.00000   0.00000   0.00000   0.00000   2.04399
   R26        2.04197  -0.00002   0.00000  -0.00006  -0.00006   2.04191
   R27        2.61495   0.00006   0.00000   0.00011   0.00011   2.61505
   R28        2.63036  -0.00010   0.00000  -0.00021  -0.00021   2.63015
   R29        2.04396   0.00001   0.00000   0.00002   0.00002   2.04397
   R30        2.62837   0.00002   0.00000   0.00006   0.00006   2.62843
   R31        2.26756   0.00018   0.00000   0.00017   0.00017   2.26773
   R32        2.06095  -0.00000   0.00000  -0.00000  -0.00000   2.06095
   R33        2.06084   0.00001   0.00000   0.00003   0.00003   2.06087
   R34        2.85330  -0.00000   0.00000  -0.00000  -0.00000   2.85330
   R35        2.69418  -0.00007   0.00000  -0.00016  -0.00016   2.69402
   R36        2.81835  -0.00009   0.00000  -0.00025  -0.00025   2.81810
   R37        2.63036  -0.00002   0.00000  -0.00002  -0.00002   2.63033
   R38        2.53543   0.00011   0.00000   0.00019   0.00019   2.53562
   R39        2.06094  -0.00000   0.00000  -0.00000  -0.00000   2.06093
   R40        2.06095  -0.00000   0.00000  -0.00001  -0.00001   2.06093
   R41        2.53542  -0.00102   0.00000  -0.00178  -0.00178   2.53365
   R42        2.69417   0.00470   0.00000   0.01117   0.01117   2.70534
   R43        2.81835   0.00049   0.00000   0.00144   0.00144   2.81978
   R44        2.62839   0.00001   0.00000   0.00001   0.00001   2.62841
   R45        2.26756   0.00096   0.00000   0.00091   0.00091   2.26847
   R46        2.04197   0.00001   0.00000   0.00004   0.00004   2.04200
   R47        2.61493   0.00011   0.00000   0.00023   0.00023   2.61515
   R48        2.04394   0.00001   0.00000   0.00002   0.00002   2.04396
   R49        2.06090   0.00217   0.00000   0.00615   0.00615   2.06705
   R50        2.06097  -0.00189   0.00000  -0.00536  -0.00536   2.05561
   R51        2.85332   0.00382   0.00000   0.01200   0.01200   2.86532
   R52        2.69357  -0.00502   0.00000  -0.01192  -0.01192   2.68165
   R53        2.06091   0.00134   0.00000   0.00381   0.00381   2.06471
   R54        2.06089  -0.00037   0.00000  -0.00106  -0.00106   2.05983
   R55        1.83303  -0.00916   0.00000  -0.01702  -0.01702   1.81601
    A1        1.90607  -0.00000   0.00000  -0.00002  -0.00002   1.90606
    A2        2.10354   0.00000   0.00000   0.00003   0.00003   2.10357
    A3        2.09176  -0.00001   0.00000  -0.00003  -0.00003   2.09173
    A4        2.08788   0.00000   0.00000   0.00000   0.00000   2.08789
    A5        2.11640  -0.00000   0.00000  -0.00000  -0.00000   2.11639
    A6        2.09389   0.00000   0.00000   0.00001   0.00001   2.09390
    A7        2.07290  -0.00000   0.00000  -0.00001  -0.00001   2.07289
    A8        1.88555  -0.00000   0.00000  -0.00001  -0.00001   1.88554
    A9        1.93773   0.00000   0.00000   0.00000   0.00000   1.93773
   A10        1.91860  -0.00000   0.00000   0.00000   0.00000   1.91860
   A11        1.94594  -0.00000   0.00000  -0.00001  -0.00001   1.94593
   A12        1.90845   0.00000   0.00000   0.00001   0.00001   1.90846
   A13        1.86762   0.00000   0.00000   0.00001   0.00001   1.86763
   A14        1.93249   0.00000   0.00000   0.00000   0.00000   1.93249
   A15        1.86142   0.00000   0.00000   0.00001   0.00001   1.86143
   A16        1.95371   0.00000   0.00000   0.00000   0.00000   1.95371
   A17        1.91475   0.00000   0.00000   0.00000   0.00000   1.91476
   A18        1.91706  -0.00000   0.00000  -0.00001  -0.00001   1.91705
   A19        1.88275   0.00000   0.00000  -0.00000  -0.00000   1.88275
   A20        2.05286   0.00000   0.00000   0.00001   0.00001   2.05287
   A21        2.10126  -0.00000   0.00000  -0.00001  -0.00001   2.10124
   A22        2.12907   0.00000   0.00000   0.00000   0.00000   2.12907
   A23        2.16632   0.00001   0.00000   0.00003   0.00003   2.16635
   A24        2.15078  -0.00001   0.00000  -0.00004  -0.00004   2.15074
   A25        1.96608   0.00000   0.00000   0.00002   0.00002   1.96610
   A26        2.01268   0.00004   0.00000   0.00015   0.00015   2.01284
   A27        2.12963  -0.00000   0.00000  -0.00001  -0.00001   2.12962
   A28        2.10154  -0.00000   0.00000  -0.00001  -0.00001   2.10153
   A29        2.05201   0.00001   0.00000   0.00003   0.00003   2.05204
   A30        1.96622  -0.00002   0.00000  -0.00007  -0.00007   1.96615
   A31        2.14589   0.00004   0.00000   0.00016   0.00016   2.14605
   A32        2.17108  -0.00002   0.00000  -0.00009  -0.00009   2.17098
   A33        2.01803   0.00000   0.00000   0.00000   0.00000   2.01803
   A34        2.09056  -0.00000   0.00000   0.00000   0.00000   2.09056
   A35        2.08832   0.00000   0.00000   0.00000   0.00000   2.08832
   A36        2.10430  -0.00000   0.00000  -0.00000  -0.00000   2.10430
   A37        2.09348   0.00000   0.00000   0.00001   0.00001   2.09349
   A38        2.07332  -0.00000   0.00000  -0.00002  -0.00002   2.07329
   A39        2.11639   0.00000   0.00000   0.00001   0.00001   2.11640
   A40        2.10358   0.00007   0.00000   0.00055   0.00055   2.10412
   A41        2.09178  -0.00018   0.00000  -0.00097  -0.00097   2.09081
   A42        2.08782   0.00011   0.00000   0.00043   0.00043   2.08825
   A43        2.11619   0.00002   0.00000   0.00013   0.00013   2.11631
   A44        2.09350   0.00003   0.00000   0.00011   0.00011   2.09361
   A45        2.07349  -0.00004   0.00000  -0.00023  -0.00023   2.07326
   A46        1.88934  -0.00000   0.00000  -0.00003  -0.00003   1.88931
   A47        1.94441  -0.00001   0.00000  -0.00008  -0.00008   1.94434
   A48        1.91799   0.00001   0.00000   0.00009   0.00009   1.91809
   A49        1.94438  -0.00000   0.00000  -0.00004  -0.00004   1.94435
   A50        1.91816   0.00001   0.00000   0.00006   0.00006   1.91821
   A51        1.84959  -0.00000   0.00000  -0.00000  -0.00000   1.84959
   A52        2.05192   0.00003   0.00000   0.00010   0.00010   2.05202
   A53        2.10185  -0.00008   0.00000  -0.00030  -0.00030   2.10155
   A54        2.12941   0.00005   0.00000   0.00020   0.00020   2.12962
   A55        2.17035   0.00010   0.00000   0.00038   0.00038   2.17073
   A56        2.14687  -0.00016   0.00000  -0.00063  -0.00063   2.14625
   A57        1.96596   0.00006   0.00000   0.00025   0.00025   1.96621
   A58        1.84960   0.00001   0.00000   0.00005   0.00005   1.84965
   A59        1.91832   0.00000   0.00000   0.00003   0.00003   1.91835
   A60        1.91834  -0.00001   0.00000  -0.00004  -0.00004   1.91830
   A61        1.94426  -0.00001   0.00000  -0.00003  -0.00003   1.94423
   A62        1.94419   0.00000   0.00000   0.00000   0.00000   1.94419
   A63        1.88919   0.00000   0.00000  -0.00001  -0.00001   1.88917
   A64        2.01288   0.00192   0.00000   0.00755   0.00755   2.02043
   A65        2.12944  -0.00013   0.00000  -0.00050  -0.00050   2.12894
   A66        2.10186  -0.00016   0.00000  -0.00068  -0.00068   2.10118
   A67        2.05189   0.00029   0.00000   0.00118   0.00118   2.05307
   A68        1.96599   0.00040   0.00000   0.00158   0.00157   1.96756
   A69        2.14686   0.00036   0.00000   0.00142   0.00141   2.14826
   A70        2.17034  -0.00076   0.00000  -0.00299  -0.00300   2.16734
   A71        2.01291  -0.00001   0.00000  -0.00005  -0.00005   2.01287
   A72        2.09178  -0.00001   0.00000  -0.00010  -0.00010   2.09168
   A73        2.08784  -0.00002   0.00000  -0.00007  -0.00007   2.08777
   A74        2.10357   0.00003   0.00000   0.00017   0.00017   2.10374
   A75        2.09350   0.00012   0.00000   0.00052   0.00052   2.09402
   A76        2.07348  -0.00011   0.00000  -0.00058  -0.00058   2.07290
   A77        2.11621  -0.00001   0.00000   0.00006   0.00006   2.11627
   A78        1.88920   0.00285   0.00000  -0.00275  -0.00305   1.88615
   A79        1.94421  -0.00605   0.00000  -0.01608  -0.01851   1.92569
   A80        1.91834  -0.00213   0.00000   0.03103   0.02950   1.94785
   A81        1.94427  -0.00353   0.00000  -0.02687  -0.02583   1.91844
   A82        1.91834  -0.01076   0.00000  -0.07697  -0.07581   1.84253
   A83        1.84953   0.01945   0.00000   0.09173   0.09108   1.94062
   A84        1.84966   0.00846   0.00000   0.04039   0.04039   1.89005
   A85        1.91805  -0.00338   0.00000  -0.01565  -0.01565   1.90240
   A86        1.91808  -0.00194   0.00000  -0.00084  -0.00084   1.91724
   A87        1.94433  -0.00158   0.00000  -0.00754  -0.00755   1.93678
   A88        1.94443  -0.00276   0.00000  -0.01316  -0.01331   1.93112
   A89        1.88932   0.00115   0.00000  -0.00299  -0.00315   1.88618
   A90        1.91063  -0.00397   0.00000  -0.02410  -0.02410   1.88653
    D1       -1.21393   0.00000   0.00000   0.00002   0.00002  -1.21391
    D2        2.98696   0.00000   0.00000   0.00001   0.00001   2.98697
    D3        0.93158  -0.00000   0.00000   0.00001   0.00001   0.93159
    D4       -0.00022   0.00000   0.00000   0.00000   0.00000  -0.00022
    D5        3.14106   0.00000   0.00000   0.00002   0.00002   3.14108
    D6        3.14154   0.00000   0.00000   0.00002   0.00002   3.14156
    D7       -0.00036   0.00000   0.00000   0.00004   0.00004  -0.00032
    D8        0.00098  -0.00000   0.00000  -0.00006  -0.00006   0.00092
    D9       -3.14094  -0.00000   0.00000  -0.00004  -0.00004  -3.14098
   D10       -3.14079  -0.00000   0.00000  -0.00008  -0.00008  -3.14087
   D11        0.00048  -0.00000   0.00000  -0.00006  -0.00006   0.00042
   D12       -3.14142   0.00000   0.00000   0.00001   0.00001  -3.14141
   D13       -0.00024   0.00000   0.00000   0.00002   0.00002  -0.00022
   D14       -0.00013   0.00000   0.00000   0.00003   0.00003  -0.00010
   D15        3.14105   0.00000   0.00000   0.00004   0.00004   3.14109
   D16       -1.02102   0.00000   0.00000   0.00003   0.00003  -1.02099
   D17        1.02885   0.00000   0.00000   0.00004   0.00004   1.02889
   D18        3.09555   0.00000   0.00000   0.00003   0.00003   3.09559
   D19        1.08241  -0.00000   0.00000   0.00002   0.00002   1.08242
   D20        3.13228   0.00000   0.00000   0.00003   0.00003   3.13230
   D21       -1.08421  -0.00000   0.00000   0.00002   0.00002  -1.08419
   D22       -3.11472   0.00000   0.00000   0.00002   0.00002  -3.11470
   D23       -1.06485   0.00000   0.00000   0.00003   0.00003  -1.06482
   D24        1.00185   0.00000   0.00000   0.00002   0.00002   1.00188
   D25        1.05877   0.00000   0.00000   0.00012   0.00012   1.05889
   D26       -1.00846   0.00000   0.00000   0.00012   0.00012  -1.00834
   D27       -3.11850   0.00000   0.00000   0.00013   0.00013  -3.11837
   D28       -0.00136   0.00000   0.00000   0.00024   0.00024  -0.00112
   D29       -3.14141   0.00000   0.00000   0.00019   0.00019  -3.14122
   D30        3.14065   0.00000   0.00000   0.00023   0.00023   3.14088
   D31        0.00061   0.00000   0.00000   0.00018   0.00018   0.00078
   D32       -3.14076  -0.00000   0.00000  -0.00004  -0.00004  -3.14080
   D33        0.00072  -0.00000   0.00000  -0.00007  -0.00007   0.00065
   D34        0.00040  -0.00000   0.00000  -0.00003  -0.00003   0.00037
   D35       -3.14130  -0.00000   0.00000  -0.00006  -0.00006  -3.14136
   D36        0.00784  -0.00000   0.00000  -0.00002  -0.00002   0.00782
   D37       -3.13528   0.00000   0.00000   0.00003   0.00003  -3.13525
   D38        3.14153   0.00000   0.00000   0.00015   0.00015  -3.14151
   D39        0.00021  -0.00000   0.00000  -0.00004  -0.00004   0.00017
   D40        3.13938   0.00000   0.00000   0.00013   0.00013   3.13951
   D41       -1.04094   0.00000   0.00000   0.00014   0.00014  -1.04080
   D42        1.03659   0.00000   0.00000   0.00011   0.00011   1.03671
   D43       -0.00421   0.00000   0.00000   0.00024   0.00024  -0.00397
   D44        3.13710   0.00001   0.00000   0.00044   0.00044   3.13754
   D45        3.13770   0.00000   0.00000   0.00022   0.00022   3.13792
   D46       -0.00418   0.00001   0.00000   0.00042   0.00042  -0.00376
   D47        0.00000   0.00000   0.00000   0.00001   0.00001   0.00001
   D48        3.14119   0.00000   0.00000   0.00006   0.00006   3.14124
   D49        3.14129   0.00000   0.00000   0.00003   0.00003   3.14132
[...]
 0013427,0.00010492,-0.00007144,0.00003637,0.00003309,0.00000167,-0.000
 00162,-0.00001278,0.00006317,-0.00003897,-0.00009548,-0.00003509,-0.00
 000688,0.00005196,0.00000376,0.00000020,-0.00000582,0.00000443,0.00000
 049,-0.00000678,0.00008006,0.00007489,-0.00012962,-0.00012782,-0.00001
 689,0.00022632,-0.00001216,-0.00001874,0.00002274,-0.00000075,-0.00000
 054,-0.00000176,0.00000185,-0.00000017,-0.00000016,0.03889181,-0.01006
 740,-0.00608242,-0.00069021,0.00003975,-0.00087811,0.00099171,-0.00565
 798,0.00193531,0.00006443,0.00006980,-0.00011549,0.00009745,-0.0000055
 3,-0.00004190,0.00001492,0.00000394,-0.00000788,-0.00003696,-0.0001286
 2,-0.00001229,-0.00001700,0.00000730,0.00000826,-0.00023147,0.00218161
 ,0.00011690,-0.00797420,0.00272191,-0.00093667,0.00067450,-0.00021940,
 0.00047042,0.00104976,0.00182783,0.00003084,-0.05524924,0.02307727,-0.
 06165630,0.04199362,-0.02330994,0.06864371,-0.00000137,-0.00000067,0.0
 0000205,0.00000046,0.00000017,-0.00000043,-0.00000018,-0.00000015,0.00
 000038,0.00000091,-0.00000076,-0.00000139,0.00000003,-0.00000065,0.000
 00014,0.00000003,0.00000003,-0.00000014,-0.00000306,0.00000146,0.00000
 462,0.00000193,0.00000010,-0.00000306,-0.00000015,0.00000001,0.0000003
 1,-0.00000032,0.,0.00000027,0.00000090,0.00000085,-0.00000153,-0.00000
 008,0.,-0.00000012,0.00000013,0.00000002,0.00000015,-0.00000220,-0.000
 00019,0.00000345,0.00000610,0.00000161,-0.00000987,-0.00001379,-0.0000
 2378,0.00002575,-0.00000202,-0.00000218,0.00000351,0.00001064,0.000025
 38,-0.00002115,-0.00000334,-0.00000328,0.00000580,-0.00000009,-0.00000
 023,0.00000024,-0.00000006,-0.00000018,0.00000004,-0.00000088,0.000001
 53,0.00000119,0.00000040,0.00000044,-0.00000081,-0.00000344,-0.0000094
 1,0.00000739,-0.00003264,-0.00001499,0.00011544,0.00007025,-0.00006282
 ,-0.00000487,-0.00000647,-0.00001702,-0.00003126,-0.00001111,0.0000001
 6,0.00000739,-0.00004780,0.00003177,0.00006609,0.00002043,0.00000368,-
 0.00003607,-0.00000275,-0.00000041,0.00000474,-0.00000247,-0.00000005,
 0.00000402,-0.00005477,-0.00002991,0.00010132,0.00010617,0.00001043,-0
 .00014799,0.00000780,0.00001180,-0.00001474,0.00000074,0.00000028,0.00
 000116,-0.00000129,0.,-0.00000017,0.00936477,0.01065597,0.02423340,-0.
 00086078,-0.00005450,-0.00029233,0.00125395,0.00221867,-0.00037491,-0.
 00004454,-0.00004476,0.00007459,0.00001441,0.00001662,0.00004854,-0.00
 000007,-0.00000232,0.00001088,-0.00003593,0.00005810,-0.00000667,0.000
 00530,0.00000444,-0.00002595,-0.00009498,-0.00101481,0.00080676,-0.000
 16890,0.00001262,-0.00204867,0.00111417,-0.00019561,0.00088469,0.00073
 185,-0.00000694,0.00071539,-0.12097669,-0.07114533,-0.09847122,-0.0130
 8983,-0.01514478,-0.01982199,0.12297281,0.00000026,0.00000009,-0.00000
 014,-0.00000011,-0.00000005,0.00000001,0.00000018,0.00000008,0.0000000
 4,-0.00000019,-0.00000004,-0.00000018,0.00000013,-0.00000007,0.0000000
 4,-0.00000014,-0.00000003,-0.00000008,0.00000040,-0.00000004,-0.000000
 10,-0.00000029,-0.00000001,0.00000012,0.00000001,0.00000001,0.,0.00000
 006,-0.00000003,0.,-0.00000023,-0.00000007,0.00000009,0.00000004,-0.00
 000002,0.00000002,0.,0.00000004,0.,0.00000009,0.00000002,-0.00000010,-
 0.00000052,-0.00000014,0.00000038,0.00000026,-0.00000228,0.00000114,0.
 00000013,-0.00000022,-0.00000010,-0.00000103,0.00000286,0.00000009,0.0
 0000034,0.00000020,-0.00000028,0.00000007,-0.00000005,0.00000004,-0.00
 000011,0.00000001,0.,0.00000002,0.00000012,0.00000013,-0.00000015,0.,-
 0.00000002,0.00000114,-0.00000170,-0.00000052,0.00000826,-0.00002463,0
 .00006036,-0.00002727,0.00000035,-0.00000210,0.00006899,0.00001226,-0.
 00005303,-0.00000712,-0.00000137,-0.00000389,-0.00000552,0.00001104,0.
 00000999,-0.00000013,0.00000077,-0.00000389,-0.00000005,-0.00000049,0.
 00000064,-0.00000014,-0.00000022,0.00000059,-0.00002938,-0.00004672,0.
 00004438,0.00002565,-0.00000314,-0.00003564,-0.00000055,0.00000175,-0.
 00000057,-0.00000027,0.00000030,0.00000006,0.00000016,-0.00000016,0.00
 000042,0.00346240,0.00177590,0.00163423,-0.00046430,-0.00011999,-0.000
 40135,-0.00024057,0.00210759,0.00163517,-0.00000472,-0.00000843,0.0000
 0903,0.00000057,0.00002758,0.00002209,0.00000025,0.00000057,0.00000305
 ,0.00001188,0.00003648,-0.00000587,-0.00000844,-0.00000972,0.00002213,
 0.00053160,-0.00060320,-0.00022234,-0.01667895,-0.01820489,-0.02382115
 ,-0.00034147,-0.00524497,0.00216523,0.00045560,0.00151564,-0.00028766,
 -0.06993968,-0.12402066,-0.09834346,0.00738467,0.00714896,0.00961374,0
 .07431459,0.13266349,0.00000248,0.00000176,-0.00000327,-0.00000088,-0.
 00000065,0.00000063,0.00000005,0.00000002,0.00000022,-0.00000159,0.000
 00101,0.00000185,0.00000034,0.00000123,-0.00000054,-0.00000034,-0.0000
 0018,0.00000031,0.00000465,-0.00000054,-0.00000667,-0.00000346,-0.0000
 0047,0.00000510,0.00000031,0.,-0.00000047,0.00000054,-0.00000006,-0.00
 000048,-0.00000169,-0.00000186,0.00000238,0.00000008,-0.00000005,0.000
 00014,-0.00000007,0.00000006,-0.00000011,0.00000333,0.00000006,-0.0000
 0513,-0.00000956,-0.00000536,0.00001535,0.00002197,0.00004073,-0.00003
 926,0.00000304,0.00000339,-0.00000527,-0.00001578,-0.00004600,0.000030
 87,0.00000579,0.00000689,-0.00000982,-0.00000001,0.00000073,0.00000006
 ,0.,0.00000023,-0.00000024,0.00000182,-0.00000232,-0.00000218,-0.00000
 077,-0.00000076,0.00000100,0.00000451,0.00001895,-0.00000856,0.0000385
 3,-0.00004756,-0.00006921,-0.00013363,0.00013512,0.00004012,-0.0000167
 5,0.00005364,0.00010077,0.00000232,-0.00000129,-0.00000312,0.00005898,
 -0.00002472,-0.00008049,-0.00003223,-0.00000761,0.00005181,0.00000415,
 0.00000017,-0.00000643,0.00000351,0.00000039,-0.00000544,0.00005174,0.
 00010549,-0.00009976,-0.00013221,-0.00002504,0.00018658,-0.00001352,-0
 .00001932,0.00002168,0.00000003,-0.00000031,-0.00000182,0.00000178,-0.
 00000067,-0.00000023,-0.00232485,-0.00968304,-0.03532018,0.00069331,0.
 00048986,-0.00003745,-0.00038179,-0.00908750,0.00065306,0.00006598,0.0
 0007053,-0.00010889,0.00002915,0.00000019,-0.00014418,0.00000172,0.000
 00032,-0.00001923,0.00003449,-0.00016621,0.00007298,0.00000623,0.00002
 421,0.00000163,-0.00122923,0.00283595,0.00171297,0.00502455,0.00525530
 ,0.00784157,0.00092584,0.00260972,-0.00053728,-0.00008452,-0.00071154,
 0.00050612,-0.09108735,-0.09480590,-0.17472189,-0.00461659,-0.00334544
 ,-0.00185125,0.09396547,0.10706998,0.20038026,-0.00001250,-0.00000866,
 0.00001852,0.00000419,0.00000310,-0.00000400,0.00000138,-0.00000043,-0
 .00000062,0.00000470,-0.00000440,-0.00000861,-0.00000112,-0.00000481,0
 .00000363,0.00000075,0.00000085,-0.00000263,-0.00002059,0.00000136,0.0
 0003384,0.00001643,0.00000252,-0.00002696,-0.00000137,0.00000026,0.000
 00248,-0.00000242,0.00000015,0.00000232,0.00000825,0.00000911,-0.00001
 415,-0.00000025,0.00000005,-0.00000068,0.00000063,0.00000012,0.0000010
 0,-0.00001520,-0.00000018,0.00002379,0.00004471,0.00002865,-0.00007635
 ,-0.00008424,-0.00015601,0.00016329,-0.00001419,-0.00001213,0.00002435
 ,0.00006747,0.00017715,-0.00014034,-0.00002797,-0.00003509,0.00005034,
 0.00000102,-0.00000284,-0.00000039,-0.00000048,-0.00000129,0.00000005,
 -0.00000669,0.00000913,0.00000981,0.00000228,0.00000329,-0.00000557,-0
 .00001835,-0.00006885,0.00004623,0.00003485,0.00005728,0.00001494,0.00
 003912,-0.00005687,-0.00018232,0.00002007,-0.00006468,0.00001568,-0.00
 000520,0.00000283,-0.00001041,-0.00016623,0.00005001,0.00027004,0.0001
 0934,0.00003098,-0.00018573,-0.00001152,-0.00000023,0.00001750,-0.0000
 1072,0.00000089,0.00001969,-0.00015041,-0.00001513,0.00023094,0.000359
 32,0.00015964,-0.00060754,0.00004988,0.00006389,-0.00009671,0.00000155
 ,0.00000385,0.00000687,-0.00000638,0.00000109,0.00000229,0.00069180,-0
 .00664432,0.00363919,-0.00021485,-0.00050463,0.00015541,0.00044877,0.0
 0414735,-0.00067337,-0.00019935,-0.00024434,0.00036038,0.00000595,-0.0
 0006934,0.00003190,-0.00001586,-0.00000792,0.00002010,-0.00012700,0.00
 015618,0.00016433,0.00001185,0.00002454,-0.00004871,0.00024646,-0.0017
 0721,-0.00004129,-0.13646051,-0.00528378,0.09419644,0.00879628,0.00414
 977,-0.00093458,-0.02205025,-0.00440439,0.03846039,-0.00791442,0.00093
 523,0.01312451,0.00249105,-0.00123179,-0.00013544,-0.00014866,0.001451
 30,-0.00082147,0.63372043,-0.00000867,-0.00000359,0.00001290,0.0000028
 2,0.00000088,-0.00000292,-0.00000110,-0.00000152,0.00000262,0.00000413
 ,-0.00000403,-0.00000671,0.00000036,-0.00000285,0.00000048,0.00000015,
 0.00000005,-0.00000091,-0.00001742,0.00000898,0.00002647,0.00001126,0.
 00000054,-0.00001781,-0.00000067,0.00000009,0.00000176,-0.00000192,0.0
 0000002,0.00000137,0.00000585,0.00000453,-0.00000984,-0.00000054,0.000
 00004,-0.00000073,0.00000081,0.00000022,0.00000102,-0.00001171,-0.0000
 0112,0.00001845,0.00003436,0.00000802,-0.00005568,-0.00006362,-0.00009
 737,0.00011812,-0.00001079,-0.00000887,0.00001843,0.00005671,0.0001021
 7,-0.00010800,-0.00001911,-0.00001773,0.00003308,-0.00000050,-0.000000
 50,0.00000119,-0.00000002,-0.00000102,-0.00000025,-0.00000382,0.000007
 13,0.00000519,0.00000209,0.00000231,-0.00000437,-0.00002173,-0.0000328
 8,0.00004220,-0.00006593,-0.00019159,0.00016920,0.00000788,-0.00011660
 ,-0.00004399,0.00002862,0.00005246,-0.00004706,-0.00002726,-0.00000640
 ,0.00003538,-0.00017111,0.00013390,0.00025202,0.00008471,0.00001622,-0
 .00013928,-0.00001073,-0.00000173,0.00001395,-0.00000778,-0.00000092,0
 .00001666,-0.00015829,-0.00006773,0.00025989,0.00034540,0.00001756,-0.
 00054780,0.00003840,0.00003997,-0.00007044,0.00000376,0.00000277,0.000
 00470,-0.00000561,0.00000086,-0.00000114,-0.00443563,-0.01165760,0.008
 66246,-0.00009665,-0.00099695,0.00033558,-0.00073799,0.00492411,0.0000
 8581,-0.00015819,-0.00013767,0.00027294,-0.00003563,-0.00005174,0.0000
 6106,-0.00002456,-0.00000357,0.00003490,-0.00018954,0.00028634,0.00026
 063,0.00003745,0.00003961,-0.00007219,0.00033095,-0.00126567,-0.000274
 08,0.00571132,-0.06569994,0.01002942,0.01024168,0.00635039,-0.01310962
 ,0.00567370,0.00396907,-0.01179040,-0.01676639,0.00534674,0.02909942,-
 0.00009171,0.00255094,-0.00095249,0.00050842,0.00321963,-0.00072677,-0
 .12061200,0.08983965,0.00001853,0.00001290,-0.00002491,-0.00000646,-0.
 00000488,0.00000511,-0.00000072,0.00000065,0.00000197,-0.00000854,0.00
 000587,0.00001072,0.00000266,0.00000693,-0.00000457,-0.00000230,-0.000
 00138,0.00000290,0.00003065,-0.00000093,-0.00004541,-0.00002436,-0.000
 00371,0.00003667,0.00000204,-0.00000014,-0.00000327,0.00000372,-0.0000
 0044,-0.00000324,-0.00001269,-0.00001321,0.00001866,0.00000056,-0.0000
 0032,0.00000099,-0.00000059,0.00000025,-0.00000100,0.00002135,0.000000
 18,-0.00003293,-0.00006407,-0.00004122,0.00010482,0.00012378,0.0002211
 2,-0.00022526,0.00001999,0.00001710,-0.00003372,-0.00009873,-0.0002517
 3,0.00019214,0.00004034,0.00004967,-0.00006943,-0.00000081,0.00000420,
 0.00000112,-0.00000016,0.00000169,-0.00000070,0.00001043,-0.00001268,-
 0.00001328,-0.00000452,-0.00000476,0.00000686,0.00003045,0.00009909,-0
 .00005992,0.00004218,-0.00005706,0.00003178,-0.00020082,0.00006973,0.0
 0014798,0.00000743,0.00008618,0.00000329,-0.00000950,-0.00000589,0.000
 00107,0.00025463,-0.00006705,-0.00036654,-0.00016394,-0.00004522,0.000
 25457,0.00001810,-0.00000061,-0.00002529,0.00001552,-0.00000010,-0.000
 02595,0.00020541,0.00002466,-0.00033291,-0.00052945,-0.00023127,0.0008
 4237,-0.00007734,-0.00009146,0.00013060,-0.00000083,-0.00000318,-0.000
 00974,0.00000965,-0.00000350,-0.00000204,0.00250774,0.01106522,-0.0032
 4281,0.00005475,0.00080954,-0.00037643,0.00032175,-0.00630586,0.001088
 91,0.00029112,0.00034732,-0.00050231,0.00002064,0.00011307,-0.00003209
 ,0.00001956,0.00000987,-0.00003562,0.00019417,-0.00024640,-0.00026693,
 -0.00004181,-0.00003761,0.00005343,-0.00044079,0.00250508,0.00021170,0
 .04956490,0.02201202,-0.21972205,0.02381568,0.00337221,-0.03549117,0.0
 0540295,-0.00096498,0.00011028,0.01668103,0.00102408,-0.02344160,-0.00
 164572,-0.00176636,0.00048185,0.00063355,0.00087866,0.00147574,-0.0363
 0287,-0.05856473,0.33705966,0.00000420,0.00000282,-0.00000646,-0.00000
 138,-0.00000097,0.00000142,-0.00000042,0.00000024,-0.00000003,-0.00000
 159,0.00000160,0.00000311,0.00000027,0.00000162,-0.00000119,-0.0000001
 5,-0.00000025,0.00000090,0.00000714,-0.00000094,-0.00001200,-0.0000055
 5,-0.00000080,0.00000935,0.00000046,-0.00000011,-0.00000088,0.00000082
 ,-0.00000003,-0.00000080,-0.00000272,-0.00000303,0.00000496,0.00000008
 ,0.,0.00000025,-0.00000026,-0.00000008,-0.00000039,0.00000534,0.000000
 13,-0.00000840,-0.00001553,-0.00000926,0.00002672,0.00002948,0.0000536
 9,-0.00005756,0.00000498,0.00000426,-0.00000858,-0.00002382,-0.0000603
 8,0.00004983,0.00000955,0.00001178,-0.00001740,-0.00000035,0.00000088,
 0.,0.00000023,0.00000046,0.00000004,0.00000220,-0.00000324,-0.00000337
 ,-0.00000071,-0.00000114,0.00000206,0.00000658,0.00002299,-0.00001708,
 0.00001565,0.00001594,-0.00002234,-0.00002921,0.00002855,0.00003529,-0
 .00000479,0.00001098,0.00000359,0.00000381,-0.00000054,-0.00000173,0.0
 0006362,-0.00002666,-0.00010048,-0.00003873,-0.00001046,0.00006601,0.0
 0000420,0.00000028,-0.00000638,0.00000387,-0.00000029,-0.00000719,0.00
 005855,0.00001162,-0.00009507,-0.00013623,-0.00004883,0.00022574,-0.00
 001717,-0.00002204,0.00003433,-0.00000086,-0.00000137,-0.00000241,0.00
 000229,-0.00000032,-0.00000060,0.00114553,0.00160352,-0.00143245,0.000
 02277,0.00015418,-0.00011576,-0.00006877,-0.00132533,0.00055732,0.0000
 7116,0.00008344,-0.00012846,0.00000637,0.00001492,-0.00001018,0.000006
 95,0.00000303,-0.00000732,0.00003801,-0.00006639,-0.00006099,-0.000009
 00,-0.00001332,0.00002242,-0.00003497,0.00050479,-0.00011119,-0.021973
 50,0.00671337,-0.00577454,0.00244340,0.00040986,-0.00128088,0.00072281
 ,-0.00105129,0.00413410,-0.00005821,-0.00143679,-0.00011387,-0.0002767
 4,-0.00075134,0.00034387,-0.00007348,0.00003226,-0.00004840,-0.4794918
 0,0.12062578,-0.06072822,0.49758564,0.00000311,0.00000088,-0.00000488,
 -0.00000097,-0.00000010,0.00000117,0.00000049,0.00000068,-0.00000136,-
 0.00000123,0.00000146,0.00000240,-0.00000035,0.00000079,0.,0.00000010,
 0.00000005,0.00000034,0.00000633,-0.00000421,-0.00000992,-0.00000388,-
 0.00000002,0.00000639,0.00000017,-0.00000005,-0.00000065,0.00000069,0.
 00000002,-0.00000044,-0.00000210,-0.00000131,0.00000378,0.00000023,0.0
 0000001,0.00000030,-0.00000038,-0.00000015,-0.00000047,0.00000414,0.00
 000052,-0.00000658,-0.00001233,-0.00000131,0.00002012,0.00002052,0.000
 02805,-0.00003848,0.00000383,0.00000270,-0.00000654,-0.00002023,-0.000
 02758,0.00003779,0.00000665,0.00000539,-0.00001163,0.00000026,-0.00000
 009,-0.00000062,-0.00000001,0.00000040,0.00000026,0.00000099,-0.000002
 31,-0.00000145,-0.00000068,-0.00000075,0.00000163,0.00000868,0.0000068
 4,-0.00001634,0.00002352,0.00004360,-0.00005515,0.00000264,0.00003278,
 0.00002366,-0.00000978,-0.00000650,0.00000732,0.00000916,0.00000232,-0
 .00000770,0.00005165,-0.00004592,-0.00007970,-0.00002508,-0.00000366,0
 .00004312,0.00000325,0.00000060,-0.00000386,0.00000196,0.00000023,-0.0
 0000522,0.00004890,0.00001322,-0.00007847,-0.00010376,0.00000290,0.000
 16688,-0.00001249,-0.00001062,0.00002336,-0.00000163,-0.00000107,-0.00
 000149,0.00000187,-0.00000004,0.00000065,0.00094097,-0.00051497,-0.000
 36231,0.00000606,0.00002725,-0.00008289,-0.00033909,-0.00026189,0.0006
 1343,0.00004743,0.00003661,-0.00008225,0.00000668,-0.00001038,-0.00000
 763,0.00000282,0.00000235,-0.00000277,0.00002141,-0.00004383,-0.000024
 56,-0.00001326,-0.00001552,0.00002287,0.00027593,0.00002483,-0.0002925
 9,-0.00284564,-0.00135994,0.00047799,0.00069877,0.00006031,0.00066737,
 0.00008729,0.00028235,-0.00092239,-0.00392362,0.00218804,0.00041179,0.
 00094056,-0.00039168,0.00063116,-0.00010341,-0.00023240,-0.00001475,0.
 12967073,-0.03655555,0.02598940,-0.12547785,0.03672664,-0.00000401,-0.
 00000292,0.00000512,0.00000142,0.00000117,-0.00000103,0.00000014,-0.00
 000015,-0.00000072,0.00000179,-0.00000105,-0.00000179,-0.00000075,-0.0
 0000134,0.00000100,0.00000065,0.00000033,-0.00000057,-0.00000615,-0.00
 000059,0.00000872,0.00000515,0.00000089,-0.00000746,-0.00000043,0.0000
 0001,0.00000063,-0.00000079,0.00000012,0.00000066,0.00000281,0.0000028
 7,-0.00000382,-0.00000012,0.00000010,-0.00000019,0.00000006,-0.0000001
 0,0.00000015,-0.00000414,0.00000003,0.00000632,0.00001283,0.00000946,-
 0.00002071,-0.00002375,-0.00004151,0.00004139,-0.00000391,-0.00000302,
 0.00000647,0.00001935,0.00004790,-0.00003598,-0.00000837,-0.00001065,0
 .00001415,0.00000019,-0.00000088,-0.00000044,0.00000014,-0.00000031,0.
 00000018,-0.00000217,0.00000229,0.00000258,0.00000103,0.00000096,-0.00
 000121,-0.00000640,-0.00001902,0.00001076,-0.00001429,-0.00001321,0.00
 000549,0.00002960,-0.00001654,0.00000379,-0.00000374,-0.00000699,-0.00
 000651,0.00000413,0.00000089,0.00000154,-0.00004380,0.00000712,0.00005
 793,0.00002977,0.00000912,-0.00004328,-0.00000334,0.00000024,0.0000041
 4,-0.00000245,-0.00000014,0.00000406,-0.00003158,-0.00000497,0.0000546
 4,0.00008933,0.00004629,-0.00013841,0.00001562,0.00001624,-0.00002377,
 -0.00000026,0.00000039,0.00000180,-0.00000178,0.00000103,0.00000039,-0
 .00083577,-0.00025612,0.00018786,-0.00001651,-0.00004406,0.00005119,0.
 00016585,0.00063714,-0.00030456,-0.00005057,-0.00006151,0.00008433,-0.
 00000193,-0.00000624,0.00000041,-0.00000080,-0.00000147,0.00000431,-0.
 00002199,0.00003288,0.00002404,0.00000944,0.00000987,-0.00000748,-0.00
 006409,-0.00023034,0.00002889,0.04267701,-0.00984326,0.00079829,0.0001
 8079,-0.00094656,0.00070154,0.00335068,0.00084637,-0.00522167,0.001728
 21,-0.00077403,0.00007442,-0.00063050,0.00096279,-0.00016939,-0.000413
 39,0.00001063,-0.00001438,-0.11078951,0.03666991,-0.05788409,0.0646612
 7,-0.02703009,0.06170029\\0.00000020,-0.00000127,-0.00000039,0.0000000
 9,0.00000067,0.00000004,0.00000101,0.00000014,0.00000019,-0.00000031,-
 0.00000036,0.00000008,-0.00000181,-0.00000001,-0.00000140,-0.00000093,
 -0.00000019,-0.00000056,-0.00000575,-0.00000097,-0.00000395,-0.0000009
 9,-0.00000036,-0.00000040,-0.00000023,0.00000023,-0.00000024,-0.000000
 33,-0.00000021,-0.00000027,-0.00000012,0.00000027,0.00000038,0.0000003
 4,0.00000065,0.00000041,0.00000057,-0.00000058,0.00000018,-0.00000405,
 -0.00000036,-0.00000262,0.00001257,0.00000264,0.00000826,0.00001468,0.
 00000109,0.00000933,0.00001454,0.00000159,0.00000924,-0.00004837,-0.00
 000410,-0.00003081,-0.00000338,-0.00000105,-0.00000196,-0.00000082,-0.
 00000024,-0.00000069,0.00000038,-0.00000024,0.00000048,0.00000221,0.00
 000062,0.00000109,0.00000082,-0.00000005,0.00000055,0.00001954,0.00000
 186,0.00001222,-0.00000103,-0.00000031,-0.00000014,0.00000003,0.000000
 25,-0.00000062,-0.00000050,-0.00000023,-0.00000027,-0.00000107,-0.0000
 0004,-0.00000083,-0.00000649,0.00000037,-0.00000456,-0.00000010,0.0000
 0010,0.00000089,-0.00000037,-0.00000072,-0.00000018,-0.00000050,0.0000
 0040,-0.00000066,-0.00000429,-0.00000022,-0.00000231,0.00001368,0.0000
 0076,0.00000889,-0.00000011,-0.00000018,0.00000045,0.00000019,-0.00000
 047,0.00000066,0.00000067,0.00000047,-0.00000025,-0.00000127,0.0000021
 6,-0.00000351,-0.00000034,0.00000101,0.00000127,0.00000629,-0.00000378
 ,-0.00000283,-0.00000325,-0.00000060,-0.00000336,-0.00000038,0.0000000
 2,-0.00000071,0.00000086,-0.00000005,0.00000048,0.00000136,0.00000011,
 0.00000113,0.00000051,-0.00000013,0.00000027,-0.00000193,0.00000100,0.
 00000226,-0.00000870,-0.00000457,0.00001631,0.00000131,-0.00000093,-0.
 00000273,-0.00000135,-0.00000122,-0.00000439,0.00000068,0.00000872,0.0
 0000370,0.00000061,-0.00000296,0.00000008,-0.00000071,0.00000019,-0.00
 000088,0.00000971,-0.00000135,-0.00000432,-0.00000342,0.00000244,-0.00
 000303\\\@


 CHINESE FORTUNE COOKIE OF JAN 1 1967 SAY....
 ALL THINGS ARE DIFFICULT BEFORE THEY ARE EASY.
 WE LEARN SO LITTLE AND FORGET SO MUCH.
 YOU WILL OVERCOME OBSTACLES TO ACHIEVE SUCCESS.
 AH SO.
 Job cpu time:       2 days  0 hours 17 minutes  4.9 seconds.
 Elapsed time:       0 days  1 hours 20 minutes 30.8 seconds.
 File lengths (MBytes):  RWF=   4967 Int=      0 D2E=      0 Chk=    100 Scr=      1
 Normal termination of Gaussian 16 at Wed Jun 26 17:32:33 2019.
