 Entering Gaussian System, Link 0=g16
 Initial command:
 /nopt/nrel/apps/gaussian/g16B/g16/l1.exe "/dev/shm/Gau-291613.inp" -scrdir="/dev/shm/"
 Default linda workers: r1i1n11
 Default is to use  36 SMP processors on each worker.
 Entering Link 1 = /nopt/nrel/apps/gaussian/g16B/g16/l1.exe PID=    291614.
  
 Copyright (c) 1988-2017, Gaussian, Inc.  All Rights Reserved.
  
 This is part of the Gaussian(R) 16 program.  It is based on
 the Gaussian(R) 09 system (copyright 2009, Gaussian, Inc.),
 the Gaussian(R) 03 system (copyright 2003, Gaussian, Inc.),
 the Gaussian(R) 98 system (copyright 1998, Gaussian, Inc.),
 the Gaussian(R) 94 system (copyright 1995, Gaussian, Inc.),
 the Gaussian 92(TM) system (copyright 1992, Gaussian, Inc.),
 the Gaussian 90(TM) system (copyright 1990, Gaussian, Inc.),
 the Gaussian 88(TM) system (copyright 1988, Gaussian, Inc.),
 the Gaussian 86(TM) system (copyright 1986, Carnegie Mellon
 University), and the Gaussian 82(TM) system (copyright 1983,
 Carnegie Mellon University). Gaussian is a federally registered
 trademark of Gaussian, Inc.
  
 This software contains proprietary and confidential information,
 including trade secrets, belonging to Gaussian, Inc.
  
 This software is provided under written license and may be
 used, copied, transmitted, or stored only in accord with that
 written license.
  
 The following legend is applicable only to US Government
 contracts under FAR:
  
                    RESTRICTED RIGHTS LEGEND
  
 Use, reproduction and disclosure by the US Government is
 subject to restrictions as set forth in subparagraphs (a)
 and (c) of the Commercial Computer Software - Restricted
 Rights clause in FAR 52.227-19.
  
 Gaussian, Inc.
 340 Quinnipiac St., Bldg. 40, Wallingford CT 06492
  
  
 ---------------------------------------------------------------
 Warning -- This program may not be used in any manner that
 competes with the business of Gaussian, Inc. or will provide
 assistance to any competitor of Gaussian, Inc.  The licensee
 of this program is prohibited from giving any competitor of
 Gaussian, Inc. access to this program.  By using this program,
 the user acknowledges that Gaussian, Inc. is engaged in the
 business of creating and licensing software in the field of
 computational chemistry and represents and warrants to the
 licensee that it is not a competitor of Gaussian, Inc. and that
 it will not use this program in any manner prohibited above.
 ---------------------------------------------------------------
  

 Cite this work as:
 Gaussian 16, Revision B.01,
 M. J. Frisch, G. W. Trucks, H. B. Schlegel, G. E. Scuseria, 
 M. A. Robb, J. R. Cheeseman, G. Scalmani, V. Barone, 
 G. A. Petersson, H. Nakatsuji, X. Li, M. Caricato, A. V. Marenich, 
 J. Bloino, B. G. Janesko, R. Gomperts, B. Mennucci, H. P. Hratchian, 
 J. V. Ortiz, A. F. Izmaylov, J. L. Sonnenberg, D. Williams-Young, 
 F. Ding, F. Lipparini, F. Egidi, J. Goings, B. Peng, A. Petrone, 
 T. Henderson, D. Ranasinghe, V. G. Zakrzewski, J. Gao, N. Rega, 
 G. Zheng, W. Liang, M. Hada, M. Ehara, K. Toyota, R. Fukuda, 
 J. Hasegawa, M. Ishida, T. Nakajima, Y. Honda, O. Kitao, H. Nakai, 
 T. Vreven, K. Throssell, J. A. Montgomery, Jr., J. E. Peralta, 
 F. Ogliaro, M. J. Bearpark, J. J. Heyd, E. N. Brothers, K. N. Kudin, 
 V. N. Staroverov, T. A. Keith, R. Kobayashi, J. Normand, 
 K. Raghavachari, A. P. Rendell, J. C. Burant, S. S. Iyengar, 
 J. Tomasi, M. Cossi, J. M. Millam, M. Klene, C. Adamo, R. Cammi, 
 J. W. Ochterski, R. L. Martin, K. Morokuma, O. Farkas, 
 J. B. Foresman, and D. J. Fox, Gaussian, Inc., Wallingford CT, 2016.
 
 ******************************************
 Gaussian 16:  ES64L-G16RevB.01 20-Dec-2017
                27-Jun-2019 
 ******************************************
 %RWF=/dev/shm/,5GB,/tmp/scratch/914756/,-1
 %NoSave
 %Chk=/dev/shm/pet_mono_f1hs_2.chk
 SetLPE:    new flags="-opt 'Tsnet.Node.lindarsharg: ssh'  -nodelist 'r1i1n11.ib0.cm.hpc.nrel.gov' -env GAUSS_MDEF=9663676416 -env GAUSS_EXEDIR="/nopt/nrel/apps/gaussian/g16B/g16/bsd:/nopt/nrel/apps/gaussian/g16B/g16/local:/nopt/nrel/apps/gaussian/g16B/g16/extras:/nopt/nrel/apps/gaussian/g16B/g16""
 Will use up to    1 processors via Linda.
 Default route: CacheSize=180224 MaxDisk=256GB
 ----------------------------------
 # m062x/Def2SVP nosymm scf=xqc opt
 ----------------------------------
 1/4=180224,18=20,19=15,26=3,38=1/1,3;
 2/4=180224,9=110,12=2,15=1,17=6,18=5,40=1/2;
 3/4=180224,5=43,7=101,11=2,25=1,30=1,71=1,74=-55/1,2,3;
 4/4=180224/1;
 5/4=180224,5=2,8=3,13=1,38=5/2,8;
 6/4=180224,7=2,8=2,9=2,10=2,28=1/1;
 7/4=180224,30=1/1,2,3,16;
 1/4=180224,18=20,19=15,26=3/3(2);
 2/4=180224,9=110,15=1/2;
 99/4=180224/99;
 2/4=180224,9=110,15=1/2;
 3/4=180224,5=43,7=101,11=2,25=1,30=1,71=1,74=-55/1,2,3;
 4/4=180224,5=5,16=3,69=1/1;
 5/4=180224,5=2,8=3,13=1,38=5/2,8;
 7/4=180224,30=1/1,2,3,16;
 1/4=180224,18=20,19=15,26=3/3(-5);
 2/4=180224,9=110,15=1/2;
 6/4=180224,7=2,8=2,9=2,10=2,19=2,28=1/1;
 99/4=180224,9=1/99;
 --------------------------
 narrow results from confab
 --------------------------
 Symbolic Z-matrix:
 Charge =  0 Multiplicity = 2
 O                     3.352     6.38     -1.431 
 H                     4.278     6.201    -1.243 
 O                     3.353     3.801     2.53 
 C                     2.456     4.816     0.156 
 H                     1.932     4.246    -0.611 
 H                     3.423     4.346     0.349 
 C                     2.603     6.27     -0.243 
 H                     1.62      6.693    -0.447 
 H                     3.048     6.838     0.58 
 C                     2.275     4.266     2.421 
 O                     1.678     4.793     1.38 
 

 GradGradGradGradGradGradGradGradGradGradGradGradGradGradGradGradGradGrad
 Berny optimization.
 Initialization pass.
                           ----------------------------
                           !    Initial Parameters    !
                           ! (Angstroms and Degrees)  !
 --------------------------                            --------------------------
 ! Name  Definition              Value          Derivative Info.                !
 --------------------------------------------------------------------------------
 ! R1    R(1,2)                  0.9617         estimate D2E/DX2                !
 ! R2    R(1,7)                  1.4087         estimate D2E/DX2                !
 ! R3    R(3,10)                 1.1791         estimate D2E/DX2                !
 ! R4    R(4,5)                  1.0898         estimate D2E/DX2                !
 ! R5    R(4,6)                  1.0924         estimate D2E/DX2                !
 ! R6    R(4,7)                  1.5149         estimate D2E/DX2                !
 ! R7    R(4,11)                 1.4505         estimate D2E/DX2                !
 ! R8    R(7,8)                  1.0894         estimate D2E/DX2                !
 ! R9    R(7,9)                  1.0945         estimate D2E/DX2                !
 ! R10   R(10,11)                1.3107         estimate D2E/DX2                !
 ! A1    A(2,1,7)              109.4245         estimate D2E/DX2                !
 ! A2    A(5,4,6)              108.9619         estimate D2E/DX2                !
 ! A3    A(5,4,7)              111.3016         estimate D2E/DX2                !
 ! A4    A(5,4,11)             109.1287         estimate D2E/DX2                !
 ! A5    A(6,4,7)              111.9379         estimate D2E/DX2                !
 ! A6    A(6,4,11)             108.5962         estimate D2E/DX2                !
 ! A7    A(7,4,11)             106.8291         estimate D2E/DX2                !
 ! A8    A(1,7,4)              110.4053         estimate D2E/DX2                !
 ! A9    A(1,7,8)              106.9489         estimate D2E/DX2                !
 ! A10   A(1,7,9)              112.1744         estimate D2E/DX2                !
 ! A11   A(4,7,8)              109.5381         estimate D2E/DX2                !
 ! A12   A(4,7,9)              109.846          estimate D2E/DX2                !
 ! A13   A(8,7,9)              107.828          estimate D2E/DX2                !
 ! A14   A(3,10,11)            130.4253         estimate D2E/DX2                !
 ! A15   A(4,11,10)            115.613          estimate D2E/DX2                !
 ! D1    D(2,1,7,4)            -73.3911         estimate D2E/DX2                !
 ! D2    D(2,1,7,8)            167.5049         estimate D2E/DX2                !
 ! D3    D(2,1,7,9)             49.4813         estimate D2E/DX2                !
 ! D4    D(5,4,7,1)            -60.9741         estimate D2E/DX2                !
 ! D5    D(5,4,7,8)             56.5455         estimate D2E/DX2                !
 ! D6    D(5,4,7,9)            174.8046         estimate D2E/DX2                !
 ! D7    D(6,4,7,1)             61.2367         estimate D2E/DX2                !
 ! D8    D(6,4,7,8)            178.7564         estimate D2E/DX2                !
 ! D9    D(6,4,7,9)            -62.9845         estimate D2E/DX2                !
 ! D10   D(11,4,7,1)           179.9874         estimate D2E/DX2                !
 ! D11   D(11,4,7,8)           -62.493          estimate D2E/DX2                !
 ! D12   D(11,4,7,9)            55.7662         estimate D2E/DX2                !
 ! D13   D(5,4,11,10)          120.004          estimate D2E/DX2                !
 ! D14   D(6,4,11,10)            1.3464         estimate D2E/DX2                !
 ! D15   D(7,4,11,10)         -119.5568         estimate D2E/DX2                !
 ! D16   D(3,10,11,4)           -0.0243         estimate D2E/DX2                !
 --------------------------------------------------------------------------------
 Trust Radius=3.00D-01 FncErr=1.00D-07 GrdErr=1.00D-06 EigMax=2.50D+02 EigMin=1.00D-04
 Number of steps in this run=     51 maximum allowed number of steps=    100.
 GradGradGradGradGradGradGradGradGradGradGradGradGradGradGradGradGradGrad

                          Input orientation:                          
 ---------------------------------------------------------------------
 Center     Atomic      Atomic             Coordinates (Angstroms)
 Number     Number       Type             X           Y           Z
 ---------------------------------------------------------------------
      1          8           0        3.352000    6.380000   -1.431000
      2          1           0        4.278000    6.201000   -1.243000
      3          8           0        3.353000    3.801000    2.530000
      4          6           0        2.456000    4.816000    0.156000
      5          1           0        1.932000    4.246000   -0.611000
      6          1           0        3.423000    4.346000    0.349000
      7          6           0        2.603000    6.270000   -0.243000
      8          1           0        1.620000    6.693000   -0.447000
      9          1           0        3.048000    6.838000    0.580000
     10          6           0        2.275000    4.266000    2.421000
     11          8           0        1.678000    4.793000    1.380000
 ---------------------------------------------------------------------
                    Distance matrix (angstroms):
                    1          2          3          4          5
     1  O    0.000000
     2  H    0.961697   0.000000
     3  O    4.726602   4.566306   0.000000
     4  C    2.401558   2.682370   2.733260   0.000000
     5  H    2.691237   3.118520   3.476082   1.089846   0.000000
     6  H    2.703812   2.589694   2.249152   1.092354   1.776142
     7  C    1.408703   1.952021   3.787874   1.514901   2.163849
     8  H    2.016445   2.817915   4.497720   2.141409   2.472256
     9  H    2.084778   2.289541   3.622001   2.149122   3.063071
    10  C    4.524028   4.602296   1.179063   2.337838   3.051405
    11  O    3.636285   3.952543   2.261015   1.450513   2.080338
                    6          7          8          9         10
     6  H    0.000000
     7  C    2.173624   0.000000
     8  H    3.064773   1.089419   0.000000
     9  H    2.530622   1.094522   1.764919   0.000000
    10  C    2.370124   3.349701   3.813762   3.256070   0.000000
    11  O    2.075523   2.381446   2.636530   2.588228   1.310656
                   11
    11  O    0.000000
 Symmetry turned off by external request.
 Stoichiometry    C3H5O3(2)
 Framework group  C1[X(C3H5O3)]
 Deg. of freedom    27
 Full point group                 C1      NOp   1
 Rotational constants (GHZ):          10.4776171           1.8027131           1.6567399
 Standard basis: def2SVP (5D, 7F)
   109 basis functions,   185 primitive gaussians,   115 cartesian basis functions
    24 alpha electrons       23 beta electrons
       nuclear repulsion energy       230.7563531441 Hartrees.
 NAtoms=   11 NActive=   11 NUniq=   11 SFac= 1.00D+00 NAtFMM=   60 NAOKFM=F Big=F
 Integral buffers will be    131072 words long.
 Raffenetti 2 integral format.
 Two-electron integral symmetry is turned off.
 One-electron integrals computed using PRISM.
   1 Symmetry operations used in ECPInt.
 ECPInt:  NShTT=    1326 NPrTT=    4846 LenC2=    1312 LenP2D=    3983.
 LDataN:  DoStor=T MaxTD1= 4 Len=   56
 NBasis=   109 RedAO= T EigKep=  2.92D-03  NBF=   109
 NBsUse=   109 1.00D-06 EigRej= -1.00D+00 NBFU=   109
 ExpMin= 1.22D-01 ExpMax= 2.27D+03 ExpMxC= 3.41D+02 IAcc=3 IRadAn=         5 AccDes= 0.00D+00
 Harris functional with IExCor= 1009 and IRadAn=       5 diagonalized for initial guess.
 HarFok:  IExCor= 1009 AccDes= 0.00D+00 IRadAn=         5 IDoV= 1 UseB2=F ITyADJ=14
 ICtDFT=  3500011 ScaDFX=  1.000000  1.000000  1.000000  1.000000
 FoFCou: FMM=F IPFlag=           0 FMFlag=      100000 FMFlg1=           0
         NFxFlg=           0 DoJE=T BraDBF=F KetDBF=T FulRan=T
         wScrn=  0.000000 ICntrl=       500 IOpCl=  0 I1Cent=   200000004 NGrid=           0
         NMat0=    1 NMatS0=      1 NMatT0=    0 NMatD0=    1 NMtDS0=    0 NMtDT0=    0
 Symmetry not used in FoFCou.
 Initial guess <Sx>= 0.0000 <Sy>= 0.0000 <Sz>= 0.5000 <S**2>= 0.7500 S= 0.5000
 Keep R1 and R2 ints in memory in canonical form, NReq=69788612.
 Requested convergence on RMS density matrix=1.00D-08 within  32 cycles.
 Requested convergence on MAX density matrix=1.00D-06.
 Requested convergence on             energy=1.00D-06.
 No special actions if energy rises.
 Integral accuracy reduced to 1.0D-05 until final iterations.
 Failed to achieve initial convergence to 1.0D-08 in 10 cycles.
 Switch to full accuracy anyway.
 SCF Done:  E(UM062X) =  -342.519244166     A.U. after   19 cycles
            NFock= 19  Conv=0.41D-08     -V/T= 2.0076
 <Sx>= 0.0000 <Sy>= 0.0000 <Sz>= 0.5000 <S**2>= 0.7539 S= 0.5020
 <L.S>= 0.000000000000E+00
 Annihilation of the first spin contaminant:
 S**2 before annihilation     0.7539,   after     0.7500
 QCSCF skips out because SCF is already converged.

 **********************************************************************

            Population analysis using the SCF Density.

 **********************************************************************

 Alpha  occ. eigenvalues --  -19.71078 -19.67256 -19.64237 -10.69860 -10.62676
 Alpha  occ. eigenvalues --  -10.61496  -1.25859  -1.17572  -1.14405  -0.87752
 Alpha  occ. eigenvalues --   -0.75101  -0.67717  -0.62276  -0.59981  -0.59294
 Alpha  occ. eigenvalues --   -0.56510  -0.52941  -0.50531  -0.48192  -0.45047
 Alpha  occ. eigenvalues --   -0.41663  -0.40882  -0.36530  -0.29502
 Alpha virt. eigenvalues --    0.05155   0.07256   0.11868   0.13824   0.14650
 Alpha virt. eigenvalues --    0.18010   0.18820   0.25773   0.26993   0.29582
 Alpha virt. eigenvalues --    0.36327   0.43605   0.43855   0.47706   0.51803
 Alpha virt. eigenvalues --    0.55122   0.56670   0.57872   0.62628   0.65068
 Alpha virt. eigenvalues --    0.66999   0.68858   0.70657   0.71448   0.73262
 Alpha virt. eigenvalues --    0.75170   0.78293   0.83583   0.95583   1.03083
 Alpha virt. eigenvalues --    1.05732   1.06831   1.07676   1.15304   1.16287
 Alpha virt. eigenvalues --    1.19659   1.30987   1.33053   1.40416   1.41695
 Alpha virt. eigenvalues --    1.44196   1.47758   1.51560   1.53939   1.61023
 Alpha virt. eigenvalues --    1.64618   1.65928   1.69928   1.72534   1.79711
 Alpha virt. eigenvalues --    1.82311   1.85398   1.86569   1.92255   1.93881
 Alpha virt. eigenvalues --    1.94470   1.95740   2.04518   2.06143   2.14770
 Alpha virt. eigenvalues --    2.26299   2.32101   2.39293   2.42201   2.45146
 Alpha virt. eigenvalues --    2.47668   2.65263   2.68698   2.71772   2.81405
 Alpha virt. eigenvalues --    2.87602   2.88959   2.93301   2.97763   3.00688
 Alpha virt. eigenvalues --    3.03725   3.11247   3.16808   3.19495   3.29591
 Alpha virt. eigenvalues --    3.38132   3.41007   3.57300   3.70899   3.78611
  Beta  occ. eigenvalues --  -19.70789 -19.66664 -19.64224 -10.68828 -10.62625
  Beta  occ. eigenvalues --  -10.61500  -1.24428  -1.16013  -1.14319  -0.86929
  Beta  occ. eigenvalues --   -0.74398  -0.66844  -0.62036  -0.58144  -0.57158
  Beta  occ. eigenvalues --   -0.55785  -0.52302  -0.49687  -0.46511  -0.42691
  Beta  occ. eigenvalues --   -0.41456  -0.40787  -0.36372
  Beta virt. eigenvalues --   -0.04296   0.07067   0.07667   0.12013   0.13882
  Beta virt. eigenvalues --    0.15083   0.18128   0.19111   0.26024   0.27084
  Beta virt. eigenvalues --    0.30106   0.35777   0.43628   0.44589   0.47984
  Beta virt. eigenvalues --    0.51739   0.55280   0.57123   0.58053   0.62770
  Beta virt. eigenvalues --    0.65119   0.67052   0.68994   0.70764   0.71536
  Beta virt. eigenvalues --    0.73332   0.77166   0.78666   0.83712   0.96072
  Beta virt. eigenvalues --    1.04040   1.05846   1.06890   1.07675   1.15425
  Beta virt. eigenvalues --    1.16914   1.19779   1.31157   1.33099   1.40182
  Beta virt. eigenvalues --    1.41793   1.44105   1.47655   1.51396   1.54430
  Beta virt. eigenvalues --    1.61081   1.66140   1.68241   1.71855   1.74344
  Beta virt. eigenvalues --    1.80276   1.82766   1.86253   1.86770   1.92448
  Beta virt. eigenvalues --    1.94193   1.94763   1.96775   2.05939   2.07001
  Beta virt. eigenvalues --    2.15513   2.26371   2.32751   2.39546   2.42547
  Beta virt. eigenvalues --    2.45376   2.48680   2.66027   2.69073   2.72981
  Beta virt. eigenvalues --    2.81705   2.87788   2.89170   2.93620   2.98142
  Beta virt. eigenvalues --    3.01217   3.03851   3.11601   3.17393   3.19895
  Beta virt. eigenvalues --    3.30791   3.38480   3.41389   3.58313   3.72243
  Beta virt. eigenvalues --    3.78638
          Condensed to atoms (all electrons):
               1          2          3          4          5          6
     1  O    7.804183   0.332389  -0.000000  -0.052337   0.007459   0.002577
     2  H    0.332389   0.518488  -0.000034  -0.001875  -0.001954   0.005502
     3  O   -0.000000  -0.000034   7.676148  -0.010711   0.000360   0.025200
     4  C   -0.052337  -0.001875  -0.010711   4.750126   0.373727   0.385202
     5  H    0.007459  -0.001954   0.000360   0.373727   0.614782  -0.031729
     6  H    0.002577   0.005502   0.025200   0.385202  -0.031729   0.622222
     7  C    0.311045  -0.036513  -0.001055   0.374501  -0.014575  -0.027453
     8  H   -0.027981   0.009504   0.000011  -0.026397  -0.014502   0.008313
     9  H   -0.021860  -0.011250   0.000229  -0.047429   0.009675  -0.011050
    10  C    0.000109  -0.000003   0.579601  -0.010915   0.002560  -0.009032
    11  O    0.001462  -0.000049  -0.061176   0.178467  -0.018059  -0.029255
               7          8          9         10         11
     1  O    0.311045  -0.027981  -0.021860   0.000109   0.001462
     2  H   -0.036513   0.009504  -0.011250  -0.000003  -0.000049
     3  O   -0.001055   0.000011   0.000229   0.579601  -0.061176
     4  C    0.374501  -0.026397  -0.047429  -0.010915   0.178467
     5  H   -0.014575  -0.014502   0.009675   0.002560  -0.018059
     6  H   -0.027453   0.008313  -0.011050  -0.009032  -0.029255
     7  C    4.499029   0.380130   0.396081  -0.003336  -0.034619
     8  H    0.380130   0.648883  -0.036761  -0.000328   0.004422
     9  H    0.396081  -0.036761   0.679232   0.003591   0.004267
    10  C   -0.003336  -0.000328   0.003591   4.948906   0.256605
    11  O   -0.034619   0.004422   0.004267   0.256605   8.016496
          Atomic-Atomic Spin Densities.
               1          2          3          4          5          6
     1  O    0.006521  -0.000370   0.000003  -0.003943  -0.000176   0.001038
     2  H   -0.000370   0.000157  -0.000019   0.000864   0.000034  -0.000403
     3  O    0.000003  -0.000019   0.318737   0.000822  -0.000143   0.005914
     4  C   -0.003943   0.000864   0.000822   0.085027   0.000977  -0.004162
     5  H   -0.000176   0.000034  -0.000143   0.000977  -0.004199  -0.000788
     6  H    0.001038  -0.000403   0.005914  -0.004162  -0.000788  -0.000128
     7  C    0.000504   0.000110   0.000082  -0.000382   0.000310  -0.000458
     8  H   -0.000216   0.000036  -0.000008  -0.000223   0.000106  -0.000239
     9  H    0.000095  -0.000051   0.000007  -0.000220  -0.000106   0.000296
    10  C    0.000016  -0.000004  -0.132329   0.019297  -0.000540   0.002738
    11  O   -0.000010   0.000010   0.003739  -0.027087   0.000926  -0.004791
               7          8          9         10         11
     1  O    0.000504  -0.000216   0.000095   0.000016  -0.000010
     2  H    0.000110   0.000036  -0.000051  -0.000004   0.000010
     3  O    0.000082  -0.000008   0.000007  -0.132329   0.003739
     4  C   -0.000382  -0.000223  -0.000220   0.019297  -0.027087
     5  H    0.000310   0.000106  -0.000106  -0.000540   0.000926
     6  H   -0.000458  -0.000239   0.000296   0.002738  -0.004791
     7  C   -0.006417   0.000544   0.000860  -0.000306   0.001292
     8  H    0.000544   0.000324  -0.000026  -0.000167   0.000094
     9  H    0.000860  -0.000026  -0.001249   0.000104  -0.000440
    10  C   -0.000306  -0.000167   0.000104   1.032198  -0.185916
    11  O    0.001292   0.000094  -0.000440  -0.185916   0.214439
 Mulliken charges and spin densities:
               1          2
     1  O   -0.357046   0.003463
     2  H    0.185794   0.000364
     3  O   -0.208573   0.196805
     4  C    0.087640   0.070970
     5  H    0.072257  -0.003600
     6  H    0.059502  -0.000983
     7  C    0.156764  -0.003862
     8  H    0.054705   0.000225
     9  H    0.035276  -0.000729
    10  C    0.232243   0.735091
    11  O   -0.318562   0.002257
 Sum of Mulliken charges =  -0.00000   1.00000
 Mulliken charges and spin densities with hydrogens summed into heavy atoms:
               1          2
     1  O   -0.171252   0.003827
     3  O   -0.208573   0.196805
     4  C    0.219399   0.066387
     7  C    0.246744  -0.004366
    10  C    0.232243   0.735091
    11  O   -0.318562   0.002257
 Electronic spatial extent (au):  <R**2>=           6338.3368
 Charge=             -0.0000 electrons
 Dipole moment (field-independent basis, Debye):
    X=              0.5581    Y=              0.5318    Z=             -1.0723  Tot=              1.3206
 Quadrupole moment (field-independent basis, Debye-Ang):
   XX=            -30.0398   YY=            -30.8039   ZZ=            -43.7380
   XY=              6.3653   XZ=             -4.4127   YZ=             -0.0308
 Traceless Quadrupole moment (field-independent basis, Debye-Ang):
   XX=              4.8207   YY=              4.0567   ZZ=             -8.8774
   XY=              6.3653   XZ=             -4.4127   YZ=             -0.0308
 Octapole moment (field-independent basis, Debye-Ang**2):
  XXX=           -240.6472  YYY=           -514.0355  ZZZ=            -85.1259  XYY=            -48.3198
  XXY=           -133.2610  XXZ=            -50.0504  XZZ=           -120.5315  YZZ=           -218.7798
  YYZ=              2.4672  XYZ=             -3.7447
 Hexadecapole moment (field-independent basis, Debye-Ang**3):
 XXXX=          -1347.5590 YYYY=          -5642.4175 ZZZZ=           -624.8360 XXXY=          -1136.4819
 XXXZ=           -306.6474 YYYX=          -1173.8805 YYYZ=             36.7862 ZZZX=           -213.8156
 ZZZY=           -271.3386 XXYY=           -902.4564 XXZZ=           -449.5871 YYZZ=          -1246.5654
 XXYZ=           -152.5941 YYXZ=             14.1151 ZZXY=           -596.6184
 N-N= 2.307563531441D+02 E-N=-1.264257973647D+03  KE= 3.399462486906D+02
                          Isotropic Fermi Contact Couplings
        Atom                 a.u.       MegaHertz       Gauss      10(-4) cm-1
     1  O(17)              0.00501      -3.03568      -1.08321      -1.01259
     2  H(1)              -0.00006      -0.28887      -0.10308      -0.09636
     3  O(17)              0.15982     -96.88068     -34.56944     -32.31592
     4  C(13)              0.02354      26.46044       9.44174       8.82625
     5  H(1)              -0.00094      -4.22033      -1.50592      -1.40775
     6  H(1)              -0.00144      -6.43816      -2.29730      -2.14754
     7  C(13)             -0.00132      -1.48116      -0.52852      -0.49406
     8  H(1)               0.00014       0.62792       0.22406       0.20945
     9  H(1)               0.00006       0.28262       0.10085       0.09427
    10  C(13)              0.79358     892.13180     318.33481     297.58314
    11  O(17)              0.47116    -285.61616    -101.91495     -95.27130
 --------------------------------------------------------
       Center         ----  Spin Dipole Couplings  ----
                      3XX-RR        3YY-RR        3ZZ-RR
 --------------------------------------------------------
     1   Atom       -0.007944      0.005070      0.002873
     2   Atom        0.000569     -0.001079      0.000511
     3   Atom       -0.104880     -0.621900      0.726780
     4   Atom        0.006487     -0.046578      0.040091
     5   Atom       -0.003322     -0.005110      0.008432
     6   Atom       -0.000570     -0.009590      0.010160
     7   Atom       -0.002716      0.000336      0.002379
     8   Atom       -0.002547      0.001281      0.001266
     9   Atom       -0.002819      0.003213     -0.000394
    10   Atom        0.124731     -0.285922      0.161191
    11   Atom       -0.104678     -0.103729      0.208407
 --------------------------------------------------------
                        XY            XZ            YZ
 --------------------------------------------------------
     1   Atom        0.007708     -0.007100     -0.016196
     2   Atom        0.001000     -0.001395     -0.001712
     3   Atom       -0.026854     -0.731749     -0.070848
     4   Atom       -0.001218     -0.061498     -0.003406
     5   Atom        0.003073      0.002393      0.003842
     6   Atom       -0.004253     -0.003612     -0.004897
     7   Atom        0.000377     -0.000632     -0.003314
     8   Atom       -0.001116      0.000591     -0.003532
     9   Atom        0.002214     -0.001479     -0.003826
    10   Atom       -0.032139     -0.488734      0.080491
    11   Atom       -0.028361      0.032876     -0.116606
 --------------------------------------------------------


 ---------------------------------------------------------------------------------
              Anisotropic Spin Dipole Couplings in Principal Axis System
 ---------------------------------------------------------------------------------

       Atom             a.u.   MegaHertz   Gauss  10(-4) cm-1        Axes

              Baa    -0.0123     0.888     0.317     0.296 -0.0800  0.6992  0.7104
     1 O(17)  Bbb    -0.0114     0.826     0.295     0.275  0.9459 -0.1717  0.2755
              Bcc     0.0237    -1.713    -0.611    -0.572  0.3146  0.6940 -0.6476
 
              Baa    -0.0022    -1.161    -0.414    -0.387 -0.0469  0.8533  0.5193
     2 H(1)   Bbb    -0.0007    -0.374    -0.133    -0.125  0.8013 -0.2783  0.5296
              Bcc     0.0029     1.535     0.548     0.512 -0.5964 -0.4409  0.6707
 
              Baa    -0.6518    47.161    16.828    15.731  0.3658  0.8991  0.2404
     3 O(17)  Bbb    -0.5021    36.333    12.965    12.119  0.7837 -0.4368  0.4415
              Bcc     1.1539   -83.494   -29.793   -27.851 -0.5020 -0.0269  0.8645
 
              Baa    -0.0479    -6.421    -2.291    -2.142  0.2937  0.9250  0.2412
     4 C(13)  Bbb    -0.0392    -5.263    -1.878    -1.755  0.7389 -0.3798  0.5566
              Bcc     0.0871    11.684     4.169     3.897 -0.6065 -0.0147  0.7950
 
              Baa    -0.0076    -4.064    -1.450    -1.356 -0.5320  0.8380 -0.1213
     5 H(1)   Bbb    -0.0026    -1.365    -0.487    -0.455  0.8152  0.4682 -0.3411
              Bcc     0.0102     5.429     1.937     1.811  0.2291  0.2803  0.9322
 
              Baa    -0.0128    -6.829    -2.437    -2.278  0.3831  0.8893  0.2499
     6 H(1)   Bbb     0.0009     0.491     0.175     0.164  0.8975 -0.4223  0.1270
              Bcc     0.0119     6.338     2.261     2.114 -0.2185 -0.1757  0.9599
 
              Baa    -0.0028    -0.375    -0.134    -0.125  0.9900  0.0269  0.1382
     7 C(13)  Bbb    -0.0021    -0.282    -0.101    -0.094 -0.1032  0.8067  0.5819
              Bcc     0.0049     0.657     0.234     0.219 -0.0958 -0.5904  0.8014
 
              Baa    -0.0029    -1.567    -0.559    -0.523  0.8699  0.4310  0.2400
     8 H(1)   Bbb    -0.0021    -1.100    -0.393    -0.367 -0.4672  0.5637  0.6811
              Bcc     0.0050     2.668     0.952     0.890 -0.1583  0.7046 -0.6917
 
              Baa    -0.0036    -1.917    -0.684    -0.639  0.9579 -0.1912  0.2144
     9 H(1)   Bbb    -0.0028    -1.502    -0.536    -0.501 -0.0750  0.5539  0.8292
              Bcc     0.0064     3.419     1.220     1.140  0.2773  0.8104 -0.5162
 
              Baa    -0.3616   -48.520   -17.313   -16.184  0.6267 -0.4272  0.6517
    10 C(13)  Bbb    -0.2774   -37.229   -13.284   -12.418  0.3637  0.9000  0.2401
              Bcc     0.6390    85.749    30.597    28.603 -0.6891  0.0866  0.7195
 
              Baa    -0.1492    10.799     3.853     3.602  0.3779  0.8899  0.2554
    11 O(17)  Bbb    -0.1024     7.413     2.645     2.473  0.9190 -0.3272 -0.2199
              Bcc     0.2517   -18.212    -6.498    -6.075  0.1122 -0.3178  0.9415
 

 ---------------------------------------------------------------------------------

   1 Symmetry operations used in ECPInt.
 ECPInt:  NShTT=    1326 NPrTT=    4846 LenC2=    1312 LenP2D=    3983.
 LDataN:  DoStor=T MaxTD1= 5 Len=  102
 Calling FoFJK, ICntrl=      2127 FMM=F ISym2X=0 I1Cent= 0 IOpClX= 1 NMat=1 NMatS=1 NMatT=0.
 -------------------------------------------------------------------
 Center     Atomic                   Forces (Hartrees/Bohr)
 Number     Number              X              Y              Z
 -------------------------------------------------------------------
      1        8          -0.004139259    0.000706766    0.000879882
      2        1           0.000869054   -0.000466769    0.001399872
      3        8           0.003475989   -0.002024419    0.002192169
      4        6          -0.002867508    0.007950918    0.005128044
      5        1          -0.004773243   -0.001970927   -0.002373725
      6        1           0.004003008   -0.000894116    0.000124606
      7        6           0.009197915   -0.003514197   -0.012679661
      8        1          -0.005624100    0.002376763   -0.000162621
      9        1           0.001905067    0.002445629    0.005544841
     10        6          -0.006537806    0.002506860    0.001690139
     11        8           0.004490881   -0.007116508   -0.001743545
 -------------------------------------------------------------------
 Cartesian Forces:  Max     0.012679661 RMS     0.004439246

 GradGradGradGradGradGradGradGradGradGradGradGradGradGradGradGradGradGrad
 Berny optimization.
 FormGI is forming the generalized inverse of G from B-inverse, IUseBI=4.
 Internal  Forces:  Max     0.015864186 RMS     0.003626977
 Search for a local minimum.
 Step number   1 out of a maximum of   51
 All quantities printed in internal units (Hartrees-Bohrs-Radians)
 Mixed Optimization -- RFO/linear search
 Second derivative matrix not updated -- first step.
 ITU=  0
     Eigenvalues ---    0.00569   0.01024   0.01577   0.02874   0.05155
     Eigenvalues ---    0.05491   0.05720   0.06030   0.11130   0.11460
     Eigenvalues ---    0.13508   0.13849   0.16000   0.21970   0.22019
     Eigenvalues ---    0.25000   0.25000   0.30863   0.34295   0.34542
     Eigenvalues ---    0.34830   0.34880   0.38178   0.44208   0.55110
     Eigenvalues ---    0.64319   1.16088
 RFO step:  Lambda=-2.24890715D-03 EMin= 5.68831671D-03
 Linear search not attempted -- first point.
 Iteration  1 RMS(Cart)=  0.05796834 RMS(Int)=  0.00154816
 Iteration  2 RMS(Cart)=  0.00199023 RMS(Int)=  0.00011361
 Iteration  3 RMS(Cart)=  0.00000339 RMS(Int)=  0.00011359
 Iteration  4 RMS(Cart)=  0.00000000 RMS(Int)=  0.00011359
 Variable       Old X    -DE/DX   Delta X   Delta X   Delta X     New X
                                 (Linear)    (Quad)   (Total)
    R1        1.81734   0.00119   0.00000   0.00216   0.00216   1.81950
    R2        2.66206  -0.00365   0.00000  -0.00821  -0.00821   2.65386
    R3        2.22811   0.00418   0.00000   0.00360   0.00360   2.23170
    R4        2.05951   0.00500   0.00000   0.01425   0.01425   2.07377
    R5        2.06425   0.00395   0.00000   0.01136   0.01136   2.07561
    R6        2.86275   0.00303   0.00000   0.00974   0.00974   2.87249
    R7        2.74107   0.00113   0.00000   0.00295   0.00295   2.74403
    R8        2.05870   0.00603   0.00000   0.01718   0.01718   2.07588
    R9        2.06835   0.00621   0.00000   0.01800   0.01800   2.08635
   R10        2.47678   0.00150   0.00000   0.00232   0.00232   2.47910
    A1        1.90982  -0.00222   0.00000  -0.01371  -0.01371   1.89611
    A2        1.90174   0.00166   0.00000   0.00643   0.00643   1.90818
    A3        1.94258  -0.00150   0.00000  -0.01296  -0.01278   1.92980
    A4        1.90465  -0.00448   0.00000  -0.03604  -0.03584   1.86882
    A5        1.95368  -0.00242   0.00000  -0.00525  -0.00562   1.94806
    A6        1.89536  -0.00079   0.00000   0.01355   0.01331   1.90868
    A7        1.86452   0.00747   0.00000   0.03406   0.03397   1.89849
    A8        1.92694   0.00143   0.00000   0.00823   0.00823   1.93517
    A9        1.86661  -0.00020   0.00000   0.00214   0.00215   1.86876
   A10        1.95781   0.00071   0.00000   0.01008   0.01011   1.96792
   A11        1.91180  -0.00046   0.00000  -0.00446  -0.00451   1.90729
   A12        1.91717  -0.00160   0.00000  -0.01116  -0.01121   1.90596
   A13        1.88195   0.00011   0.00000  -0.00507  -0.00516   1.87680
   A14        2.27635   0.00417   0.00000   0.01655   0.01655   2.29290
   A15        2.01783   0.01586   0.00000   0.06289   0.06289   2.08072
    D1       -1.28092   0.00025   0.00000   0.00245   0.00243  -1.27849
    D2        2.92351   0.00013   0.00000   0.00197   0.00196   2.92547
    D3        0.86361  -0.00028   0.00000   0.00114   0.00117   0.86478
    D4       -1.06420   0.00005   0.00000   0.02500   0.02496  -1.03924
    D5        0.98691   0.00038   0.00000   0.02981   0.02974   1.01665
    D6        3.05092  -0.00072   0.00000   0.01429   0.01428   3.06520
    D7        1.06878  -0.00060   0.00000   0.02021   0.02019   1.08897
    D8        3.11989  -0.00028   0.00000   0.02502   0.02497  -3.13832
    D9       -1.09929  -0.00137   0.00000   0.00950   0.00952  -1.08977
   D10        3.14137   0.00174   0.00000   0.05505   0.05510  -3.08671
   D11       -1.09071   0.00207   0.00000   0.05986   0.05989  -1.03082
   D12        0.97330   0.00097   0.00000   0.04433   0.04443   1.01773
   D13        2.09447  -0.00017   0.00000   0.01892   0.01901   2.11348
   D14        0.02350   0.00085   0.00000   0.02399   0.02426   0.04776
   D15       -2.08666  -0.00011   0.00000   0.00321   0.00285  -2.08381
   D16       -0.00042  -0.00003   0.00000  -0.00113  -0.00113  -0.00155
         Item               Value     Threshold  Converged?
 Maximum Force            0.015864     0.000450     NO 
 RMS     Force            0.003627     0.000300     NO 
 Maximum Displacement     0.223135     0.001800     NO 
 RMS     Displacement     0.058661     0.001200     NO 
 Predicted change in Energy=-1.150223D-03
 GradGradGradGradGradGradGradGradGradGradGradGradGradGradGradGradGradGrad

                          Input orientation:                          
 ---------------------------------------------------------------------
 Center     Atomic      Atomic             Coordinates (Angstroms)
 Number     Number       Type             X           Y           Z
 ---------------------------------------------------------------------
      1          8           0        3.316941    6.399912   -1.468805
      2          1           0        4.248348    6.216952   -1.307357
      3          8           0        3.301905    3.778950    2.648078
      4          6           0        2.484314    4.823304    0.151474
      5          1           0        1.945074    4.256513   -0.618092
      6          1           0        3.464563    4.359147    0.324917
      7          6           0        2.619424    6.281574   -0.255671
      8          1           0        1.619617    6.707623   -0.415637
      9          1           0        3.093707    6.845679    0.566377
     10          6           0        2.229582    4.231473    2.448008
     11          8           0        1.694526    4.748873    1.367707
 ---------------------------------------------------------------------
                    Distance matrix (angstroms):
                    1          2          3          4          5
     1  O    0.000000
     2  H    0.962840   0.000000
     3  O    4.880409   4.741843   0.000000
     4  C    2.409205   2.679974   2.827041   0.000000
     5  H    2.683262   3.102174   3.568882   1.097389   0.000000
     6  H    2.721021   2.594240   2.400033   1.098368   1.791270
     7  C    1.404360   1.940003   3.893670   1.520057   2.164941
     8  H    2.021078   2.818891   4.559996   2.149412   2.480897
     9  H    2.095354   2.288967   3.712364   2.152558   3.070196
    10  C    4.607157   4.703223   1.180966   2.385208   3.079373
    11  O    3.661142   3.979099   2.272392   1.452077   2.061211
                    6          7          8          9         10
     6  H    0.000000
     7  C    2.178776   0.000000
     8  H    3.076944   1.098508   0.000000
     9  H    2.525604   1.104048   1.776612   0.000000
    10  C    2.459470   3.415373   3.834558   3.334864   0.000000
    11  O    2.091011   2.416602   2.650024   2.645076   1.311883
                   11
    11  O    0.000000
 Symmetry turned off by external request.
 Stoichiometry    C3H5O3(2)
 Framework group  C1[X(C3H5O3)]
 Deg. of freedom    27
 Full point group                 C1      NOp   1
 Rotational constants (GHZ):          11.0475935           1.7130025           1.5931971
 Standard basis: def2SVP (5D, 7F)
   109 basis functions,   185 primitive gaussians,   115 cartesian basis functions
    24 alpha electrons       23 beta electrons
       nuclear repulsion energy       228.7923106371 Hartrees.
 NAtoms=   11 NActive=   11 NUniq=   11 SFac= 1.00D+00 NAtFMM=   60 NAOKFM=F Big=F
 Integral buffers will be    131072 words long.
 Raffenetti 2 integral format.
 Two-electron integral symmetry is turned off.
 One-electron integrals computed using PRISM.
   1 Symmetry operations used in ECPInt.
 ECPInt:  NShTT=    1326 NPrTT=    4846 LenC2=    1311 LenP2D=    3959.
 LDataN:  DoStor=T MaxTD1= 4 Len=   56
 NBasis=   109 RedAO= T EigKep=  3.00D-03  NBF=   109
 NBsUse=   109 1.00D-06 EigRej= -1.00D+00 NBFU=   109
 Initial guess from the checkpoint file:  "/dev/shm/pet_mono_f1hs_2.chk"
 B after Tr=     0.139203   -0.092609   -0.014615
         Rot=    0.999941    0.002181    0.007862   -0.007122 Ang=   1.24 deg.
 Initial guess <Sx>= 0.0000 <Sy>= 0.0000 <Sz>= 0.5000 <S**2>= 0.7539 S= 0.5019
 ExpMin= 1.22D-01 ExpMax= 2.27D+03 ExpMxC= 3.41D+02 IAcc=3 IRadAn=         5 AccDes= 0.00D+00
 Harris functional with IExCor= 1009 and IRadAn=       5 diagonalized for initial guess.
 HarFok:  IExCor= 1009 AccDes= 0.00D+00 IRadAn=         5 IDoV= 1 UseB2=F ITyADJ=14
 ICtDFT=  3500011 ScaDFX=  1.000000  1.000000  1.000000  1.000000
 FoFCou: FMM=F IPFlag=           0 FMFlag=      100000 FMFlg1=           0
         NFxFlg=           0 DoJE=T BraDBF=F KetDBF=T FulRan=T
         wScrn=  0.000000 ICntrl=       500 IOpCl=  0 I1Cent=   200000004 NGrid=           0
         NMat0=    1 NMatS0=      1 NMatT0=    0 NMatD0=    1 NMtDS0=    0 NMtDT0=    0
 Symmetry not used in FoFCou.
 Keep R1 and R2 ints in memory in canonical form, NReq=69788612.
 Requested convergence on RMS density matrix=1.00D-08 within  32 cycles.
 Requested convergence on MAX density matrix=1.00D-06.
 Requested convergence on             energy=1.00D-06.
 No special actions if energy rises.
 Integral accuracy reduced to 1.0D-05 until final iterations.
 Initial convergence to 1.0D-05 achieved.  Increase integral accuracy.
 SCF Done:  E(UM062X) =  -342.520093490     A.U. after   16 cycles
            NFock= 16  Conv=0.51D-08     -V/T= 2.0078
 <Sx>= 0.0000 <Sy>= 0.0000 <Sz>= 0.5000 <S**2>= 0.7539 S= 0.5020
 <L.S>= 0.000000000000E+00
 Annihilation of the first spin contaminant:
 S**2 before annihilation     0.7539,   after     0.7500
 QCSCF skips out because SCF is already converged.
   1 Symmetry operations used in ECPInt.
 ECPInt:  NShTT=    1326 NPrTT=    4846 LenC2=    1311 LenP2D=    3959.
 LDataN:  DoStor=T MaxTD1= 5 Len=  102
 Calling FoFJK, ICntrl=      2127 FMM=F ISym2X=0 I1Cent= 0 IOpClX= 1 NMat=1 NMatS=1 NMatT=0.
 -------------------------------------------------------------------
 Center     Atomic                   Forces (Hartrees/Bohr)
 Number     Number              X              Y              Z
 -------------------------------------------------------------------
      1        8          -0.001151160   -0.000971912    0.002595780
      2        1           0.000416406   -0.000066349   -0.000300890
      3        8           0.000037332    0.000653924   -0.002055277
      4        6          -0.002817195   -0.000549020    0.002678146
      5        1           0.000195614    0.000231224   -0.000166444
      6        1           0.000700590   -0.000506864    0.001348314
      7        6           0.000859122    0.000566613   -0.002263040
      8        1          -0.000194850   -0.000134769    0.000888184
      9        1           0.000087944    0.000468612    0.000115089
     10        6          -0.001778864    0.001666506   -0.002119280
     11        8           0.003645061   -0.001357966   -0.000720582
 -------------------------------------------------------------------
 Cartesian Forces:  Max     0.003645061 RMS     0.001407488

 GradGradGradGradGradGradGradGradGradGradGradGradGradGradGradGradGradGrad
 Berny optimization.
 Using GEDIIS/GDIIS optimizer.
 FormGI is forming the generalized inverse of G from B-inverse, IUseBI=4.
 Internal  Forces:  Max     0.005218252 RMS     0.001680840
 Search for a local minimum.
 Step number   2 out of a maximum of   51
 All quantities printed in internal units (Hartrees-Bohrs-Radians)
 Mixed Optimization -- RFO/linear search
 Update second derivatives using D2CorX and points    1    2
 DE= -8.49D-04 DEPred=-1.15D-03 R= 7.38D-01
 TightC=F SS=  1.41D+00  RLast= 1.45D-01 DXNew= 5.0454D-01 4.3641D-01
 Trust test= 7.38D-01 RLast= 1.45D-01 DXMaxT set to 4.36D-01
 ITU=  1  0
 Use linear search instead of GDIIS.
     Eigenvalues ---    0.00560   0.01013   0.01576   0.02874   0.05110
     Eigenvalues ---    0.05464   0.05759   0.06045   0.11305   0.11399
     Eigenvalues ---    0.13678   0.13934   0.16036   0.20784   0.22136
     Eigenvalues ---    0.24455   0.30228   0.30927   0.32961   0.34452
     Eigenvalues ---    0.34768   0.34852   0.41832   0.44387   0.55079
     Eigenvalues ---    0.66839   1.16180
 RFO step:  Lambda=-2.02822351D-04 EMin= 5.60254370D-03
 Quartic linear search produced a step of -0.18282.
 Iteration  1 RMS(Cart)=  0.01964584 RMS(Int)=  0.00019786
 Iteration  2 RMS(Cart)=  0.00022849 RMS(Int)=  0.00002039
 Iteration  3 RMS(Cart)=  0.00000001 RMS(Int)=  0.00002039
 Variable       Old X    -DE/DX   Delta X   Delta X   Delta X     New X
                                 (Linear)    (Quad)   (Total)
    R1        1.81950   0.00036  -0.00039   0.00113   0.00073   1.82023
    R2        2.65386  -0.00244   0.00150  -0.00672  -0.00522   2.64863
    R3        2.23170  -0.00056  -0.00066   0.00059  -0.00007   2.23163
    R4        2.07377  -0.00010  -0.00261   0.00361   0.00101   2.07477
    R5        2.07561   0.00105  -0.00208   0.00555   0.00347   2.07909
    R6        2.87249  -0.00040  -0.00178   0.00156  -0.00023   2.87227
    R7        2.74403  -0.00519  -0.00054  -0.01030  -0.01084   2.73319
    R8        2.07588  -0.00000  -0.00314   0.00462   0.00148   2.07736
    R9        2.08635   0.00036  -0.00329   0.00572   0.00243   2.08878
   R10        2.47910  -0.00506  -0.00042  -0.00580  -0.00622   2.47288
    A1        1.89611   0.00066   0.00251  -0.00025   0.00225   1.89836
    A2        1.90818   0.00016  -0.00118   0.00483   0.00365   1.91183
    A3        1.92980  -0.00002   0.00234  -0.00094   0.00136   1.93116
    A4        1.86882   0.00040   0.00655  -0.00497   0.00154   1.87036
    A5        1.94806   0.00034   0.00103  -0.00116  -0.00007   1.94799
    A6        1.90868  -0.00076  -0.00243  -0.00567  -0.00806   1.90061
    A7        1.89849  -0.00013  -0.00621   0.00767   0.00147   1.89997
    A8        1.93517  -0.00139  -0.00151  -0.00274  -0.00425   1.93092
    A9        1.86876   0.00099  -0.00039   0.00632   0.00592   1.87468
   A10        1.96792   0.00026  -0.00185   0.00306   0.00121   1.96913
   A11        1.90729  -0.00023   0.00082  -0.00325  -0.00241   1.90488
   A12        1.90596   0.00072   0.00205  -0.00025   0.00181   1.90777
   A13        1.87680  -0.00033   0.00094  -0.00326  -0.00230   1.87450
   A14        2.29290  -0.00465  -0.00303  -0.01074  -0.01377   2.27913
   A15        2.08072  -0.00522  -0.01150  -0.00020  -0.01170   2.06902
    D1       -1.27849  -0.00016  -0.00044   0.00128   0.00083  -1.27765
    D2        2.92547   0.00031  -0.00036   0.00292   0.00257   2.92804
    D3        0.86478  -0.00006  -0.00021   0.00112   0.00090   0.86568
    D4       -1.03924  -0.00002  -0.00456   0.01150   0.00695  -1.03230
    D5        1.01665   0.00022  -0.00544   0.01561   0.01018   1.02683
    D6        3.06520   0.00010  -0.00261   0.00968   0.00707   3.07227
    D7        1.08897   0.00041  -0.00369   0.01621   0.01252   1.10149
    D8       -3.13832   0.00064  -0.00457   0.02031   0.01576  -3.12256
    D9       -1.08977   0.00052  -0.00174   0.01438   0.01264  -1.07713
   D10       -3.08671  -0.00041  -0.01007   0.01349   0.00340  -3.08331
   D11       -1.03082  -0.00017  -0.01095   0.01759   0.00664  -1.02418
   D12        1.01773  -0.00030  -0.00812   0.01166   0.00352   1.02125
   D13        2.11348   0.00027  -0.00348   0.02601   0.02252   2.13599
   D14        0.04776   0.00027  -0.00444   0.02614   0.02166   0.06942
   D15       -2.08381   0.00040  -0.00052   0.02627   0.02581  -2.05800
   D16       -0.00155   0.00008   0.00021   0.00203   0.00223   0.00068
         Item               Value     Threshold  Converged?
 Maximum Force            0.005218     0.000450     NO 
 RMS     Force            0.001681     0.000300     NO 
 Maximum Displacement     0.071667     0.001800     NO 
 RMS     Displacement     0.019685     0.001200     NO 
 Predicted change in Energy=-1.515674D-04
 GradGradGradGradGradGradGradGradGradGradGradGradGradGradGradGradGradGrad

                          Input orientation:                          
 ---------------------------------------------------------------------
 Center     Atomic      Atomic             Coordinates (Angstroms)
 Number     Number       Type             X           Y           Z
 ---------------------------------------------------------------------
      1          8           0        3.319849    6.394387   -1.457288
      2          1           0        4.250286    6.204530   -1.295902
      3          8           0        3.319799    3.816874    2.617659
      4          6           0        2.477211    4.819226    0.150484
      5          1           0        1.943334    4.255946   -0.626128
      6          1           0        3.456014    4.352481    0.336358
      7          6           0        2.619785    6.278902   -0.248552
      8          1           0        1.620331    6.709136   -0.404872
      9          1           0        3.095193    6.838813    0.577432
     10          6           0        2.232541    4.239963    2.434736
     11          8           0        1.683656    4.739742    1.357073
 ---------------------------------------------------------------------
                    Distance matrix (angstroms):
                    1          2          3          4          5
     1  O    0.000000
     2  H    0.963226   0.000000
     3  O    4.821697   4.677891   0.000000
     4  C    2.403352   2.674864   2.793137   0.000000
     5  H    2.675546   3.093154   3.550998   1.097922   0.000000
     6  H    2.721229   2.593304   2.347288   1.100206   1.795521
     7  C    1.401596   1.939332   3.842754   1.519938   2.166217
     8  H    2.023613   2.822273   4.515424   2.148121   2.484235
     9  H    2.094772   2.290400   3.653092   2.154743   3.073521
    10  C    4.579480   4.674235   1.180929   2.369223   3.074538
    11  O    3.651795   3.971332   2.262238   1.446342   2.057809
                    6          7          8          9         10
     6  H    0.000000
     7  C    2.180021   0.000000
     8  H    3.077820   1.099294   0.000000
     9  H    2.523916   1.105334   1.776782   0.000000
    10  C    2.431612   3.392235   3.812478   3.308741   0.000000
    11  O    2.081606   2.413169   2.643289   2.646957   1.308591
                   11
    11  O    0.000000
 Symmetry turned off by external request.
 Stoichiometry    C3H5O3(2)
 Framework group  C1[X(C3H5O3)]
 Deg. of freedom    27
 Full point group                 C1      NOp   1
 Rotational constants (GHZ):          10.8552470           1.7451938           1.6184222
 Standard basis: def2SVP (5D, 7F)
   109 basis functions,   185 primitive gaussians,   115 cartesian basis functions
    24 alpha electrons       23 beta electrons
       nuclear repulsion energy       229.6086691557 Hartrees.
 NAtoms=   11 NActive=   11 NUniq=   11 SFac= 1.00D+00 NAtFMM=   60 NAOKFM=F Big=F
 Integral buffers will be    131072 words long.
 Raffenetti 2 integral format.
 Two-electron integral symmetry is turned off.
 One-electron integrals computed using PRISM.
   1 Symmetry operations used in ECPInt.
 ECPInt:  NShTT=    1326 NPrTT=    4846 LenC2=    1312 LenP2D=    3968.
 LDataN:  DoStor=T MaxTD1= 4 Len=   56
 NBasis=   109 RedAO= T EigKep=  2.97D-03  NBF=   109
 NBsUse=   109 1.00D-06 EigRej= -1.00D+00 NBFU=   109
 Initial guess from the checkpoint file:  "/dev/shm/pet_mono_f1hs_2.chk"
 B after Tr=     0.063497   -0.025618   -0.004186
         Rot=    0.999995    0.000730    0.000856   -0.003064 Ang=   0.37 deg.
 Initial guess <Sx>= 0.0000 <Sy>= 0.0000 <Sz>= 0.5000 <S**2>= 0.7540 S= 0.5020
 ExpMin= 1.22D-01 ExpMax= 2.27D+03 ExpMxC= 3.41D+02 IAcc=3 IRadAn=         5 AccDes= 0.00D+00
 Harris functional with IExCor= 1009 and IRadAn=       5 diagonalized for initial guess.
 HarFok:  IExCor= 1009 AccDes= 0.00D+00 IRadAn=         5 IDoV= 1 UseB2=F ITyADJ=14
 ICtDFT=  3500011 ScaDFX=  1.000000  1.000000  1.000000  1.000000
 FoFCou: FMM=F IPFlag=           0 FMFlag=      100000 FMFlg1=           0
         NFxFlg=           0 DoJE=T BraDBF=F KetDBF=T FulRan=T
         wScrn=  0.000000 ICntrl=       500 IOpCl=  0 I1Cent=   200000004 NGrid=           0
         NMat0=    1 NMatS0=      1 NMatT0=    0 NMatD0=    1 NMtDS0=    0 NMtDT0=    0
 Symmetry not used in FoFCou.
 Keep R1 and R2 ints in memory in canonical form, NReq=69788612.
 Requested convergence on RMS density matrix=1.00D-08 within  32 cycles.
 Requested convergence on MAX density matrix=1.00D-06.
 Requested convergence on             energy=1.00D-06.
 No special actions if energy rises.
 Integral accuracy reduced to 1.0D-05 until final iterations.
 Initial convergence to 1.0D-05 achieved.  Increase integral accuracy.
 SCF Done:  E(UM062X) =  -342.520266672     A.U. after   16 cycles
            NFock= 16  Conv=0.52D-08     -V/T= 2.0078
 <Sx>= 0.0000 <Sy>= 0.0000 <Sz>= 0.5000 <S**2>= 0.7539 S= 0.5020
 <L.S>= 0.000000000000E+00
 Annihilation of the first spin contaminant:
 S**2 before annihilation     0.7539,   after     0.7500
 QCSCF skips out because SCF is already converged.
   1 Symmetry operations used in ECPInt.
 ECPInt:  NShTT=    1326 NPrTT=    4846 LenC2=    1312 LenP2D=    3968.
 LDataN:  DoStor=T MaxTD1= 5 Len=  102
 Calling FoFJK, ICntrl=      2127 FMM=F ISym2X=0 I1Cent= 0 IOpClX= 1 NMat=1 NMatS=1 NMatT=0.
 -------------------------------------------------------------------
 Center     Atomic                   Forces (Hartrees/Bohr)
 Number     Number              X              Y              Z
 -------------------------------------------------------------------
      1        8          -0.000151502   -0.000096389    0.000762233
      2        1          -0.000082099    0.000005948   -0.000200535
      3        8           0.000817623   -0.000376662    0.000499617
      4        6          -0.000715244   -0.000700231    0.001263983
      5        1           0.000482294    0.000587300   -0.000088688
      6        1          -0.000321092    0.000104116   -0.000123297
      7        6           0.000247540    0.000218027   -0.000709581
      8        1           0.000360306   -0.000123571    0.000401914
      9        1          -0.000148170   -0.000061726   -0.000327087
     10        6          -0.000338279    0.000898639   -0.000963186
     11        8          -0.000151377   -0.000455451   -0.000515373
 -------------------------------------------------------------------
 Cartesian Forces:  Max     0.001263983 RMS     0.000505476

 GradGradGradGradGradGradGradGradGradGradGradGradGradGradGradGradGradGrad
 Berny optimization.
 Using GEDIIS/GDIIS optimizer.
 FormGI is forming the generalized inverse of G from B-inverse, IUseBI=4.
 Internal  Forces:  Max     0.001004711 RMS     0.000357023
 Search for a local minimum.
 Step number   3 out of a maximum of   51
 All quantities printed in internal units (Hartrees-Bohrs-Radians)
 Mixed Optimization -- En-DIIS/RFO-DIIS
 Update second derivatives using D2CorX and points    1    2    3
 DE= -1.73D-04 DEPred=-1.52D-04 R= 1.14D+00
 TightC=F SS=  1.41D+00  RLast= 5.64D-02 DXNew= 7.3395D-01 1.6920D-01
 Trust test= 1.14D+00 RLast= 5.64D-02 DXMaxT set to 4.36D-01
 ITU=  1  1  0
 Use linear search instead of GDIIS.
     Eigenvalues ---    0.00536   0.00830   0.01576   0.02871   0.05130
     Eigenvalues ---    0.05424   0.05867   0.06012   0.11279   0.11494
     Eigenvalues ---    0.13654   0.13848   0.16004   0.21164   0.22118
     Eigenvalues ---    0.25378   0.30646   0.30812   0.34284   0.34759
     Eigenvalues ---    0.34843   0.35760   0.39938   0.43244   0.55152
     Eigenvalues ---    0.66611   1.17103
 RFO step:  Lambda=-8.28467952D-05 EMin= 5.35641347D-03
 Quartic linear search produced a step of  0.17243.
 Iteration  1 RMS(Cart)=  0.02654770 RMS(Int)=  0.00043775
 Iteration  2 RMS(Cart)=  0.00060215 RMS(Int)=  0.00000233
 Iteration  3 RMS(Cart)=  0.00000017 RMS(Int)=  0.00000233
 Variable       Old X    -DE/DX   Delta X   Delta X   Delta X     New X
                                 (Linear)    (Quad)   (Total)
    R1        1.82023  -0.00012   0.00013  -0.00007   0.00006   1.82029
    R2        2.64863  -0.00061  -0.00090  -0.00257  -0.00347   2.64516
    R3        2.23163   0.00097  -0.00001   0.00118   0.00117   2.23280
    R4        2.07477  -0.00047   0.00017  -0.00081  -0.00064   2.07414
    R5        2.07909  -0.00035   0.00060  -0.00031   0.00029   2.07938
    R6        2.87227  -0.00001  -0.00004   0.00043   0.00039   2.87266
    R7        2.73319  -0.00100  -0.00187  -0.00404  -0.00590   2.72729
    R8        2.07736  -0.00043   0.00026  -0.00048  -0.00022   2.07714
    R9        2.08878  -0.00034   0.00042  -0.00004   0.00038   2.08916
   R10        2.47288  -0.00038  -0.00107  -0.00118  -0.00226   2.47062
    A1        1.89836   0.00032   0.00039   0.00196   0.00235   1.90071
    A2        1.91183   0.00006   0.00063   0.00002   0.00064   1.91246
    A3        1.93116  -0.00034   0.00023  -0.00380  -0.00357   1.92758
    A4        1.87036   0.00032   0.00027   0.00273   0.00300   1.87336
    A5        1.94799  -0.00011  -0.00001  -0.00216  -0.00218   1.94582
    A6        1.90061   0.00008  -0.00139   0.00113  -0.00026   1.90035
    A7        1.89997   0.00001   0.00025   0.00238   0.00264   1.90260
    A8        1.93092  -0.00002  -0.00073   0.00030  -0.00043   1.93049
    A9        1.87468   0.00013   0.00102   0.00218   0.00320   1.87788
   A10        1.96913  -0.00004   0.00021   0.00060   0.00081   1.96994
   A11        1.90488  -0.00009  -0.00042  -0.00129  -0.00171   1.90318
   A12        1.90777   0.00012   0.00031   0.00050   0.00081   1.90858
   A13        1.87450  -0.00011  -0.00040  -0.00242  -0.00282   1.87167
   A14        2.27913   0.00079  -0.00237   0.00333   0.00096   2.28009
   A15        2.06902  -0.00062  -0.00202  -0.00091  -0.00292   2.06610
    D1       -1.27765  -0.00003   0.00014   0.00150   0.00164  -1.27602
    D2        2.92804   0.00001   0.00044   0.00157   0.00202   2.93005
    D3        0.86568   0.00009   0.00016   0.00280   0.00295   0.86863
    D4       -1.03230   0.00021   0.00120   0.01978   0.02097  -1.01132
    D5        1.02683   0.00030   0.00176   0.02183   0.02358   1.05041
    D6        3.07227   0.00019   0.00122   0.01846   0.01967   3.09194
    D7        1.10149  -0.00002   0.00216   0.01561   0.01778   1.11927
    D8       -3.12256   0.00007   0.00272   0.01766   0.02038  -3.10218
    D9       -1.07713  -0.00005   0.00218   0.01429   0.01648  -1.06065
   D10       -3.08331   0.00001   0.00059   0.01723   0.01782  -3.06549
   D11       -1.02418   0.00011   0.00114   0.01928   0.02043  -1.00376
   D12        1.02125  -0.00001   0.00061   0.01591   0.01652   1.03777
   D13        2.13599   0.00056   0.00388   0.04719   0.05107   2.18706
   D14        0.06942   0.00026   0.00373   0.04505   0.04878   0.11820
   D15       -2.05800   0.00034   0.00445   0.04553   0.04998  -2.00802
   D16        0.00068   0.00007   0.00039   0.00292   0.00331   0.00399
         Item               Value     Threshold  Converged?
 Maximum Force            0.001005     0.000450     NO 
 RMS     Force            0.000357     0.000300     NO 
 Maximum Displacement     0.110505     0.001800     NO 
 RMS     Displacement     0.026675     0.001200     NO 
 Predicted change in Energy=-4.870827D-05
 GradGradGradGradGradGradGradGradGradGradGradGradGradGradGradGradGradGrad

                          Input orientation:                          
 ---------------------------------------------------------------------
 Center     Atomic      Atomic             Coordinates (Angstroms)
 Number     Number       Type             X           Y           Z
 ---------------------------------------------------------------------
      1          8           0        3.314487    6.399270   -1.448786
      2          1           0        4.244734    6.198116   -1.300333
      3          8           0        3.330875    3.875351    2.624944
      4          6           0        2.472679    4.809164    0.142130
      5          1           0        1.946197    4.260484   -0.649363
      6          1           0        3.449240    4.338281    0.330238
      7          6           0        2.624387    6.273303   -0.237499
      8          1           0        1.626624    6.713083   -0.376255
      9          1           0        3.110222    6.818548    0.592487
     10          6           0        2.228248    4.250141    2.425451
     11          8           0        1.670306    4.714258    1.337985
 ---------------------------------------------------------------------
                    Distance matrix (angstroms):
                    1          2          3          4          5
     1  O    0.000000
     2  H    0.963256   0.000000
     3  O    4.792255   4.651685   0.000000
     4  C    2.401685   2.673961   2.787987   0.000000
     5  H    2.661897   3.075947   3.575856   1.097585   0.000000
     6  H    2.725942   2.598184   2.343926   1.100358   1.795775
     7  C    1.399757   1.939277   3.800379   1.520144   2.163565
     8  H    2.024272   2.823758   4.468153   2.146961   2.488364
     9  H    2.093875   2.292340   3.583570   2.155669   3.072594
    10  C    4.561621   4.662863   1.181546   2.363431   3.087741
    11  O    3.648107   3.973693   2.262193   1.443218   2.057080
                    6          7          8          9         10
     6  H    0.000000
     7  C    2.178766   0.000000
     8  H    3.075833   1.099177   0.000000
     9  H    2.517028   1.105533   1.775006   0.000000
    10  C    2.426625   3.367702   3.778570   3.276332   0.000000
    11  O    2.078826   2.413098   2.633596   2.656531   1.307397
                   11
    11  O    0.000000
 Symmetry turned off by external request.
 Stoichiometry    C3H5O3(2)
 Framework group  C1[X(C3H5O3)]
 Deg. of freedom    27
 Full point group                 C1      NOp   1
 Rotational constants (GHZ):          10.6881723           1.7634189           1.6341306
 Standard basis: def2SVP (5D, 7F)
   109 basis functions,   185 primitive gaussians,   115 cartesian basis functions
    24 alpha electrons       23 beta electrons
       nuclear repulsion energy       229.9701569129 Hartrees.
 NAtoms=   11 NActive=   11 NUniq=   11 SFac= 1.00D+00 NAtFMM=   60 NAOKFM=F Big=F
 Integral buffers will be    131072 words long.
 Raffenetti 2 integral format.
 Two-electron integral symmetry is turned off.
 One-electron integrals computed using PRISM.
   1 Symmetry operations used in ECPInt.
 ECPInt:  NShTT=    1326 NPrTT=    4846 LenC2=    1312 LenP2D=    3969.
 LDataN:  DoStor=T MaxTD1= 4 Len=   56
 NBasis=   109 RedAO= T EigKep=  2.96D-03  NBF=   109
 NBsUse=   109 1.00D-06 EigRej= -1.00D+00 NBFU=   109
 Initial guess from the checkpoint file:  "/dev/shm/pet_mono_f1hs_2.chk"
 B after Tr=     0.168793   -0.078735    0.003639
         Rot=    0.999952    0.002665    0.004636   -0.008232 Ang=   1.12 deg.
 Initial guess <Sx>= 0.0000 <Sy>= 0.0000 <Sz>= 0.5000 <S**2>= 0.7540 S= 0.5020
 ExpMin= 1.22D-01 ExpMax= 2.27D+03 ExpMxC= 3.41D+02 IAcc=3 IRadAn=         5 AccDes= 0.00D+00
 Harris functional with IExCor= 1009 and IRadAn=       5 diagonalized for initial guess.
 HarFok:  IExCor= 1009 AccDes= 0.00D+00 IRadAn=         5 IDoV= 1 UseB2=F ITyADJ=14
 ICtDFT=  3500011 ScaDFX=  1.000000  1.000000  1.000000  1.000000
 FoFCou: FMM=F IPFlag=           0 FMFlag=      100000 FMFlg1=           0
         NFxFlg=           0 DoJE=T BraDBF=F KetDBF=T FulRan=T
         wScrn=  0.000000 ICntrl=       500 IOpCl=  0 I1Cent=   200000004 NGrid=           0
         NMat0=    1 NMatS0=      1 NMatT0=    0 NMatD0=    1 NMtDS0=    0 NMtDT0=    0
 Symmetry not used in FoFCou.
 Keep R1 and R2 ints in memory in canonical form, NReq=69788612.
 Requested convergence on RMS density matrix=1.00D-08 within  32 cycles.
 Requested convergence on MAX density matrix=1.00D-06.
 Requested convergence on             energy=1.00D-06.
 No special actions if energy rises.
 Integral accuracy reduced to 1.0D-05 until final iterations.
 Initial convergence to 1.0D-05 achieved.  Increase integral accuracy.
 SCF Done:  E(UM062X) =  -342.520348719     A.U. after   14 cycles
            NFock= 14  Conv=0.62D-08     -V/T= 2.0077
 <Sx>= 0.0000 <Sy>= 0.0000 <Sz>= 0.5000 <S**2>= 0.7540 S= 0.5020
 <L.S>= 0.000000000000E+00
 Annihilation of the first spin contaminant:
 S**2 before annihilation     0.7540,   after     0.7500
 QCSCF skips out because SCF is already converged.
   1 Symmetry operations used in ECPInt.
 ECPInt:  NShTT=    1326 NPrTT=    4846 LenC2=    1312 LenP2D=    3969.
 LDataN:  DoStor=T MaxTD1= 5 Len=  102
 Calling FoFJK, ICntrl=      2127 FMM=F ISym2X=0 I1Cent= 0 IOpClX= 1 NMat=1 NMatS=1 NMatT=0.
 -------------------------------------------------------------------
 Center     Atomic                   Forces (Hartrees/Bohr)
 Number     Number              X              Y              Z
 -------------------------------------------------------------------
      1        8           0.000344375    0.000228498   -0.000368769
      2        1          -0.000180029    0.000041509   -0.000032416
      3        8          -0.000049195   -0.000014870    0.000130110
      4        6           0.000572245   -0.000080492   -0.000021418
      5        1           0.000094297    0.000390314    0.000096126
      6        1          -0.000441884   -0.000009326   -0.000311606
      7        6          -0.000087244    0.000105116    0.000524135
      8        1           0.000253179   -0.000117289   -0.000013219
      9        1          -0.000017606   -0.000134366   -0.000336919
     10        6           0.000600666    0.000336816    0.000728149
     11        8          -0.001088804   -0.000745909   -0.000394173
 -------------------------------------------------------------------
 Cartesian Forces:  Max     0.001088804 RMS     0.000371885

 GradGradGradGradGradGradGradGradGradGradGradGradGradGradGradGradGradGrad
 Berny optimization.
 Using GEDIIS/GDIIS optimizer.
 FormGI is forming the generalized inverse of G from B-inverse, IUseBI=4.
 Internal  Forces:  Max     0.000834971 RMS     0.000279946
 Search for a local minimum.
 Step number   4 out of a maximum of   51
 All quantities printed in internal units (Hartrees-Bohrs-Radians)
 Mixed Optimization -- En-DIIS/RFO-DIIS
 Swapping is turned off.
 Update second derivatives using D2CorX and points    1    2    3    4
 DE= -8.20D-05 DEPred=-4.87D-05 R= 1.68D+00
 TightC=F SS=  1.41D+00  RLast= 1.05D-01 DXNew= 7.3395D-01 3.1509D-01
 Trust test= 1.68D+00 RLast= 1.05D-01 DXMaxT set to 4.36D-01
 ITU=  1  1  1  0
     Eigenvalues ---    0.00087   0.00722   0.01582   0.02880   0.05126
     Eigenvalues ---    0.05502   0.05879   0.06234   0.11450   0.11574
     Eigenvalues ---    0.13769   0.13884   0.16140   0.21337   0.22428
     Eigenvalues ---    0.26289   0.30784   0.30979   0.34320   0.34748
     Eigenvalues ---    0.34847   0.35882   0.42534   0.52883   0.55319
     Eigenvalues ---    0.91493   1.20686
 En-DIIS/RFO-DIIS/Sim-DIIS IScMMF=       -3 using points:     4    3
 RFO step:  Lambda=-4.25711626D-04.
 DidBck=F Rises=F RFO-DIIS coefs:    3.00000   -2.00000
 Iteration  1 RMS(Cart)=  0.10788021 RMS(Int)=  0.03663521
 Iteration  2 RMS(Cart)=  0.06891107 RMS(Int)=  0.00231425
 Iteration  3 RMS(Cart)=  0.00297418 RMS(Int)=  0.00005034
 Iteration  4 RMS(Cart)=  0.00000397 RMS(Int)=  0.00005026
 Iteration  5 RMS(Cart)=  0.00000000 RMS(Int)=  0.00005026
 Variable       Old X    -DE/DX   Delta X   Delta X   Delta X     New X
                                 (Linear)    (Quad)   (Total)
    R1        1.82029  -0.00019   0.00011   0.00007   0.00018   1.82047
    R2        2.64516   0.00045  -0.00695  -0.00830  -0.01525   2.62990
    R3        2.23280  -0.00002   0.00233   0.00201   0.00434   2.23714
    R4        2.07414  -0.00031  -0.00127  -0.00074  -0.00202   2.07212
    R5        2.07938  -0.00044   0.00057   0.00156   0.00213   2.08151
    R6        2.87266   0.00021   0.00078   0.00367   0.00445   2.87711
    R7        2.72729   0.00071  -0.01181  -0.01358  -0.02539   2.70189
    R8        2.07714  -0.00027  -0.00044   0.00103   0.00059   2.07773
    R9        2.08916  -0.00033   0.00076   0.00247   0.00323   2.09238
   R10        2.47062   0.00083  -0.00451  -0.00540  -0.00991   2.46071
    A1        1.90071   0.00001   0.00470   0.00404   0.00873   1.90944
    A2        1.91246   0.00001   0.00128   0.00283   0.00393   1.91640
    A3        1.92758  -0.00012  -0.00715  -0.00978  -0.01702   1.91056
    A4        1.87336  -0.00007   0.00600  -0.00035   0.00576   1.87913
    A5        1.94582  -0.00010  -0.00435  -0.00503  -0.00947   1.93635
    A6        1.90035   0.00009  -0.00052  -0.00087  -0.00134   1.89901
    A7        1.90260   0.00021   0.00527   0.01357   0.01889   1.92149
    A8        1.93049   0.00039  -0.00087   0.00145   0.00058   1.93107
    A9        1.87788  -0.00016   0.00640   0.00747   0.01387   1.89176
   A10        1.96994  -0.00020   0.00162   0.00036   0.00197   1.97191
   A11        1.90318  -0.00009  -0.00341  -0.00656  -0.00998   1.89319
   A12        1.90858  -0.00002   0.00162   0.00268   0.00428   1.91286
   A13        1.87167   0.00007  -0.00564  -0.00591  -0.01158   1.86009
   A14        2.28009   0.00031   0.00191  -0.00704  -0.00512   2.27497
   A15        2.06610   0.00026  -0.00585  -0.00496  -0.01080   2.05530
    D1       -1.27602  -0.00003   0.00328   0.00181   0.00509  -1.27092
    D2        2.93005  -0.00006   0.00403   0.00440   0.00843   2.93848
    D3        0.86863   0.00009   0.00591   0.00664   0.01255   0.88118
    D4       -1.01132   0.00008   0.04195   0.05416   0.09603  -0.91529
    D5        1.05041   0.00006   0.04716   0.06013   0.10720   1.15761
    D6        3.09194   0.00008   0.03935   0.05081   0.09008  -3.10117
    D7        1.11927  -0.00007   0.03555   0.04748   0.08310   1.20237
    D8       -3.10218  -0.00009   0.04077   0.05345   0.09427  -3.00791
    D9       -1.06065  -0.00007   0.03295   0.04413   0.07715  -0.98350
   D10       -3.06549   0.00011   0.03563   0.05214   0.08780  -2.97769
   D11       -1.00376   0.00009   0.04085   0.05811   0.09897  -0.90478
   D12        1.03777   0.00011   0.03303   0.04879   0.08185   1.11962
   D13        2.18706   0.00051   0.10215   0.23232   0.33440   2.52146
   D14        0.11820   0.00050   0.09756   0.22963   0.32721   0.44541
   D15       -2.00802   0.00044   0.09996   0.22797   0.32796  -1.68005
   D16        0.00399   0.00001   0.00662   0.00743   0.01404   0.01803
         Item               Value     Threshold  Converged?
 Maximum Force            0.000835     0.000450     NO 
 RMS     Force            0.000280     0.000300     YES
 Maximum Displacement     0.745415     0.001800     NO 
 RMS     Displacement     0.171934     0.001200     NO 
 Predicted change in Energy=-2.960208D-04
 GradGradGradGradGradGradGradGradGradGradGradGradGradGradGradGradGradGrad

                          Input orientation:                          
 ---------------------------------------------------------------------
 Center     Atomic      Atomic             Coordinates (Angstroms)
 Number     Number       Type             X           Y           Z
 ---------------------------------------------------------------------
      1          8           0        3.284233    6.437888   -1.389651
      2          1           0        4.210132    6.180390   -1.322914
      3          8           0        3.353084    4.269808    2.650711
      4          6           0        2.452476    4.741262    0.086274
      5          1           0        1.943942    4.291588   -0.774851
      6          1           0        3.415627    4.234862    0.257072
      7          6           0        2.656812    6.228895   -0.165130
      8          1           0        1.671551    6.716115   -0.192588
      9          1           0        3.207221    6.677019    0.684705
     10          6           0        2.203098    4.325608    2.375213
     11          8           0        1.619823    4.546565    1.232160
 ---------------------------------------------------------------------
                    Distance matrix (angstroms):
                    1          2          3          4          5
     1  O    0.000000
     2  H    0.963352   0.000000
     3  O    4.585830   4.491608   0.000000
     4  C    2.397648   2.673248   2.758568   0.000000
     5  H    2.604028   3.000594   3.704137   1.096518   0.000000
     6  H    2.753595   2.629196   2.394710   1.101486   1.798316
     7  C    1.391685   1.937941   3.500254   1.522502   2.152465
     8  H    2.027589   2.830023   4.110514   2.141882   2.508299
     9  H    2.089514   2.298479   3.111450   2.162155   3.068625
    10  C    4.450256   4.598319   1.183841   2.339700   3.160889
    11  O    3.636105   3.988419   2.256783   1.429780   2.048941
                    6          7          8          9         10
     6  H    0.000000
     7  C    2.174907   0.000000
     8  H    3.066042   1.099490   0.000000
     9  H    2.488058   1.107241   1.769026   0.000000
    10  C    2.442331   3.206509   3.548333   3.065161   0.000000
    11  O    2.067091   2.420331   2.596061   2.712632   1.302152
                   11
    11  O    0.000000
 Symmetry turned off by external request.
 Stoichiometry    C3H5O3(2)
 Framework group  C1[X(C3H5O3)]
 Deg. of freedom    27
 Full point group                 C1      NOp   1
 Rotational constants (GHZ):           9.6709115           1.9004473           1.7338633
 Standard basis: def2SVP (5D, 7F)
   109 basis functions,   185 primitive gaussians,   115 cartesian basis functions
    24 alpha electrons       23 beta electrons
       nuclear repulsion energy       232.1526520800 Hartrees.
 NAtoms=   11 NActive=   11 NUniq=   11 SFac= 1.00D+00 NAtFMM=   60 NAOKFM=F Big=F
 Integral buffers will be    131072 words long.
 Raffenetti 2 integral format.
 Two-electron integral symmetry is turned off.
 One-electron integrals computed using PRISM.
   1 Symmetry operations used in ECPInt.
 ECPInt:  NShTT=    1326 NPrTT=    4846 LenC2=    1314 LenP2D=    3988.
 LDataN:  DoStor=T MaxTD1= 4 Len=   56
 NBasis=   109 RedAO= T EigKep=  2.83D-03  NBF=   109
 NBsUse=   109 1.00D-06 EigRej= -1.00D+00 NBFU=   109
 Initial guess from the checkpoint file:  "/dev/shm/pet_mono_f1hs_2.chk"
 B after Tr=     1.079410   -0.440642    0.085382
         Rot=    0.998072    0.018195    0.029398   -0.051546 Ang=   7.12 deg.
 Initial guess <Sx>= 0.0000 <Sy>= 0.0000 <Sz>= 0.5000 <S**2>= 0.7540 S= 0.5020
 ExpMin= 1.22D-01 ExpMax= 2.27D+03 ExpMxC= 3.41D+02 IAcc=3 IRadAn=         5 AccDes= 0.00D+00
 Harris functional with IExCor= 1009 and IRadAn=       5 diagonalized for initial guess.
 HarFok:  IExCor= 1009 AccDes= 0.00D+00 IRadAn=         5 IDoV= 1 UseB2=F ITyADJ=14
 ICtDFT=  3500011 ScaDFX=  1.000000  1.000000  1.000000  1.000000
 FoFCou: FMM=F IPFlag=           0 FMFlag=      100000 FMFlg1=           0
         NFxFlg=           0 DoJE=T BraDBF=F KetDBF=T FulRan=T
         wScrn=  0.000000 ICntrl=       500 IOpCl=  0 I1Cent=   200000004 NGrid=           0
         NMat0=    1 NMatS0=      1 NMatT0=    0 NMatD0=    1 NMtDS0=    0 NMtDT0=    0
 Symmetry not used in FoFCou.
 Keep R1 and R2 ints in memory in canonical form, NReq=69788612.
 Requested convergence on RMS density matrix=1.00D-08 within  32 cycles.
 Requested convergence on MAX density matrix=1.00D-06.
 Requested convergence on             energy=1.00D-06.
 No special actions if energy rises.
 Integral accuracy reduced to 1.0D-05 until final iterations.
 Initial convergence to 1.0D-05 achieved.  Increase integral accuracy.
 SCF Done:  E(UM062X) =  -342.520748828     A.U. after   20 cycles
            NFock= 20  Conv=0.48D-08     -V/T= 2.0076
 <Sx>= 0.0000 <Sy>= 0.0000 <Sz>= 0.5000 <S**2>= 0.7540 S= 0.5020
 <L.S>= 0.000000000000E+00
 Annihilation of the first spin contaminant:
 S**2 before annihilation     0.7540,   after     0.7500
 QCSCF skips out because SCF is already converged.
   1 Symmetry operations used in ECPInt.
 ECPInt:  NShTT=    1326 NPrTT=    4846 LenC2=    1314 LenP2D=    3988.
 LDataN:  DoStor=T MaxTD1= 5 Len=  102
 Calling FoFJK, ICntrl=      2127 FMM=F ISym2X=0 I1Cent= 0 IOpClX= 1 NMat=1 NMatS=1 NMatT=0.
 -------------------------------------------------------------------
 Center     Atomic                   Forces (Hartrees/Bohr)
 Number     Number              X              Y              Z
 -------------------------------------------------------------------
      1        8           0.002393815    0.001648907   -0.005251199
      2        1          -0.000427916    0.000197508    0.000621673
      3        8          -0.002557688   -0.000000970   -0.000882181
      4        6           0.006348189    0.002369200   -0.005157851
      5        1          -0.001160081   -0.000476049    0.001067364
      6        1          -0.000863512   -0.000417918   -0.001044030
      7        6          -0.001780751   -0.000344460    0.007147840
      8        1           0.000087943   -0.000079306   -0.001905200
      9        1           0.000146703   -0.000886967   -0.000810748
     10        6           0.005111285    0.000232845    0.006276060
     11        8          -0.007297988   -0.002242790   -0.000061729
 -------------------------------------------------------------------
 Cartesian Forces:  Max     0.007297988 RMS     0.003037865

 GradGradGradGradGradGradGradGradGradGradGradGradGradGradGradGradGradGrad
 Berny optimization.
 Using GEDIIS/GDIIS optimizer.
 FormGI is forming the generalized inverse of G from B-inverse, IUseBI=4.
 Internal  Forces:  Max     0.007309047 RMS     0.001846835
 Search for a local minimum.
 Step number   5 out of a maximum of   51
 All quantities printed in internal units (Hartrees-Bohrs-Radians)
 Mixed Optimization -- RFO/linear search
 Update second derivatives using D2CorX and points    4    5
 DE= -4.00D-04 DEPred=-2.96D-04 R= 1.35D+00
 TightC=F SS=  1.41D+00  RLast= 6.36D-01 DXNew= 7.3395D-01 1.9072D+00
 Trust test= 1.35D+00 RLast= 6.36D-01 DXMaxT set to 7.34D-01
 ITU=  1  1  1  1  0
 Use linear search instead of GDIIS.
     Eigenvalues ---    0.00053   0.00771   0.01589   0.02889   0.05096
     Eigenvalues ---    0.05421   0.05976   0.06403   0.11427   0.11875
     Eigenvalues ---    0.13818   0.14103   0.16257   0.21408   0.22540
     Eigenvalues ---    0.26885   0.30783   0.32147   0.34326   0.34771
     Eigenvalues ---    0.34847   0.36743   0.42596   0.54734   0.55605
     Eigenvalues ---    1.04729   1.31968
 RFO step:  Lambda=-3.15866772D-04 EMin= 5.28795850D-04
 Quartic linear search produced a step of  0.10746.
 Iteration  1 RMS(Cart)=  0.10243220 RMS(Int)=  0.01098161
 Iteration  2 RMS(Cart)=  0.01927397 RMS(Int)=  0.00017871
 Iteration  3 RMS(Cart)=  0.00025865 RMS(Int)=  0.00001054
 Iteration  4 RMS(Cart)=  0.00000005 RMS(Int)=  0.00001054
 Variable       Old X    -DE/DX   Delta X   Delta X   Delta X     New X
                                 (Linear)    (Quad)   (Total)
    R1        1.82047  -0.00042   0.00002  -0.00007  -0.00006   1.82042
    R2        2.62990   0.00524  -0.00164  -0.00257  -0.00421   2.62569
    R3        2.23714  -0.00269   0.00047   0.00155   0.00202   2.23916
    R4        2.07212  -0.00011  -0.00022  -0.00146  -0.00168   2.07044
    R5        2.08151  -0.00072   0.00023   0.00094   0.00117   2.08267
    R6        2.87711   0.00061   0.00048   0.00256   0.00304   2.88015
    R7        2.70189   0.00731  -0.00273  -0.00610  -0.00883   2.69306
    R8        2.07773  -0.00007   0.00006   0.00007   0.00013   2.07787
    R9        2.09238  -0.00091   0.00035   0.00013   0.00048   2.09286
   R10        2.46071   0.00584  -0.00107  -0.00180  -0.00286   2.45785
    A1        1.90944  -0.00110   0.00094   0.00186   0.00280   1.91225
    A2        1.91640  -0.00038   0.00042   0.00116   0.00155   1.91795
    A3        1.91056   0.00112  -0.00183  -0.00319  -0.00503   1.90553
    A4        1.87913  -0.00130   0.00062  -0.00221  -0.00156   1.87756
    A5        1.93635   0.00005  -0.00102  -0.00325  -0.00429   1.93206
    A6        1.89901   0.00011  -0.00014  -0.00206  -0.00219   1.89682
    A7        1.92149   0.00035   0.00203   0.00961   0.01165   1.93315
    A8        1.93107   0.00162   0.00006   0.00117   0.00124   1.93231
[...]
 ! D10   D(11,4,7,1)          -176.5327         -DE/DX =    0.0                 !
 ! D11   D(11,4,7,8)           -58.5198         -DE/DX =    0.0                 !
 ! D12   D(11,4,7,9)            59.0073         -DE/DX =    0.0                 !
 ! D13   D(5,4,11,10)          159.0559         -DE/DX =    0.0                 !
 ! D14   D(6,4,11,10)           41.1417         -DE/DX =    0.0                 !
 ! D15   D(7,4,11,10)          -80.9512         -DE/DX =    0.0                 !
 ! D16   D(3,10,11,4)           -0.6824         -DE/DX =    0.0                 !
 --------------------------------------------------------------------------------
 GradGradGradGradGradGradGradGradGradGradGradGradGradGradGradGradGradGrad

                          Input orientation:                          
 ---------------------------------------------------------------------
 Center     Atomic      Atomic             Coordinates (Angstroms)
 Number     Number       Type             X           Y           Z
 ---------------------------------------------------------------------
      1          8           0        3.346548    6.443486   -1.313032
      2          1           0        4.271140    6.204027   -1.189682
      3          8           0        3.414524    4.563533    2.579699
      4          6           0        2.405839    4.693089    0.034744
      5          1           0        1.824388    4.306788   -0.809407
      6          1           0        3.357305    4.145118    0.111598
      7          6           0        2.651350    6.187134   -0.124114
      8          1           0        1.683474    6.704027   -0.186226
      9          1           0        3.179269    6.570110    0.766800
     10          6           0        2.264354    4.406122    2.354586
     11          8           0        1.619809    4.426564    1.216034
 ---------------------------------------------------------------------
                    Distance matrix (angstroms):
                    1          2          3          4          5
     1  O    0.000000
     2  H    0.963030   0.000000
     3  O    4.323447   4.199195   0.000000
     4  C    2.401109   2.694717   2.740625   0.000000
     5  H    2.671345   3.119410   3.752398   1.095401   0.000000
     6  H    2.704105   2.601448   2.503970   1.100667   1.795612
     7  C    1.400907   1.938927   3.244861   1.522394   2.165455
     8  H    2.025682   2.820095   3.902382   2.148142   2.480921
     9  H    2.090387   2.270247   2.714461   2.158080   3.072907
    10  C    4.332831   4.452133   1.182517   2.341802   3.195981
    11  O    3.666849   3.997049   2.258173   1.443719   2.039268
                    6          7          8          9         10
     6  H    0.000000
     7  C    2.173422   0.000000
     8  H    3.072202   1.099009   0.000000
     9  H    2.518248   1.104127   1.778649   0.000000
    10  C    2.508717   3.076642   3.474696   2.835662   0.000000
    11  O    2.077952   2.441246   2.675299   2.688590   1.308494
                   11
    11  O    0.000000
 Symmetry turned off by external request.
 Stoichiometry    C3H5O3(2)
 Framework group  C1[X(C3H5O3)]
 Deg. of freedom    27
 Full point group                 C1      NOp   1
 Rotational constants (GHZ):           8.5404290           2.0699752           1.8203273

 **********************************************************************

            Population analysis using the SCF Density.

 **********************************************************************

 Alpha  occ. eigenvalues --  -19.71065 -19.67352 -19.64458 -10.69923 -10.62957
 Alpha  occ. eigenvalues --  -10.61635  -1.25944  -1.17511  -1.14771  -0.87444
 Alpha  occ. eigenvalues --   -0.75855  -0.66891  -0.62418  -0.59831  -0.59295
 Alpha  occ. eigenvalues --   -0.56663  -0.52858  -0.50447  -0.48504  -0.44346
 Alpha  occ. eigenvalues --   -0.42554  -0.40781  -0.36163  -0.29715
 Alpha virt. eigenvalues --    0.04836   0.07413   0.11759   0.13178   0.14857
 Alpha virt. eigenvalues --    0.18077   0.19034   0.24725   0.27716   0.30435
 Alpha virt. eigenvalues --    0.35888   0.43826   0.46879   0.47646   0.50717
 Alpha virt. eigenvalues --    0.52801   0.55602   0.56786   0.63261   0.65315
 Alpha virt. eigenvalues --    0.66982   0.68827   0.70692   0.71178   0.73375
 Alpha virt. eigenvalues --    0.74395   0.80059   0.85107   0.94790   1.03002
 Alpha virt. eigenvalues --    1.05528   1.06193   1.07612   1.13199   1.17370
 Alpha virt. eigenvalues --    1.24274   1.30736   1.33367   1.36988   1.41808
 Alpha virt. eigenvalues --    1.46401   1.48343   1.51559   1.55287   1.60157
 Alpha virt. eigenvalues --    1.62673   1.65873   1.71162   1.73577   1.80164
 Alpha virt. eigenvalues --    1.82294   1.86670   1.87761   1.91191   1.91569
 Alpha virt. eigenvalues --    1.92797   1.96682   2.05414   2.05650   2.14209
 Alpha virt. eigenvalues --    2.26402   2.31151   2.37395   2.41937   2.42572
 Alpha virt. eigenvalues --    2.46413   2.65932   2.67520   2.70807   2.82538
 Alpha virt. eigenvalues --    2.84828   2.89765   2.93099   2.97416   3.00257
 Alpha virt. eigenvalues --    3.03292   3.10596   3.18059   3.19805   3.29650
 Alpha virt. eigenvalues --    3.39536   3.41331   3.57877   3.70673   3.78352
  Beta  occ. eigenvalues --  -19.70780 -19.66748 -19.64448 -10.68893 -10.62906
  Beta  occ. eigenvalues --  -10.61637  -1.24522  -1.15927  -1.14686  -0.86611
  Beta  occ. eigenvalues --   -0.75122  -0.66166  -0.61876  -0.58196  -0.57777
  Beta  occ. eigenvalues --   -0.55108  -0.52308  -0.49915  -0.46205  -0.42405
  Beta  occ. eigenvalues --   -0.42287  -0.40686  -0.36051
  Beta virt. eigenvalues --   -0.04366   0.06796   0.07805   0.11974   0.13271
  Beta virt. eigenvalues --    0.15051   0.18315   0.19439   0.24985   0.27791
  Beta virt. eigenvalues --    0.30949   0.35244   0.44672   0.46773   0.47964
  Beta virt. eigenvalues --    0.50665   0.53071   0.55875   0.57167   0.63445
  Beta virt. eigenvalues --    0.65401   0.67001   0.68961   0.70888   0.71227
  Beta virt. eigenvalues --    0.73479   0.76614   0.80197   0.85166   0.95413
  Beta virt. eigenvalues --    1.03585   1.05636   1.06299   1.07626   1.13912
  Beta virt. eigenvalues --    1.17372   1.24632   1.30826   1.33491   1.36762
  Beta virt. eigenvalues --    1.42036   1.46432   1.48671   1.50842   1.55729
  Beta virt. eigenvalues --    1.60700   1.64315   1.68429   1.73252   1.74311
  Beta virt. eigenvalues --    1.80545   1.83368   1.86797   1.88248   1.91461
  Beta virt. eigenvalues --    1.92027   1.93033   1.97546   2.05688   2.08084
  Beta virt. eigenvalues --    2.14550   2.26467   2.32057   2.37651   2.42195
  Beta virt. eigenvalues --    2.42870   2.47168   2.66847   2.67847   2.71897
  Beta virt. eigenvalues --    2.82736   2.85085   2.90171   2.93376   2.97927
  Beta virt. eigenvalues --    3.00697   3.03488   3.10843   3.18942   3.19912
  Beta virt. eigenvalues --    3.30866   3.39593   3.41966   3.58882   3.72023
  Beta virt. eigenvalues --    3.78373
          Condensed to atoms (all electrons):
               1          2          3          4          5          6
     1  O    7.792168   0.333812   0.000005  -0.052369   0.007416   0.003572
     2  H    0.333812   0.515663  -0.000036  -0.002199  -0.001841   0.005690
     3  O    0.000005  -0.000036   7.691404   0.008193   0.000289   0.012705
     4  C   -0.052369  -0.002199   0.008193   4.743919   0.371296   0.383496
     5  H    0.007416  -0.001841   0.000289   0.371296   0.613514  -0.029833
     6  H    0.003572   0.005690   0.012705   0.383496  -0.029833   0.641422
     7  C    0.312095  -0.037460  -0.009409   0.372249  -0.015095  -0.035398
     8  H   -0.027557   0.009372   0.000223  -0.029022  -0.013907   0.009403
     9  H   -0.020943  -0.011216   0.007799  -0.046059   0.008634  -0.011719
    10  C    0.000100  -0.000053   0.564833  -0.020856   0.005352  -0.006463
    11  O    0.001437  -0.000031  -0.063928   0.177616  -0.017795  -0.026402
               7          8          9         10         11
     1  O    0.312095  -0.027557  -0.020943   0.000100   0.001437
     2  H   -0.037460   0.009372  -0.011216  -0.000053  -0.000031
     3  O   -0.009409   0.000223   0.007799   0.564833  -0.063928
     4  C    0.372249  -0.029022  -0.046059  -0.020856   0.177616
     5  H   -0.015095  -0.013907   0.008634   0.005352  -0.017795
     6  H   -0.035398   0.009403  -0.011719  -0.006463  -0.026402
     7  C    4.532701   0.374958   0.403795  -0.005828  -0.022064
     8  H    0.374958   0.651338  -0.035313  -0.000204   0.004517
     9  H    0.403795  -0.035313   0.649711   0.009952  -0.003932
    10  C   -0.005828  -0.000204   0.009952   4.959267   0.263593
    11  O   -0.022064   0.004517  -0.003932   0.263593   7.997951
          Atomic-Atomic Spin Densities.
               1          2          3          4          5          6
     1  O    0.004882  -0.000171   0.000013  -0.002380  -0.000144   0.000485
     2  H   -0.000171  -0.000041  -0.000040   0.000352   0.000024  -0.000144
     3  O    0.000013  -0.000040   0.325099   0.002572  -0.000124   0.002348
     4  C   -0.002380   0.000352   0.002572   0.079838   0.000784   0.000119
     5  H   -0.000144   0.000024  -0.000124   0.000784  -0.003206  -0.000516
     6  H    0.000485  -0.000144   0.002348   0.000119  -0.000516  -0.004185
     7  C   -0.000448   0.000372  -0.000137  -0.002259   0.000593  -0.000672
     8  H    0.000018  -0.000023  -0.000012  -0.000151  -0.000050  -0.000039
     9  H    0.000528  -0.000148   0.000786   0.000787  -0.000196   0.000500
    10  C    0.000004   0.000005  -0.131184   0.019368  -0.000560   0.001273
    11  O   -0.000025   0.000010   0.003377  -0.031456   0.000901  -0.002143
               7          8          9         10         11
     1  O   -0.000448   0.000018   0.000528   0.000004  -0.000025
     2  H    0.000372  -0.000023  -0.000148   0.000005   0.000010
     3  O   -0.000137  -0.000012   0.000786  -0.131184   0.003377
     4  C   -0.002259  -0.000151   0.000787   0.019368  -0.031456
     5  H    0.000593  -0.000050  -0.000196  -0.000560   0.000901
     6  H   -0.000672  -0.000039   0.000500   0.001273  -0.002143
     7  C   -0.001689   0.000544  -0.001129  -0.000500   0.002160
     8  H    0.000544  -0.000316  -0.000022  -0.000017  -0.000147
     9  H   -0.001129  -0.000022  -0.000647   0.000951  -0.001285
    10  C   -0.000500  -0.000017   0.000951   1.024857  -0.180137
    11  O    0.002160  -0.000147  -0.001285  -0.180137   0.210173
 Mulliken charges and spin densities:
               1          2
     1  O   -0.349737   0.002763
     2  H    0.188299   0.000197
     3  O   -0.212077   0.202698
     4  C    0.093736   0.067574
     5  H    0.071971  -0.002494
     6  H    0.053527  -0.002974
     7  C    0.129456  -0.003165
     8  H    0.056191  -0.000213
     9  H    0.049291   0.000124
    10  C    0.230305   0.734061
    11  O   -0.310962   0.001428
 Sum of Mulliken charges =  -0.00000   1.00000
 Mulliken charges and spin densities with hydrogens summed into heavy atoms:
               1          2
     1  O   -0.161438   0.002960
     3  O   -0.212077   0.202698
     4  C    0.219234   0.062106
     7  C    0.234938  -0.003253
    10  C    0.230305   0.734061
    11  O   -0.310962   0.001428
 Electronic spatial extent (au):  <R**2>=           6397.4391
 Charge=             -0.0000 electrons
 Dipole moment (field-independent basis, Debye):
    X=              0.5478    Y=             -0.1459    Z=             -1.2959  Tot=              1.4145
 Quadrupole moment (field-independent basis, Debye-Ang):
   XX=            -30.5167   YY=            -36.9383   ZZ=            -43.3260
   XY=              2.5286   XZ=             -5.7461   YZ=             -2.7894
 Traceless Quadrupole moment (field-independent basis, Debye-Ang):
   XX=              6.4103   YY=             -0.0112   ZZ=             -6.3990
   XY=              2.5286   XZ=             -5.7461   YZ=             -2.7894
 Octapole moment (field-independent basis, Debye-Ang**2):
  XXX=           -243.8725  YYY=           -564.2010  ZZZ=            -87.7365  XYY=            -82.1938
  XXY=           -152.3798  XXZ=            -55.8391  XZZ=           -120.9484  YZZ=           -223.7112
  YYZ=            -14.6892  XYZ=            -18.9629
 Hexadecapole moment (field-independent basis, Debye-Ang**3):
 XXXX=          -1371.1032 YYYY=          -6027.7346 ZZZZ=           -600.5000 XXXY=          -1236.0379
 XXXZ=           -334.9749 YYYX=          -1439.7097 YYYZ=            -82.1579 ZZZX=           -233.1591
 ZZZY=           -338.1312 XXYY=          -1058.7389 XXZZ=           -452.4826 YYZZ=          -1283.2707
 XXYZ=           -226.6074 YYXZ=            -88.5431 ZZXY=           -630.0569
 N-N= 2.333283183570D+02 E-N=-1.269334869144D+03  KE= 3.398873442878D+02
                          Isotropic Fermi Contact Couplings
        Atom                 a.u.       MegaHertz       Gauss      10(-4) cm-1
     1  O(17)              0.00375      -2.27186      -0.81066      -0.75781
     2  H(1)              -0.00005      -0.22597      -0.08063      -0.07538
     3  O(17)              0.15851     -96.09018     -34.28736     -32.05223
     4  C(13)              0.02662      29.92600      10.67834       9.98224
     5  H(1)              -0.00054      -2.42018      -0.86358      -0.80729
     6  H(1)              -0.00119      -5.30966      -1.89462      -1.77111
     7  C(13)             -0.00014      -0.15229      -0.05434      -0.05080
     8  H(1)               0.00003       0.11437       0.04081       0.03815
     9  H(1)               0.00023       1.02970       0.36742       0.34347
    10  C(13)              0.79053     888.70196     317.11096     296.43906
    11  O(17)              0.46413    -281.35148    -100.39320     -93.84875
 --------------------------------------------------------
       Center         ----  Spin Dipole Couplings  ----
                      3XX-RR        3YY-RR        3ZZ-RR
 --------------------------------------------------------
     1   Atom       -0.006989      0.004292      0.002697
     2   Atom        0.000306     -0.001136      0.000830
     3   Atom       -0.066401     -0.600986      0.667387
     4   Atom       -0.002839     -0.042518      0.045358
     5   Atom       -0.002313     -0.006326      0.008639
     6   Atom       -0.000091     -0.007800      0.007891
     7   Atom       -0.002867     -0.001305      0.004172
     8   Atom       -0.002870      0.001609      0.001261
     9   Atom       -0.003615      0.003327      0.000287
    10   Atom        0.157670     -0.244955      0.087285
    11   Atom       -0.094946     -0.148596      0.243542
 --------------------------------------------------------
                        XY            XZ            YZ
 --------------------------------------------------------
     1   Atom        0.006137     -0.005667     -0.013407
     2   Atom        0.000968     -0.001573     -0.001692
     3   Atom        0.179950     -0.728912     -0.270094
     4   Atom        0.008236     -0.054479     -0.013558
     5   Atom        0.002639      0.003191      0.002468
     6   Atom       -0.004231     -0.004183      0.000445
     7   Atom        0.000308     -0.000097     -0.004324
     8   Atom       -0.001024      0.000783     -0.004011
     9   Atom        0.002871     -0.001552     -0.005746
    10   Atom        0.126094     -0.482700     -0.119889
    11   Atom        0.004166      0.050038     -0.025874
 --------------------------------------------------------


 ---------------------------------------------------------------------------------
              Anisotropic Spin Dipole Couplings in Principal Axis System
 ---------------------------------------------------------------------------------

       Atom             a.u.   MegaHertz   Gauss  10(-4) cm-1        Axes

              Baa    -0.0100     0.720     0.257     0.240 -0.2209  0.7172  0.6610
     1 O(17)  Bbb    -0.0096     0.695     0.248     0.232  0.9280 -0.0541  0.3687
              Bcc     0.0196    -1.415    -0.505    -0.472  0.3002  0.6948 -0.6535
 
              Baa    -0.0021    -1.127    -0.402    -0.376 -0.0347  0.8742  0.4843
     2 H(1)   Bbb    -0.0009    -0.499    -0.178    -0.167  0.8287 -0.2457  0.5029
              Bcc     0.0030     1.626     0.580     0.542 -0.5587 -0.4187  0.7159
 
              Baa    -0.6611    47.835    17.069    15.956 -0.1599  0.9808  0.1117
     3 O(17)  Bbb    -0.5147    37.241    13.289    12.422  0.8408  0.0761  0.5359
              Bcc     1.1757   -85.076   -30.357   -28.378 -0.5171 -0.1796  0.8369
 
              Baa    -0.0446    -5.980    -2.134    -1.995 -0.0025  0.9890  0.1476
     4 C(13)  Bbb    -0.0383    -5.136    -1.833    -1.713  0.8411 -0.0777  0.5353
              Bcc     0.0828    11.116     3.966     3.708 -0.5409 -0.1255  0.8317
 
              Baa    -0.0077    -4.098    -1.462    -1.367 -0.4132  0.9089 -0.0567
     5 H(1)   Bbb    -0.0024    -1.283    -0.458    -0.428  0.8659  0.3729 -0.3335
              Bcc     0.0101     5.381     1.920     1.795  0.2820  0.1869  0.9411
 
              Baa    -0.0098    -5.213    -1.860    -1.739  0.4276  0.9005  0.0786
     6 H(1)   Bbb    -0.0002    -0.091    -0.032    -0.030  0.7973 -0.4167  0.4367
              Bcc     0.0099     5.304     1.893     1.769 -0.4260  0.1241  0.8962
 
              Baa    -0.0037    -0.502    -0.179    -0.168 -0.2484  0.8513  0.4621
     7 C(13)  Bbb    -0.0028    -0.378    -0.135    -0.126  0.9683  0.2060  0.1410
              Bcc     0.0066     0.880     0.314     0.294 -0.0248 -0.4825  0.8755
 
              Baa    -0.0031    -1.655    -0.590    -0.552  0.9547  0.2837  0.0894
     8 H(1)   Bbb    -0.0025    -1.356    -0.484    -0.452 -0.2575  0.6379  0.7258
              Bcc     0.0056     3.011     1.074     1.004 -0.1489  0.7160 -0.6821
 
              Baa    -0.0048    -2.578    -0.920    -0.860  0.7836 -0.5177 -0.3435
     9 H(1)   Bbb    -0.0038    -2.012    -0.718    -0.671  0.5663  0.3679  0.7375
              Bcc     0.0086     4.590     1.638     1.531  0.2554  0.7724 -0.5815
 
              Baa    -0.3615   -48.516   -17.312   -16.183  0.6777  0.0228  0.7350
    10 C(13)  Bbb    -0.2791   -37.451   -13.364   -12.492 -0.1569  0.9810  0.1143
              Bcc     0.6406    85.967    30.675    28.676  0.7184  0.1928 -0.6684
 
              Baa    -0.1514    10.955     3.909     3.654 -0.1464  0.9857  0.0831
    11 O(17)  Bbb    -0.1009     7.305     2.606     2.437  0.9790  0.1564 -0.1305
              Bcc     0.2523   -18.260    -6.515    -6.091  0.1416 -0.0623  0.9880
 

 ---------------------------------------------------------------------------------

 1\1\GINC-R1I1N11\FOpt\UM062X\def2SVP\C3H5O3(2)\HMAYES\27-Jun-2019\0\\#
  m062x/Def2SVP nosymm scf=xqc opt\\narrow results from confab\\0,2\O,3
 .3465478739,6.443486277,-1.3130321592\H,4.2711399391,6.2040270166,-1.1
 896815767\O,3.4145243009,4.5635329638,2.5796985586\C,2.4058386993,4.69
 30888274,0.0347437851\H,1.8243881557,4.3067884194,-0.8094074036\H,3.35
 73052105,4.1451181154,0.1115983033\C,2.6513501241,6.1871344762,-0.1241
 144045\H,1.6834742945,6.7040274214,-0.1862258545\H,3.1792686774,6.5701
 101872,0.7668002929\C,2.2643535547,4.4061223617,2.354586342\O,1.619809
 17,4.4265639339,1.2160341166\\Version=ES64L-G16RevB.01\HF=-342.521601\
 S2=0.753937\S2-1=0.\S2A=0.75001\RMSD=9.482e-09\RMSF=2.459e-05\Dipole=0
 .2155286,-0.0573839,-0.5098625\Quadrupole=4.7658773,-0.0083591,-4.7575
 182,1.8799447,-4.2720935,-2.0738871\PG=C01 [X(C3H5O3)]\\@


 WE DON'T KNOW ONE MILLIONTH OF ONE PERCENT ABOUT
 ANYTHING.
                                     T. A. EDISON.
 Job cpu time:       0 days  0 hours 24 minutes 39.5 seconds.
 Elapsed time:       0 days  0 hours  0 minutes 54.8 seconds.
 File lengths (MBytes):  RWF=     14 Int=      0 D2E=      0 Chk=      2 Scr=      1
 Normal termination of Gaussian 16 at Thu Jun 27 15:17:37 2019.
