 Entering Gaussian System, Link 0=g16
 Initial command:
 /nopt/nrel/apps/gaussian/g16B/g16/l1.exe "/dev/shm/Gau-78693.inp" -scrdir="/dev/shm/"
 Default linda workers: r6i0n0
 Default is to use  36 SMP processors on each worker.
 Entering Link 1 = /nopt/nrel/apps/gaussian/g16B/g16/l1.exe PID=     78694.
  
 Copyright (c) 1988-2017, Gaussian, Inc.  All Rights Reserved.
  
 This is part of the Gaussian(R) 16 program.  It is based on
 the Gaussian(R) 09 system (copyright 2009, Gaussian, Inc.),
 the Gaussian(R) 03 system (copyright 2003, Gaussian, Inc.),
 the Gaussian(R) 98 system (copyright 1998, Gaussian, Inc.),
 the Gaussian(R) 94 system (copyright 1995, Gaussian, Inc.),
 the Gaussian 92(TM) system (copyright 1992, Gaussian, Inc.),
 the Gaussian 90(TM) system (copyright 1990, Gaussian, Inc.),
 the Gaussian 88(TM) system (copyright 1988, Gaussian, Inc.),
 the Gaussian 86(TM) system (copyright 1986, Carnegie Mellon
 University), and the Gaussian 82(TM) system (copyright 1983,
 Carnegie Mellon University). Gaussian is a federally registered
 trademark of Gaussian, Inc.
  
 This software contains proprietary and confidential information,
 including trade secrets, belonging to Gaussian, Inc.
  
 This software is provided under written license and may be
 used, copied, transmitted, or stored only in accord with that
 written license.
  
 The following legend is applicable only to US Government
 contracts under FAR:
  
                    RESTRICTED RIGHTS LEGEND
  
 Use, reproduction and disclosure by the US Government is
 subject to restrictions as set forth in subparagraphs (a)
 and (c) of the Commercial Computer Software - Restricted
 Rights clause in FAR 52.227-19.
  
 Gaussian, Inc.
 340 Quinnipiac St., Bldg. 40, Wallingford CT 06492
  
  
 ---------------------------------------------------------------
 Warning -- This program may not be used in any manner that
 competes with the business of Gaussian, Inc. or will provide
 assistance to any competitor of Gaussian, Inc.  The licensee
 of this program is prohibited from giving any competitor of
 Gaussian, Inc. access to this program.  By using this program,
 the user acknowledges that Gaussian, Inc. is engaged in the
 business of creating and licensing software in the field of
 computational chemistry and represents and warrants to the
 licensee that it is not a competitor of Gaussian, Inc. and that
 it will not use this program in any manner prohibited above.
 ---------------------------------------------------------------
  

 Cite this work as:
 Gaussian 16, Revision B.01,
 M. J. Frisch, G. W. Trucks, H. B. Schlegel, G. E. Scuseria, 
 M. A. Robb, J. R. Cheeseman, G. Scalmani, V. Barone, 
 G. A. Petersson, H. Nakatsuji, X. Li, M. Caricato, A. V. Marenich, 
 J. Bloino, B. G. Janesko, R. Gomperts, B. Mennucci, H. P. Hratchian, 
 J. V. Ortiz, A. F. Izmaylov, J. L. Sonnenberg, D. Williams-Young, 
 F. Ding, F. Lipparini, F. Egidi, J. Goings, B. Peng, A. Petrone, 
 T. Henderson, D. Ranasinghe, V. G. Zakrzewski, J. Gao, N. Rega, 
 G. Zheng, W. Liang, M. Hada, M. Ehara, K. Toyota, R. Fukuda, 
 J. Hasegawa, M. Ishida, T. Nakajima, Y. Honda, O. Kitao, H. Nakai, 
 T. Vreven, K. Throssell, J. A. Montgomery, Jr., J. E. Peralta, 
 F. Ogliaro, M. J. Bearpark, J. J. Heyd, E. N. Brothers, K. N. Kudin, 
 V. N. Staroverov, T. A. Keith, R. Kobayashi, J. Normand, 
 K. Raghavachari, A. P. Rendell, J. C. Burant, S. S. Iyengar, 
 J. Tomasi, M. Cossi, J. M. Millam, M. Klene, C. Adamo, R. Cammi, 
 J. W. Ochterski, R. L. Martin, K. Morokuma, O. Farkas, 
 J. B. Foresman, and D. J. Fox, Gaussian, Inc., Wallingford CT, 2016.
 
 ******************************************
 Gaussian 16:  ES64L-G16RevB.01 20-Dec-2017
                28-Jun-2019 
 ******************************************
 %RWF=/dev/shm/,5GB,/tmp/scratch/920318/,-1
 %NoSave
 %OldChk=pet_mono_843.chk
 %Chk=/dev/shm/pet_mono_843_tzvp.chk
 SetLPE:    new flags="-opt 'Tsnet.Node.lindarsharg: ssh'  -nodelist 'r6i0n0.ib0.cm.hpc.nrel.gov' -env GAUSS_MDEF=9663676416 -env GAUSS_EXEDIR="/nopt/nrel/apps/gaussian/g16B/g16/bsd:/nopt/nrel/apps/gaussian/g16B/g16/local:/nopt/nrel/apps/gaussian/g16B/g16/extras:/nopt/nrel/apps/gaussian/g16B/g16""
 Will use up to    1 processors via Linda.
 Copying data from "pet_mono_843.chk" to current chk file "/dev/shm/pet_mono_843_tzvp.chk"
 IOpt=  2 FromEx=T IUOpen= 4 IOptOp= 5 NList=   0 IFRang= 0 IUIn= 4 IUOut= 2.
 Default route: CacheSize=180224 MaxDisk=256GB
 ----------------------------------------------------------------------
 # geom=allcheck guess=read m062x/Def2TZVP nosymm scf=xqc opt freq=NoRa
 man
 ----------------------------------------------------------------------
 1/4=180224,18=20,19=15,26=3,29=7,38=1/1,3;
 2/4=180224,9=110,12=2,15=1,40=1/2;
 3/4=180224,5=44,7=101,11=2,14=-4,25=1,30=1,71=1,74=-55,116=-2/1,2,3;
 4/4=180224,5=1/1;
 5/4=180224,5=2,8=3,13=1,38=6/2,8;
 6/4=180224,7=2,8=2,9=2,10=2,28=1/1;
 7/4=180224,30=1/1,2,3,16;
 1/4=180224,18=20,19=15,26=3/3(2);
 2/4=180224,9=110,15=1/2;
 99/4=180224/99;
 2/4=180224,9=110,15=1/2;
 3/4=180224,5=44,7=101,11=2,14=-2,25=1,30=1,71=1,74=-55/1,2,3;
 4/4=180224,5=5,16=3,69=1/1;
 5/4=180224,5=2,8=3,13=1,38=5/2,8;
 7/4=180224,30=1/1,2,3,16;
 1/4=180224,18=20,19=15,26=3/3(-5);
 2/4=180224,9=110,15=1/2;
 6/4=180224,7=2,8=2,9=2,10=2,19=2,28=1/1;
 99/4=180224,9=1/99;
 Structure from the checkpoint file:  "/dev/shm/pet_mono_843_tzvp.chk"
 --------------------------
 narrow results from confab
 --------------------------
 Charge =  0 Multiplicity = 1
 Redundant internal coordinates found in file.  (old form).
 O,0,4.8834819376,2.6080698541,0.5004471804
 H,0,4.0533456704,2.1569139398,0.71092948
 C,0,-0.9320378943,2.2372355155,4.0954199371
 H,0,-1.4976160009,1.329088339,4.3060020226
 C,0,0.1227607592,2.2431369213,3.1914967654
 H,0,0.4227945554,1.3398853803,2.6594285308
 O,0,2.2665600105,2.3837378576,1.3708635472
 C,0,3.5922935438,4.6699624459,0.8363930818
 H,0,3.8187476117,5.7421644629,0.8307403489
 H,0,3.1916277342,4.376305681,-0.14614328
 C,0,4.8481457839,3.8499778087,1.1285109696
 H,0,5.7116576565,4.4198310251,0.7535826472
 H,0,4.9638977126,3.7872994364,2.2296813594
 C,0,0.8225123144,3.4294788635,2.949911062
 C,0,1.9485798969,3.3845507894,1.9680834031
 O,0,-2.6924206227,4.5334506855,6.278964896
 C,0,-1.2849874224,3.4175179035,4.7571859963
 C,0,-2.4259801458,3.3595754259,5.7209364403
 O,0,2.5584400644,4.5541989917,1.8255808453
 C,0,0.4699467554,4.6103661173,3.6105860071
 H,0,1.0271258881,5.5244537827,3.4087274325
 C,0,-0.5855058168,4.6041446529,4.5168165825
 H,0,-0.8754082209,5.5133130864,5.0423086162
 O,0,-3.0388327989,2.3466326303,5.9613191351
 C,0,-5.1189901581,4.3050062637,6.810701232
 H,0,-5.1926103151,4.6529428566,5.7602598037
 H,0,-5.8062066365,4.9320461704,7.3985063972
 C,0,-3.7000500202,4.5919667741,7.2996343983
 H,0,-3.4463777933,3.884103049,8.1038151242
 H,0,-3.6177950304,5.6169716295,7.6784816993
 O,0,-5.5315758745,2.9866855473,6.9832387995
 H,0,-4.8505231445,2.4199861125,6.5935895391
 Recover connectivity data from disk.

 GradGradGradGradGradGradGradGradGradGradGradGradGradGradGradGradGradGrad
 Berny optimization.
 Initialization pass.
                           ----------------------------
                           !    Initial Parameters    !
                           ! (Angstroms and Degrees)  !
 --------------------------                            --------------------------
 ! Name  Definition              Value          Derivative Info.                !
 --------------------------------------------------------------------------------
 ! R1    R(1,2)                  0.968          estimate D2E/DX2                !
 ! R2    R(1,11)                 1.3921         estimate D2E/DX2                !
 ! R3    R(3,4)                  1.0904         estimate D2E/DX2                !
 ! R4    R(3,5)                  1.3891         estimate D2E/DX2                !
 ! R5    R(3,17)                 1.3984         estimate D2E/DX2                !
 ! R6    R(5,6)                  1.0904         estimate D2E/DX2                !
 ! R7    R(5,14)                 1.3984         estimate D2E/DX2                !
 ! R8    R(7,15)                 1.2081         estimate D2E/DX2                !
 ! R9    R(8,9)                  1.0959         estimate D2E/DX2                !
 ! R10   R(8,10)                 1.101          estimate D2E/DX2                !
 ! R11   R(8,11)                 1.528          estimate D2E/DX2                !
 ! R12   R(8,19)                 1.4355         estimate D2E/DX2                !
 ! R13   R(11,12)                1.1004         estimate D2E/DX2                !
 ! R14   R(11,13)                1.109          estimate D2E/DX2                !
 ! R15   R(14,15)                1.4947         estimate D2E/DX2                !
 ! R16   R(14,20)                1.3983         estimate D2E/DX2                !
 ! R17   R(15,19)                1.3268         estimate D2E/DX2                !
 ! R18   R(16,18)                1.3268         estimate D2E/DX2                !
 ! R19   R(16,28)                1.4354         estimate D2E/DX2                !
 ! R20   R(17,18)                1.4947         estimate D2E/DX2                !
 ! R21   R(17,22)                1.3983         estimate D2E/DX2                !
 ! R22   R(18,24)                1.2081         estimate D2E/DX2                !
 ! R23   R(20,21)                1.0894         estimate D2E/DX2                !
 ! R24   R(20,22)                1.3911         estimate D2E/DX2                !
 ! R25   R(22,23)                1.0894         estimate D2E/DX2                !
 ! R26   R(25,26)                1.109          estimate D2E/DX2                !
 ! R27   R(25,27)                1.1004         estimate D2E/DX2                !
 ! R28   R(25,28)                1.528          estimate D2E/DX2                !
 ! R29   R(25,31)                1.3921         estimate D2E/DX2                !
 ! R30   R(28,29)                1.101          estimate D2E/DX2                !
 ! R31   R(28,30)                1.0959         estimate D2E/DX2                !
 ! R32   R(31,32)                0.9679         estimate D2E/DX2                !
 ! A1    A(2,1,11)             107.2126         estimate D2E/DX2                !
 ! A2    A(4,3,5)              121.5376         estimate D2E/DX2                !
 ! A3    A(4,3,17)             118.7273         estimate D2E/DX2                !
 ! A4    A(5,3,17)             119.7351         estimate D2E/DX2                !
 ! A5    A(3,5,6)              121.5289         estimate D2E/DX2                !
 ! A6    A(3,5,14)             119.7351         estimate D2E/DX2                !
 ! A7    A(6,5,14)             118.736          estimate D2E/DX2                !
 ! A8    A(9,8,10)             109.3636         estimate D2E/DX2                !
 ! A9    A(9,8,11)             110.8664         estimate D2E/DX2                !
 ! A10   A(9,8,19)             103.3722         estimate D2E/DX2                !
 ! A11   A(10,8,11)            109.0609         estimate D2E/DX2                !
 ! A12   A(10,8,19)            109.3506         estimate D2E/DX2                !
 ! A13   A(11,8,19)            114.639          estimate D2E/DX2                !
 ! A14   A(1,11,8)             114.4144         estimate D2E/DX2                !
 ! A15   A(1,11,12)            106.7582         estimate D2E/DX2                !
 ! A16   A(1,11,13)            113.2593         estimate D2E/DX2                !
 ! A17   A(8,11,12)            107.572          estimate D2E/DX2                !
 ! A18   A(8,11,13)            107.8143         estimate D2E/DX2                !
 ! A19   A(12,11,13)           106.5986         estimate D2E/DX2                !
 ! A20   A(5,14,15)            117.7093         estimate D2E/DX2                !
 ! A21   A(5,14,20)            120.5748         estimate D2E/DX2                !
 ! A22   A(15,14,20)           121.7158         estimate D2E/DX2                !
 ! A23   A(7,15,14)            123.2262         estimate D2E/DX2                !
 ! A24   A(7,15,19)            123.797          estimate D2E/DX2                !
 ! A25   A(14,15,19)           112.9767         estimate D2E/DX2                !
 ! A26   A(18,16,28)           118.4302         estimate D2E/DX2                !
 ! A27   A(3,17,18)            117.7155         estimate D2E/DX2                !
 ! A28   A(3,17,22)            120.5744         estimate D2E/DX2                !
 ! A29   A(18,17,22)           121.7101         estimate D2E/DX2                !
 ! A30   A(16,18,17)           112.9663         estimate D2E/DX2                !
 ! A31   A(16,18,24)           123.7992         estimate D2E/DX2                !
 ! A32   A(17,18,24)           123.2345         estimate D2E/DX2                !
 ! A33   A(8,19,15)            118.4338         estimate D2E/DX2                !
 ! A34   A(14,20,21)           119.4793         estimate D2E/DX2                !
 ! A35   A(14,20,22)           119.6898         estimate D2E/DX2                !
 ! A36   A(21,20,22)           120.8309         estimate D2E/DX2                !
 ! A37   A(17,22,20)           119.6907         estimate D2E/DX2                !
 ! A38   A(17,22,23)           119.4855         estimate D2E/DX2                !
 ! A39   A(20,22,23)           120.8238         estimate D2E/DX2                !
 ! A40   A(26,25,27)           106.6019         estimate D2E/DX2                !
 ! A41   A(26,25,28)           107.8068         estimate D2E/DX2                !
 ! A42   A(26,25,31)           113.2551         estimate D2E/DX2                !
 ! A43   A(27,25,28)           107.5771         estimate D2E/DX2                !
 ! A44   A(27,25,31)           106.7574         estimate D2E/DX2                !
 ! A45   A(28,25,31)           114.4192         estimate D2E/DX2                !
 ! A46   A(16,28,25)           114.6252         estimate D2E/DX2                !
 ! A47   A(16,28,29)           109.3552         estimate D2E/DX2                !
 ! A48   A(16,28,30)           103.3708         estimate D2E/DX2                !
 ! A49   A(25,28,29)           109.0832         estimate D2E/DX2                !
 ! A50   A(25,28,30)           110.8534         estimate D2E/DX2                !
 ! A51   A(29,28,30)           109.3637         estimate D2E/DX2                !
 ! A52   A(25,31,32)           107.2192         estimate D2E/DX2                !
 ! D1    D(2,1,11,8)           -52.0023         estimate D2E/DX2                !
 ! D2    D(2,1,11,12)         -170.88           estimate D2E/DX2                !
 ! D3    D(2,1,11,13)           72.1092         estimate D2E/DX2                !
 ! D4    D(4,3,5,6)              0.0396         estimate D2E/DX2                !
 ! D5    D(4,3,5,14)           179.9981         estimate D2E/DX2                !
 ! D6    D(17,3,5,6)           179.9969         estimate D2E/DX2                !
 ! D7    D(17,3,5,14)           -0.0446         estimate D2E/DX2                !
 ! D8    D(4,3,17,18)            0.0107         estimate D2E/DX2                !
 ! D9    D(4,3,17,22)          179.9718         estimate D2E/DX2                !
 ! D10   D(5,3,17,18)         -179.9478         estimate D2E/DX2                !
 ! D11   D(5,3,17,22)            0.0134         estimate D2E/DX2                !
 ! D12   D(3,5,14,15)         -179.9579         estimate D2E/DX2                !
 ! D13   D(3,5,14,20)            0.0117         estimate D2E/DX2                !
 ! D14   D(6,5,14,15)            0.0018         estimate D2E/DX2                !
 ! D15   D(6,5,14,20)          179.9714         estimate D2E/DX2                !
 ! D16   D(9,8,11,1)          -147.5522         estimate D2E/DX2                !
 ! D17   D(9,8,11,12)          -29.1346         estimate D2E/DX2                !
 ! D18   D(9,8,11,13)           85.4792         estimate D2E/DX2                !
 ! D19   D(10,8,11,1)          -27.0797         estimate D2E/DX2                !
 ! D20   D(10,8,11,12)          91.3379         estimate D2E/DX2                !
 ! D21   D(10,8,11,13)        -154.0483         estimate D2E/DX2                !
 ! D22   D(19,8,11,1)           95.8875         estimate D2E/DX2                !
 ! D23   D(19,8,11,12)        -145.6949         estimate D2E/DX2                !
 ! D24   D(19,8,11,13)         -31.0811         estimate D2E/DX2                !
 ! D25   D(9,8,19,15)          172.3722         estimate D2E/DX2                !
 ! D26   D(10,8,19,15)          55.9686         estimate D2E/DX2                !
 ! D27   D(11,8,19,15)         -66.8425         estimate D2E/DX2                !
 ! D28   D(5,14,15,7)            0.8409         estimate D2E/DX2                !
 ! D29   D(5,14,15,19)        -179.0689         estimate D2E/DX2                !
 ! D30   D(20,14,15,7)        -179.1283         estimate D2E/DX2                !
 ! D31   D(20,14,15,19)          0.9619         estimate D2E/DX2                !
 ! D32   D(5,14,20,21)        -179.9892         estimate D2E/DX2                !
 ! D33   D(5,14,20,22)           0.0529         estimate D2E/DX2                !
 ! D34   D(15,14,20,21)         -0.0209         estimate D2E/DX2                !
 ! D35   D(15,14,20,22)       -179.9788         estimate D2E/DX2                !
 ! D36   D(7,15,19,8)            4.7401         estimate D2E/DX2                !
 ! D37   D(14,15,19,8)        -175.3507         estimate D2E/DX2                !
 ! D38   D(28,16,18,17)       -175.32           estimate D2E/DX2                !
 ! D39   D(28,16,18,24)          4.7623         estimate D2E/DX2                !
 ! D40   D(18,16,28,25)        -66.9787         estimate D2E/DX2                !
 ! D41   D(18,16,28,29)         55.8554         estimate D2E/DX2                !
 ! D42   D(18,16,28,30)        172.2604         estimate D2E/DX2                !
 ! D43   D(3,17,18,16)        -179.0508         estimate D2E/DX2                !
 ! D44   D(3,17,18,24)           0.8674         estimate D2E/DX2                !
 ! D45   D(22,17,18,16)          0.9885         estimate D2E/DX2                !
 ! D46   D(22,17,18,24)       -179.0933         estimate D2E/DX2                !
 ! D47   D(3,17,22,20)           0.0512         estimate D2E/DX2                !
 ! D48   D(3,17,22,23)        -179.9888         estimate D2E/DX2                !
 ! D49   D(18,17,22,20)       -179.9892         estimate D2E/DX2                !
 ! D50   D(18,17,22,23)         -0.0293         estimate D2E/DX2                !
 ! D51   D(14,20,22,17)         -0.0837         estimate D2E/DX2                !
 ! D52   D(14,20,22,23)        179.9569         estimate D2E/DX2                !
 ! D53   D(21,20,22,17)        179.959          estimate D2E/DX2                !
 ! D54   D(21,20,22,23)         -0.0004         estimate D2E/DX2                !
 ! D55   D(26,25,28,16)        -31.045          estimate D2E/DX2                !
 ! D56   D(26,25,28,29)       -154.0257         estimate D2E/DX2                !
 ! D57   D(26,25,28,30)         85.4953         estimate D2E/DX2                !
 ! D58   D(27,25,28,16)       -145.6615         estimate D2E/DX2                !
 ! D59   D(27,25,28,29)         91.3579         estimate D2E/DX2                !
 ! D60   D(27,25,28,30)        -29.1211         estimate D2E/DX2                !
 ! D61   D(31,25,28,16)         95.9154         estimate D2E/DX2                !
 ! D62   D(31,25,28,29)        -27.0652         estimate D2E/DX2                !
 ! D63   D(31,25,28,30)       -147.5442         estimate D2E/DX2                !
 ! D64   D(26,25,31,32)         72.2329         estimate D2E/DX2                !
 ! D65   D(27,25,31,32)       -170.7552         estimate D2E/DX2                !
 ! D66   D(28,25,31,32)        -51.8688         estimate D2E/DX2                !
 --------------------------------------------------------------------------------
 Trust Radius=3.00D-01 FncErr=1.00D-07 GrdErr=1.00D-06 EigMax=2.50D+02 EigMin=1.00D-04
 Number of steps in this run=    160 maximum allowed number of steps=    192.
 GradGradGradGradGradGradGradGradGradGradGradGradGradGradGradGradGradGrad

                          Input orientation:                          
 ---------------------------------------------------------------------
 Center     Atomic      Atomic             Coordinates (Angstroms)
 Number     Number       Type             X           Y           Z
 ---------------------------------------------------------------------
      1          8           0        4.883482    2.608070    0.500447
      2          1           0        4.053346    2.156914    0.710929
      3          6           0       -0.932038    2.237236    4.095420
      4          1           0       -1.497616    1.329088    4.306002
      5          6           0        0.122761    2.243137    3.191497
      6          1           0        0.422795    1.339885    2.659429
      7          8           0        2.266560    2.383738    1.370864
      8          6           0        3.592294    4.669962    0.836393
      9          1           0        3.818748    5.742164    0.830740
     10          1           0        3.191628    4.376306   -0.146143
     11          6           0        4.848146    3.849978    1.128511
     12          1           0        5.711658    4.419831    0.753583
     13          1           0        4.963898    3.787299    2.229681
     14          6           0        0.822512    3.429479    2.949911
     15          6           0        1.948580    3.384551    1.968083
     16          8           0       -2.692421    4.533451    6.278965
     17          6           0       -1.284987    3.417518    4.757186
     18          6           0       -2.425980    3.359575    5.720936
     19          8           0        2.558440    4.554199    1.825581
     20          6           0        0.469947    4.610366    3.610586
     21          1           0        1.027126    5.524454    3.408727
     22          6           0       -0.585506    4.604145    4.516817
     23          1           0       -0.875408    5.513313    5.042309
     24          8           0       -3.038833    2.346633    5.961319
     25          6           0       -5.118990    4.305006    6.810701
     26          1           0       -5.192610    4.652943    5.760260
     27          1           0       -5.806207    4.932046    7.398506
     28          6           0       -3.700050    4.591967    7.299634
     29          1           0       -3.446378    3.884103    8.103815
     30          1           0       -3.617795    5.616972    7.678482
     31          8           0       -5.531576    2.986686    6.983239
     32          1           0       -4.850523    2.419986    6.593590
 ---------------------------------------------------------------------
                    Distance matrix (angstroms):
                    1          2          3          4          5
     1  O    0.000000
     2  H    0.967972   0.000000
     3  C    6.847015   6.026216   0.000000
     4  H    7.538995   6.665059   1.090392   0.000000
     5  C    5.480820   4.648671   1.389141   2.168693   0.000000
     6  H    5.115391   4.200605   2.168612   2.529683   1.090404
     7  O    2.766989   1.918219   4.204248   4.888389   2.816088
     8  C    2.455897   2.558070   6.083502   7.007625   4.844962
     9  H    3.326455   3.594915   6.746304   7.734107   5.610408
    10  H    2.531227   2.530382   6.290556   7.148156   5.010808
    11  C    1.392138   1.916389   6.694327   7.531270   5.400658
    12  H    2.008091   2.805817   7.750503   8.610807   6.474349
    13  H    2.094588   2.407046   6.375401   7.218384   5.171666
    14  C    4.813113   4.131676   2.410826   3.410809   1.398364
    15  C    3.372021   2.741818   3.760299   4.644034   2.476526
    16  O    9.720733   9.064012   3.624834   3.948174   4.764792
    17  C    7.538239   6.816092   1.398418   2.147165   2.410873
    18  C    9.013684   8.278178   2.476654   2.643251   3.760396
    19  O    3.308960   3.037131   4.764864   5.745034   3.624813
    20  C    5.758598   5.221895   2.798638   3.888662   2.428981
    21  H    5.642240   5.270336   3.887888   4.978003   3.410587
    22  C    7.072861   6.480174   2.428975   3.406227   2.798655
    23  H    7.888838   7.370134   3.410644   4.293836   3.887917
    24  O    9.625619   8.826187   2.816404   2.480085   4.204557
    25  C   11.947734  11.222890   5.401759   5.314504   6.695215
    26  H   11.548799  10.826523   5.172989   5.178403   6.376431
    27  H   12.932654  12.232572   6.475331   6.411618   7.751246
    28  C   11.128424  10.462106   4.844960   4.945597   6.083394
    29  H   11.350155  10.671635   5.010121   4.974852   6.289864
    30  H   11.526031  10.925437   5.610191   5.852753   6.745929
    31  O   12.273686  11.484821   5.482419   5.117427   6.848481
    32  H   11.485322  10.674913   4.650675   4.202987   6.028189
                    6          7          8          9         10
     6  H    0.000000
     7  O    2.479818   0.000000
     8  C    4.945563   2.696303   0.000000
     9  H    5.852919   3.738990   1.095870   0.000000
    10  H    4.975693   2.669717   1.100975   1.792526   0.000000
    11  C    5.313003   2.978788   1.528029   2.174557   2.155416
    12  H    6.410178   4.049124   2.135680   2.310331   2.676182
    13  H    5.176498   3.159618   2.145144   2.662687   3.021988
    14  C    2.147220   2.381646   3.698303   4.337836   4.011825
    15  C    2.643224   1.208060   2.373774   3.217051   2.645506
    16  O    5.744952   7.300836   8.314918   8.575515   8.713710
    17  C    3.410816   5.014915   6.381936   6.846099   6.708353
    18  C    4.644082   6.472660   7.861011   8.281749   8.186201
    19  O    3.948176   2.236708   1.435530   1.997334   2.078526
    20  C    3.406313   3.633462   4.177170   4.496996   4.644927
    21  H    4.293865   3.943752   3.731909   3.806122   4.317455
    22  C    3.888695   4.791817   5.568111   5.854886   6.005151
    23  H    4.978046   5.757231   6.193652   6.310688   6.689813
    24  O    4.888649   7.015757   8.696814   9.212974   8.957640
    25  C    7.532356   9.371737  10.569390  10.849355  10.838318
    26  H    7.219714   8.947363  10.070714  10.329140  10.259511
    27  H    8.611790  10.392108  11.465680  11.680393  11.755493
    28  C    7.007524   8.696381   9.744632   9.985082  10.147972
    29  H    7.147369   8.956639  10.147704  10.446629  10.600339
    30  H    7.733739   9.212246   9.984807  10.109867  10.446638
    31  O    7.540677   9.626693  11.129336  11.527118  11.351362
    32  H    6.667242   8.827857  10.463692  10.927193  10.673677
                   11         12         13         14         15
    11  C    0.000000
    12  H    1.100435   0.000000
    13  H    1.109010   1.771471   0.000000
    14  C    4.438473   5.450541   4.218749   0.000000
    15  C    3.054339   4.087490   3.053323   1.494668   0.000000
    16  O    9.157208  10.058394   8.693253   4.965492   6.437589
    17  C    7.139302   8.123208   6.750821   2.776318   4.270379
    18  C    8.616483   9.592700   8.184260   4.270383   5.763793
    19  O    2.494912   3.333169   2.556885   2.354264   1.326768
    20  C    5.089942   5.972797   4.772833   1.398316   2.527211
    21  H    4.754309   5.496801   4.461617   2.154367   2.739291
    22  C    6.447787   7.338267   6.057566   2.411959   3.795397
    23  H    7.130467   7.935887   6.707271   3.406380   4.685872
    24  O    9.371260  10.391812   8.946750   5.015089   6.472827
    25  C   11.482079  12.409867  11.086857   7.139587   8.616770
    26  H   11.086687  12.001009  10.787445   6.751046   8.184499
    27  H   12.409631  13.307087  12.000931   8.123277   9.592755
    28  C   10.569057  11.465630  10.070546   6.381617   7.860681
    29  H   10.837673  11.755107  10.259023   6.707670   8.185495
    30  H   10.848804  11.680157  10.328726   6.845497   8.281116
    31  O   11.948294  12.933399  11.549557   7.539114   9.014589
    32  H   11.223909  12.233753  10.827562   6.817536   8.279704
                   16         17         18         19         20
    16  O    0.000000
    17  C    2.354142   0.000000
    18  C    1.326789   1.494669   0.000000
    19  O    6.885100   4.965711   6.437808   0.000000
    20  C    4.138445   2.411923   3.795319   2.747945   0.000000
    21  H    4.801601   3.406375   4.685824   2.406797   1.089381
    22  C    2.747591   1.398261   2.527094   4.138797   1.391141
    23  H    2.406446   2.154393   2.739233   4.801932   2.162203
    24  O    2.236755   2.381744   1.208067   7.301174   4.791865
    25  C    2.494628   4.438934   3.055115   9.157317   6.447495
    26  H    2.556224   4.219236   3.054274   8.693114   6.057018
    27  H    3.332854   5.450852   4.088134  10.058210   7.337705
    28  C    1.435447   3.698094   2.373674   8.314769   5.567611
    29  H    2.078505   4.011139   2.644703   8.713386   6.004512
    30  H    1.997244   4.337460   3.216869   8.575069   5.854115
    31  O    3.308971   4.813984   3.373007   9.721466   7.073146
    32  H    3.036960   4.132855   2.742765   9.065402   6.481009
                   21         22         23         24         25
    21  H    0.000000
    22  C    2.162270   0.000000
    23  H    2.507658   1.089391   0.000000
    24  O    5.757282   3.633423   3.943710   0.000000
    25  C    7.129882   5.089585   4.753441   2.980559   0.000000
    26  H    6.706292   4.772205   4.460261   3.162001   1.109012
    27  H    7.934968   5.972217   5.495663   4.050707   1.100436
    28  C    6.193132   4.176674   3.731354   2.696261   1.528003
    29  H    6.689307   4.644309   4.317063   2.668370   2.155675
    30  H    6.309885   4.496301   3.805370   3.738845   2.174370
    31  O    7.888851   5.758734   5.641893   2.769071   1.392108
    32  H    7.370741   5.222443   5.270359   1.920252   1.916380
                   26         27         28         29         30
    26  H    0.000000
    27  H    1.771511   0.000000
    28  C    2.145024   2.135726   0.000000
    29  H    3.022035   2.676647   1.100967   0.000000
    30  H    2.662512   2.310120   1.095868   1.792519   0.000000
    31  O    2.094514   2.008058   2.455916   2.531620   3.326308
    32  H    2.407812   2.805649   2.557262   2.529040   3.594068
                   31         32
    31  O    0.000000
    32  H    0.967888   0.000000
 Symmetry turned off by external request.
 Stoichiometry    C12H14O6
 Framework group  C1[X(C12H14O6)]
 Deg. of freedom    90
 Full point group                 C1      NOp   1
 Rotational constants (GHZ):           1.7737556           0.1286974           0.1223085
 Standard basis: def2TZVP (5D, 7F)
   642 basis functions,  1030 primitive gaussians,   732 cartesian basis functions
    67 alpha electrons       67 beta electrons
       nuclear repulsion energy      1271.9111170261 Hartrees.
 NAtoms=   32 NActive=   32 NUniq=   32 SFac= 1.00D+00 NAtFMM=   60 NAOKFM=F Big=F
 Integral buffers will be    131072 words long.
 Raffenetti 2 integral format.
 Two-electron integral symmetry is turned off.
 One-electron integrals computed using PRISM.
   1 Symmetry operations used in ECPInt.
 ECPInt:  NShTT=   32385 NPrTT=   99228 LenC2=   26085 LenP2D=   57351.
 LDataN:  DoStor=T MaxTD1= 6 Len=  172
 NBasis=   642 RedAO= T EigKep=  7.56D-06  NBF=   642
 NBsUse=   642 1.00D-06 EigRej= -1.00D+00 NBFU=   642
 Initial guess from the checkpoint file:  "/dev/shm/pet_mono_843_tzvp.chk"
 B after Tr=     0.000000    0.000000    0.000000
         Rot=    1.000000    0.000000    0.000000    0.000000 Ang=   0.00 deg.
 Requested convergence on RMS density matrix=1.00D-08 within  32 cycles.
 Requested convergence on MAX density matrix=1.00D-06.
 Requested convergence on             energy=1.00D-06.
 No special actions if energy rises.
 SCF Done:  E(RM062X) =  -917.070565180     A.U. after   12 cycles
            NFock= 12  Conv=0.39D-08     -V/T= 2.0047
 QCSCF skips out because SCF is already converged.

 **********************************************************************

            Population analysis using the SCF Density.

 **********************************************************************

 Alpha  occ. eigenvalues --  -19.69450 -19.69449 -19.64095 -19.64094 -19.61286
 Alpha  occ. eigenvalues --  -19.61278 -10.69994 -10.69992 -10.61151 -10.61149
 Alpha  occ. eigenvalues --  -10.59303 -10.59300 -10.58626 -10.58624 -10.57736
 Alpha  occ. eigenvalues --  -10.57656 -10.57443 -10.57362  -1.26527  -1.26522
 Alpha  occ. eigenvalues --   -1.16943  -1.16939  -1.14478  -1.14468  -0.99840
 Alpha  occ. eigenvalues --   -0.91556  -0.88258  -0.87103  -0.85930  -0.78887
 Alpha  occ. eigenvalues --   -0.76109  -0.72729  -0.72034  -0.66919  -0.65812
 Alpha  occ. eigenvalues --   -0.65053  -0.62970  -0.61262  -0.60868  -0.60203
 Alpha  occ. eigenvalues --   -0.59424  -0.55872  -0.55503  -0.54849  -0.54550
 Alpha  occ. eigenvalues --   -0.54102  -0.53208  -0.51874  -0.49847  -0.49493
 Alpha  occ. eigenvalues --   -0.49386  -0.47996  -0.47009  -0.46176  -0.45930
 Alpha  occ. eigenvalues --   -0.45159  -0.42992  -0.42581  -0.42542  -0.39358
 Alpha  occ. eigenvalues --   -0.39155  -0.38065  -0.37795  -0.34931  -0.34787
 Alpha  occ. eigenvalues --   -0.34041  -0.33849
 Alpha virt. eigenvalues --   -0.06141  -0.00603   0.03071   0.06602   0.07137
 Alpha virt. eigenvalues --    0.08757   0.09606   0.09620   0.09869   0.10428
 Alpha virt. eigenvalues --    0.10748   0.11173   0.11788   0.12798   0.12969
 Alpha virt. eigenvalues --    0.13480   0.14227   0.14280   0.14995   0.14998
 Alpha virt. eigenvalues --    0.15918   0.16557   0.17339   0.18506   0.20558
 Alpha virt. eigenvalues --    0.20704   0.21331   0.21911   0.22492   0.23511
 Alpha virt. eigenvalues --    0.24116   0.24295   0.24986   0.25845   0.26047
 Alpha virt. eigenvalues --    0.26345   0.26809   0.27117   0.28041   0.28940
 Alpha virt. eigenvalues --    0.30911   0.30945   0.31837   0.32083   0.32763
 Alpha virt. eigenvalues --    0.33180   0.34644   0.35301   0.35529   0.36423
 Alpha virt. eigenvalues --    0.36473   0.36920   0.38094   0.38403   0.38683
 Alpha virt. eigenvalues --    0.38887   0.39465   0.39581   0.40235   0.40408
 Alpha virt. eigenvalues --    0.41740   0.42007   0.42199   0.42255   0.42923
 Alpha virt. eigenvalues --    0.43789   0.43919   0.43947   0.44594   0.45546
 Alpha virt. eigenvalues --    0.45753   0.46590   0.47594   0.48363   0.48710
 Alpha virt. eigenvalues --    0.49070   0.49775   0.50300   0.50649   0.50807
 Alpha virt. eigenvalues --    0.51822   0.52188   0.53660   0.53680   0.54503
 Alpha virt. eigenvalues --    0.54547   0.55134   0.55706   0.56067   0.57035
 Alpha virt. eigenvalues --    0.59142   0.59449   0.59989   0.62790   0.63120
 Alpha virt. eigenvalues --    0.63572   0.65224   0.65749   0.66170   0.66182
 Alpha virt. eigenvalues --    0.67436   0.67737   0.68427   0.68731   0.69519
 Alpha virt. eigenvalues --    0.71058   0.71903   0.72134   0.72186   0.72768
 Alpha virt. eigenvalues --    0.73755   0.75642   0.76053   0.76363   0.76501
 Alpha virt. eigenvalues --    0.77632   0.77836   0.79450   0.79777   0.81121
 Alpha virt. eigenvalues --    0.82584   0.84105   0.85940   0.86391   0.87275
 Alpha virt. eigenvalues --    0.87626   0.88542   0.88855   0.89003   0.90078
 Alpha virt. eigenvalues --    0.90827   0.93324   0.93590   0.93669   0.94993
 Alpha virt. eigenvalues --    0.95501   0.96538   0.97298   0.98418   0.99212
 Alpha virt. eigenvalues --    1.00583   1.01856   1.03222   1.03250   1.04234
 Alpha virt. eigenvalues --    1.05104   1.06807   1.08665   1.09028   1.10134
 Alpha virt. eigenvalues --    1.10635   1.11728   1.12137   1.12747   1.13429
 Alpha virt. eigenvalues --    1.14508   1.15742   1.16436   1.17202   1.18791
 Alpha virt. eigenvalues --    1.21280   1.21539   1.23600   1.24399   1.25337
 Alpha virt. eigenvalues --    1.26341   1.27984   1.29496   1.29967   1.30741
 Alpha virt. eigenvalues --    1.31695   1.32392   1.34928   1.35598   1.39746
 Alpha virt. eigenvalues --    1.41051   1.41185   1.41749   1.43155   1.43890
 Alpha virt. eigenvalues --    1.45022   1.47999   1.48680   1.49317   1.50071
 Alpha virt. eigenvalues --    1.50645   1.51474   1.52926   1.53428   1.54313
 Alpha virt. eigenvalues --    1.54674   1.55572   1.56137   1.56763   1.58815
 Alpha virt. eigenvalues --    1.59109   1.60131   1.60194   1.61547   1.61978
 Alpha virt. eigenvalues --    1.62441   1.64070   1.64230   1.64619   1.67386
 Alpha virt. eigenvalues --    1.68432   1.69026   1.69081   1.71233   1.72791
 Alpha virt. eigenvalues --    1.73468   1.73693   1.74167   1.74369   1.75615
 Alpha virt. eigenvalues --    1.76378   1.77716   1.79890   1.82127   1.82174
 Alpha virt. eigenvalues --    1.83711   1.83841   1.84312   1.84469   1.86820
 Alpha virt. eigenvalues --    1.86850   1.88296   1.89205   1.90394   1.91230
 Alpha virt. eigenvalues --    1.92885   1.92960   1.94972   1.95147   1.98490
 Alpha virt. eigenvalues --    1.99565   1.99991   2.00758   2.02038   2.02577
 Alpha virt. eigenvalues --    2.03197   2.03570   2.04532   2.05916   2.06113
 Alpha virt. eigenvalues --    2.07795   2.08672   2.11038   2.12618   2.13819
 Alpha virt. eigenvalues --    2.14510   2.15711   2.16376   2.16897   2.17795
 Alpha virt. eigenvalues --    2.17854   2.20719   2.23216   2.23751   2.25084
 Alpha virt. eigenvalues --    2.27205   2.27324   2.29227   2.29624   2.30923
 Alpha virt. eigenvalues --    2.30982   2.31590   2.32680   2.32954   2.33665
 Alpha virt. eigenvalues --    2.34011   2.34470   2.35767   2.36240   2.37036
 Alpha virt. eigenvalues --    2.37698   2.38714   2.40413   2.41690   2.45147
 Alpha virt. eigenvalues --    2.47005   2.47619   2.48640   2.48651   2.49434
 Alpha virt. eigenvalues --    2.52092   2.54431   2.54601   2.54896   2.56111
 Alpha virt. eigenvalues --    2.56460   2.58420   2.58517   2.59051   2.59768
 Alpha virt. eigenvalues --    2.60232   2.60911   2.62758   2.65117   2.65183
 Alpha virt. eigenvalues --    2.66352   2.67913   2.68778   2.69225   2.70095
 Alpha virt. eigenvalues --    2.70510   2.71850   2.71940   2.72390   2.72405
 Alpha virt. eigenvalues --    2.73514   2.75504   2.77013   2.77355   2.78909
 Alpha virt. eigenvalues --    2.82338   2.82438   2.82739   2.83393   2.83840
 Alpha virt. eigenvalues --    2.84327   2.86279   2.86320   2.87737   2.88915
 Alpha virt. eigenvalues --    2.89786   2.90576   2.92373   2.93588   2.93824
 Alpha virt. eigenvalues --    2.94936   2.95070   2.95850   2.96415   2.97174
 Alpha virt. eigenvalues --    2.97368   2.98437   2.98913   3.00075   3.01268
 Alpha virt. eigenvalues --    3.03307   3.03506   3.04909   3.05507   3.06941
 Alpha virt. eigenvalues --    3.08076   3.09256   3.09642   3.11400   3.11410
 Alpha virt. eigenvalues --    3.11819   3.12815   3.12958   3.13402   3.14626
 Alpha virt. eigenvalues --    3.15259   3.16570   3.18818   3.19170   3.19829
 Alpha virt. eigenvalues --    3.20987   3.21343   3.21916   3.22157   3.23047
 Alpha virt. eigenvalues --    3.23167   3.25317   3.25731   3.25770   3.27925
 Alpha virt. eigenvalues --    3.27995   3.29198   3.29634   3.30584   3.30901
 Alpha virt. eigenvalues --    3.31339   3.33129   3.33334   3.33483   3.34242
 Alpha virt. eigenvalues --    3.35692   3.36221   3.36465   3.37229   3.38542
 Alpha virt. eigenvalues --    3.38617   3.39169   3.40458   3.41176   3.41757
 Alpha virt. eigenvalues --    3.43544   3.44719   3.45514   3.46263   3.46786
 Alpha virt. eigenvalues --    3.47813   3.49124   3.49834   3.50066   3.50831
 Alpha virt. eigenvalues --    3.52631   3.54108   3.54268   3.55465   3.55711
 Alpha virt. eigenvalues --    3.58488   3.59558   3.60019   3.61359   3.62127
 Alpha virt. eigenvalues --    3.63157   3.65408   3.68392   3.69898   3.74074
 Alpha virt. eigenvalues --    3.75035   3.76112   3.77153   3.79126   3.80809
 Alpha virt. eigenvalues --    3.81599   3.85052   3.86106   3.87204   3.87836
 Alpha virt. eigenvalues --    3.89739   3.89870   3.90613   3.93487   3.93784
 Alpha virt. eigenvalues --    3.95965   3.97274   3.99301   4.03242   4.04372
 Alpha virt. eigenvalues --    4.05166   4.05431   4.11536   4.12576   4.13220
 Alpha virt. eigenvalues --    4.14708   4.16951   4.17806   4.17974   4.18471
 Alpha virt. eigenvalues --    4.22300   4.23169   4.23289   4.25126   4.27459
 Alpha virt. eigenvalues --    4.29477   4.31141   4.31206   4.38353   4.38574
 Alpha virt. eigenvalues --    4.41845   4.43435   4.43666   4.46839   4.47383
 Alpha virt. eigenvalues --    4.49679   4.55259   4.56961   4.58686   4.60932
 Alpha virt. eigenvalues --    4.62076   4.62191   4.63925   4.66418   4.71107
 Alpha virt. eigenvalues --    4.74975   4.76256   4.78303   4.86635   4.87755
 Alpha virt. eigenvalues --    4.89417   4.89924   5.01418   5.03520   5.12143
 Alpha virt. eigenvalues --    5.16590   5.16872   5.18985   5.22218   5.26015
 Alpha virt. eigenvalues --    5.26664   5.29313   5.29754   5.30044   5.30158
 Alpha virt. eigenvalues --    5.36185   5.39223   5.39305   5.42856   5.45072
 Alpha virt. eigenvalues --    5.47737   5.49237   5.49291   5.49475   5.49810
 Alpha virt. eigenvalues --    5.57848   5.64803   5.66975   5.67288   5.68929
 Alpha virt. eigenvalues --    5.76099   5.76439   5.81015   5.81178   5.83782
 Alpha virt. eigenvalues --    5.86828   5.95401   5.95580   5.99335   5.99703
 Alpha virt. eigenvalues --    6.11231   6.14295   6.15502   6.15879   6.18387
 Alpha virt. eigenvalues --    6.25670   6.27061   6.30565   6.37522   6.37551
 Alpha virt. eigenvalues --    6.38666   6.40917   6.46238   6.47101   6.54082
 Alpha virt. eigenvalues --    6.56998   6.65089   6.65357   6.67970   6.69489
 Alpha virt. eigenvalues --    6.71556   6.74052   6.75462   6.75767   6.78498
 Alpha virt. eigenvalues --    6.78603   6.88666   6.89558   6.90454   6.93650
 Alpha virt. eigenvalues --    6.98824   6.99032   7.04062   7.05561   7.12361
 Alpha virt. eigenvalues --    7.14585   7.18013   7.18307   7.30237   7.34157
 Alpha virt. eigenvalues --    7.40143   7.42953  22.32132  22.49959  22.50931
 Alpha virt. eigenvalues --   22.58467  22.58704  22.76572  22.78805  22.82347
 Alpha virt. eigenvalues --   22.96094  23.34995  23.51951  23.64206  43.96052
 Alpha virt. eigenvalues --   43.96106  44.06890  44.09961  44.35606  44.43061
          Condensed to atoms (all electrons):
               1          2          3          4          5          6
     1  O    8.040516   0.317711  -0.000000  -0.000000   0.000135   0.000012
     2  H    0.317711   0.361007   0.000011  -0.000000   0.000219   0.000046
     3  C   -0.000000   0.000011   4.995408   0.400882   0.488973  -0.032290
     4  H   -0.000000  -0.000000   0.400882   0.453942  -0.032235  -0.002087
     5  C    0.000135   0.000219   0.488973  -0.032235   4.995251   0.400917
     6  H    0.000012   0.000046  -0.032290  -0.002087   0.400917   0.453937
     7  O   -0.027616   0.014481   0.001181  -0.000049   0.024742   0.012734
     8  C   -0.033905  -0.002050   0.000013   0.000000  -0.002109  -0.000136
     9  H    0.007748  -0.000263  -0.000005   0.000000   0.000128   0.000001
    10  H    0.000085  -0.000287  -0.000006  -0.000000  -0.000200  -0.000005
    11  C    0.248894  -0.044051   0.000002   0.000000   0.000112   0.000022
    12  H   -0.037738   0.008662   0.000000  -0.000000   0.000005  -0.000000
    13  H   -0.047087  -0.004870  -0.000011  -0.000000  -0.000017   0.000002
    14  C    0.000933   0.000883  -0.045250   0.003813   0.460073  -0.016418
    15  C   -0.001400  -0.001643   0.000503  -0.000141  -0.048604  -0.012175
    16  O   -0.000000  -0.000000   0.004276   0.000532  -0.000141   0.000003
    17  C    0.000000   0.000001   0.459940  -0.016446  -0.045199   0.003815
    18  C    0.000000   0.000000  -0.048543  -0.012166   0.000472  -0.000143
    19  O    0.003649   0.000969  -0.000143   0.000003   0.004275   0.000531
    20  C   -0.000089  -0.000143  -0.036399  -0.000776  -0.060707   0.006559
    21  H   -0.000001  -0.000007  -0.000724   0.000052   0.005123  -0.000183
    22  C   -0.000002  -0.000000  -0.060727   0.006562  -0.036450  -0.000776
    23  H    0.000000  -0.000000   0.005117  -0.000183  -0.000722   0.000052
    24  O   -0.000000  -0.000000   0.024755   0.012742   0.001198  -0.000049
    25  C   -0.000000   0.000000   0.000115   0.000022   0.000002   0.000000
    26  H   -0.000000  -0.000000  -0.000017   0.000002  -0.000011  -0.000000
    27  H    0.000000   0.000000   0.000005  -0.000000   0.000000  -0.000000
    28  C    0.000000  -0.000000  -0.002110  -0.000136   0.000011   0.000000
    29  H   -0.000000   0.000000  -0.000201  -0.000005  -0.000006  -0.000000
    30  H    0.000000  -0.000000   0.000128   0.000001  -0.000005   0.000000
    31  O   -0.000000   0.000000   0.000134   0.000012  -0.000000  -0.000000
    32  H    0.000000   0.000000   0.000218   0.000046   0.000011  -0.000000
               7          8          9         10         11         12
     1  O   -0.027616  -0.033905   0.007748   0.000085   0.248894  -0.037738
     2  H    0.014481  -0.002050  -0.000263  -0.000287  -0.044051   0.008662
     3  C    0.001181   0.000013  -0.000005  -0.000006   0.000002   0.000000
     4  H   -0.000049   0.000000   0.000000  -0.000000   0.000000  -0.000000
     5  C    0.024742  -0.002109   0.000128  -0.000200   0.000112   0.000005
     6  H    0.012734  -0.000136   0.000001  -0.000005   0.000022  -0.000000
     7  O    8.012281   0.024823   0.000845  -0.000048   0.014466   0.000337
     8  C    0.024823   5.077325   0.379780   0.439574   0.253096  -0.037545
     9  H    0.000845   0.379780   0.557181  -0.019539  -0.038476  -0.006646
    10  H   -0.000048   0.439574  -0.019539   0.505172  -0.063936  -0.000466
    11  C    0.014466   0.253096  -0.038476  -0.063936   4.939150   0.399850
    12  H    0.000337  -0.037545  -0.006646  -0.000466   0.399850   0.575368
    13  H   -0.003717  -0.062276   0.007946   0.009586   0.410092  -0.039178
    14  C   -0.133422   0.007342   0.001524  -0.001355  -0.003072   0.000426
    15  C    0.560922  -0.055267   0.002705  -0.008850   0.006496   0.001751
    16  O    0.000000   0.000000  -0.000000  -0.000000   0.000000  -0.000000
    17  C   -0.000036   0.000010   0.000002   0.000001  -0.000002   0.000000
    18  C   -0.000014  -0.000001   0.000000  -0.000000  -0.000000   0.000000
    19  O   -0.086263   0.190194  -0.035486  -0.032951  -0.042206   0.003807
    20  C    0.004071  -0.000146  -0.000900   0.000727   0.000369  -0.000048
    21  H    0.000295   0.000029  -0.000267   0.000128   0.000029  -0.000000
    22  C    0.000303  -0.000236  -0.000100   0.000015   0.000048  -0.000002
    23  H    0.000005  -0.000004   0.000000  -0.000000   0.000000   0.000000
    24  O    0.000000  -0.000000  -0.000000   0.000000  -0.000000  -0.000000
    25  C   -0.000000   0.000000  -0.000000   0.000000   0.000000   0.000000
    26  H    0.000000  -0.000000  -0.000000   0.000000  -0.000000  -0.000000
    27  H   -0.000000  -0.000000   0.000000   0.000000   0.000000   0.000000
    28  C   -0.000000  -0.000000  -0.000000  -0.000000   0.000000  -0.000000
    29  H    0.000000  -0.000000  -0.000000   0.000000   0.000000   0.000000
    30  H   -0.000000  -0.000000   0.000000  -0.000000  -0.000000   0.000000
    31  O   -0.000000   0.000000   0.000000  -0.000000  -0.000000   0.000000
    32  H   -0.000000  -0.000000  -0.000000   0.000000   0.000000   0.000000
              13         14         15         16         17         18
     1  O   -0.047087   0.000933  -0.001400  -0.000000   0.000000   0.000000
     2  H   -0.004870   0.000883  -0.001643  -0.000000   0.000001   0.000000
     3  C   -0.000011  -0.045250   0.000503   0.004276   0.459940  -0.048543
     4  H   -0.000000   0.003813  -0.000141   0.000532  -0.016446  -0.012166
     5  C   -0.000017   0.460073  -0.048604  -0.000141  -0.045199   0.000472
     6  H    0.000002  -0.016418  -0.012175   0.000003   0.003815  -0.000143
     7  O   -0.003717  -0.133422   0.560922   0.000000  -0.000036  -0.000014
     8  C   -0.062276   0.007342  -0.055267   0.000000   0.000010  -0.000001
     9  H    0.007946   0.001524   0.002705  -0.000000   0.000002   0.000000
    10  H    0.009586  -0.001355  -0.008850  -0.000000   0.000001  -0.000000
    11  C    0.410092  -0.003072   0.006496   0.000000  -0.000002  -0.000000
    12  H   -0.039178   0.000426   0.001751  -0.000000   0.000000   0.000000
    13  H    0.604826  -0.003513  -0.003966   0.000000   0.000002  -0.000000
    14  C   -0.003513   5.191847   0.307030   0.000214  -0.041762  -0.002096
    15  C   -0.003966   0.307030   4.506225  -0.000008  -0.002090  -0.001162
    16  O    0.000000   0.000214  -0.000008   7.967862  -0.150498   0.388548
    17  C    0.000002  -0.041762  -0.002090  -0.150498   5.193559   0.305697
    18  C   -0.000000  -0.002096  -0.001162   0.388548   0.305697   4.507496
    19  O    0.005202  -0.150362   0.388609   0.000000   0.000215  -0.000008
    20  C    0.000564   0.454242  -0.058292   0.000970  -0.045810   0.005857
    21  H    0.000087  -0.019216  -0.011548  -0.000067   0.004580  -0.000127
    22  C   -0.000004  -0.045769   0.005852   0.031279   0.454177  -0.058174
    23  H   -0.000000   0.004579  -0.000127   0.014391  -0.019194  -0.011559
    24  O    0.000000  -0.000037  -0.000014  -0.086269  -0.133524   0.561269
    25  C   -0.000000  -0.000002  -0.000000  -0.042244  -0.003054   0.006511
    26  H    0.000000   0.000002  -0.000000   0.005219  -0.003545  -0.004004
    27  H   -0.000000   0.000000   0.000000   0.003810   0.000428   0.001759
    28  C   -0.000000   0.000010  -0.000001   0.190149   0.007285  -0.055292
    29  H    0.000000   0.000001  -0.000000  -0.032949  -0.001369  -0.008869
    30  H   -0.000000   0.000002   0.000000  -0.035487   0.001510   0.002701
    31  O   -0.000000   0.000000   0.000000   0.003644   0.000944  -0.001404
    32  H   -0.000000   0.000001   0.000000   0.000959   0.000890  -0.001627
              19         20         21         22         23         24
     1  O    0.003649  -0.000089  -0.000001  -0.000002   0.000000  -0.000000
     2  H    0.000969  -0.000143  -0.000007  -0.000000  -0.000000  -0.000000
     3  C   -0.000143  -0.036399  -0.000724  -0.060727   0.005117   0.024755
     4  H    0.000003  -0.000776   0.000052   0.006562  -0.000183   0.012742
     5  C    0.004275  -0.060707   0.005123  -0.036450  -0.000722   0.001198
     6  H    0.000531   0.006559  -0.000183  -0.000776   0.000052  -0.000049
     7  O   -0.086263   0.004071   0.000295   0.000303   0.000005   0.000000
     8  C    0.190194  -0.000146   0.000029  -0.000236  -0.000004  -0.000000
     9  H   -0.035486  -0.000900  -0.000267  -0.000100   0.000000  -0.000000
    10  H   -0.032951   0.000727   0.000128   0.000015  -0.000000   0.000000
    11  C   -0.042206   0.000369   0.000029   0.000048   0.000000  -0.000000
    12  H    0.003807  -0.000048  -0.000000  -0.000002   0.000000  -0.000000
    13  H    0.005202   0.000564   0.000087  -0.000004  -0.000000   0.000000
    14  C   -0.150362   0.454242  -0.019216  -0.045769   0.004579  -0.000037
    15  C    0.388609  -0.058292  -0.011548   0.005852  -0.000127  -0.000014
    16  O    0.000000   0.000970  -0.000067   0.031279   0.014391  -0.086269
    17  C    0.000215  -0.045810   0.004580   0.454177  -0.019194  -0.133524
    18  C   -0.000008   0.005857  -0.000127  -0.058174  -0.011559   0.561269
    19  O    7.967655   0.031271   0.014394   0.000969  -0.000067   0.000000
    20  C    0.031271   5.018634   0.402254   0.476053  -0.033704   0.000303
    21  H    0.014394   0.402254   0.469802  -0.033684  -0.003119   0.000005
    22  C    0.000969   0.476053  -0.033684   5.018540   0.402260   0.004077
    23  H   -0.000067  -0.033704  -0.003119   0.402260   0.469798   0.000295
    24  O    0.000000   0.000303   0.000005   0.004077   0.000295   8.011660
    25  C    0.000000   0.000048   0.000000   0.000368   0.000028   0.014346
    26  H    0.000000  -0.000004  -0.000000   0.000565   0.000087  -0.003691
    27  H   -0.000000  -0.000002   0.000000  -0.000048  -0.000000   0.000333
    28  C    0.000000  -0.000236  -0.000004  -0.000145   0.000028   0.024812
    29  H   -0.000000   0.000015  -0.000000   0.000728   0.000128  -0.000036
    30  H   -0.000000  -0.000100   0.000000  -0.000900  -0.000268   0.000848
    31  O   -0.000000  -0.000002   0.000000  -0.000089  -0.000001  -0.027450
    32  H   -0.000000  -0.000000  -0.000000  -0.000143  -0.000007   0.014481
              25         26         27         28         29         30
     1  O   -0.000000  -0.000000   0.000000   0.000000  -0.000000   0.000000
     2  H    0.000000  -0.000000   0.000000  -0.000000   0.000000  -0.000000
     3  C    0.000115  -0.000017   0.000005  -0.002110  -0.000201   0.000128
     4  H    0.000022   0.000002  -0.000000  -0.000136  -0.000005   0.000001
     5  C    0.000002  -0.000011   0.000000   0.000011  -0.000006  -0.000005
     6  H    0.000000  -0.000000  -0.000000   0.000000  -0.000000   0.000000
     7  O   -0.000000   0.000000  -0.000000  -0.000000   0.000000  -0.000000
     8  C    0.000000  -0.000000  -0.000000  -0.000000  -0.000000  -0.000000
     9  H   -0.000000  -0.000000   0.000000  -0.000000  -0.000000   0.000000
    10  H    0.000000   0.000000   0.000000  -0.000000   0.000000  -0.000000
    11  C    0.000000  -0.000000   0.000000   0.000000   0.000000  -0.000000
    12  H    0.000000  -0.000000   0.000000  -0.000000   0.000000   0.000000
    13  H   -0.000000   0.000000  -0.000000  -0.000000   0.000000  -0.000000
    14  C   -0.000002   0.000002   0.000000   0.000010   0.000001   0.000002
    15  C   -0.000000  -0.000000   0.000000  -0.000001  -0.000000   0.000000
    16  O   -0.042244   0.005219   0.003810   0.190149  -0.032949  -0.035487
    17  C   -0.003054  -0.003545   0.000428   0.007285  -0.001369   0.001510
    18  C    0.006511  -0.004004   0.001759  -0.055292  -0.008869   0.002701
    19  O    0.000000   0.000000  -0.000000   0.000000  -0.000000  -0.000000
    20  C    0.000048  -0.000004  -0.000002  -0.000236   0.000015  -0.000100
    21  H    0.000000  -0.000000   0.000000  -0.000004  -0.000000   0.000000
    22  C    0.000368   0.000565  -0.000048  -0.000145   0.000728  -0.000900
    23  H    0.000028   0.000087  -0.000000   0.000028   0.000128  -0.000268
    24  O    0.014346  -0.003691   0.000333   0.024812  -0.000036   0.000848
    25  C    4.939119   0.410003   0.399879   0.253275  -0.063938  -0.038542
    26  H    0.410003   0.604845  -0.039205  -0.062149   0.009576   0.007960
    27  H    0.399879  -0.039205   0.575473  -0.037577  -0.000458  -0.006660
    28  C    0.253275  -0.062149  -0.037577   5.077295   0.439638   0.379800
    29  H   -0.063938   0.009576  -0.000458   0.439638   0.505104  -0.019534
    30  H   -0.038542   0.007960  -0.006660   0.379800  -0.019534   0.557254
    31  O    0.248846  -0.047105  -0.037760  -0.033845   0.000052   0.007753
    32  H   -0.044026  -0.004832   0.008666  -0.002071  -0.000286  -0.000257
              31         32
     1  O   -0.000000   0.000000
     2  H    0.000000   0.000000
     3  C    0.000134   0.000218
     4  H    0.000012   0.000046
     5  C   -0.000000   0.000011
     6  H   -0.000000  -0.000000
     7  O   -0.000000  -0.000000
     8  C    0.000000  -0.000000
     9  H    0.000000  -0.000000
    10  H   -0.000000   0.000000
    11  C   -0.000000   0.000000
    12  H    0.000000   0.000000
    13  H   -0.000000  -0.000000
    14  C    0.000000   0.000001
    15  C    0.000000   0.000000
    16  O    0.003644   0.000959
    17  C    0.000944   0.000890
    18  C   -0.001404  -0.001627
    19  O   -0.000000  -0.000000
    20  C   -0.000002  -0.000000
    21  H    0.000000  -0.000000
    22  C   -0.000089  -0.000143
    23  H   -0.000001  -0.000007
    24  O   -0.027450   0.014481
    25  C    0.248846  -0.044026
    26  H   -0.047105  -0.004832
    27  H   -0.037760   0.008666
    28  C   -0.033845  -0.002071
    29  H    0.000052  -0.000286
    30  H    0.007753  -0.000257
    31  O    8.040238   0.317666
    32  H    0.317666   0.361133
 Mulliken charges:
               1
     1  O   -0.471845
     2  H    0.349326
     3  C   -0.155234
     4  H    0.185615
     5  C   -0.155241
     6  H    0.185629
     7  O   -0.420319
     8  C   -0.178512
     9  H    0.143820
    10  H    0.172357
    11  C   -0.080885
    12  H    0.131415
    13  H    0.126332
    14  C    0.029353
    15  C    0.425194
    16  O   -0.264194
    17  C    0.029471
    18  C    0.424879
    19  O   -0.264258
    20  C   -0.164580
    21  H    0.172172
    22  C   -0.164549
    23  H    0.172189
    24  O   -0.420053
    25  C   -0.080757
    26  H    0.126306
    27  H    0.131357
    28  C   -0.178736
    29  H    0.172410
    30  H    0.143794
    31  O   -0.471635
    32  H    0.349179
 Sum of Mulliken charges =  -0.00000
 Mulliken charges with hydrogens summed into heavy atoms:
               1
     1  O   -0.122519
     3  C    0.030381
     5  C    0.030388
     7  O   -0.420319
     8  C    0.137665
    11  C    0.176862
    14  C    0.029353
    15  C    0.425194
    16  O   -0.264194
    17  C    0.029471
    18  C    0.424879
    19  O   -0.264258
    20  C    0.007592
    22  C    0.007640
    24  O   -0.420053
    25  C    0.176905
    28  C    0.137468
    31  O   -0.122456
 Electronic spatial extent (au):  <R**2>=          21646.5893
 Charge=             -0.0000 electrons
 Dipole moment (field-independent basis, Debye):
    X=              0.6657    Y=              4.5356    Z=              0.8087  Tot=              4.6549
 Quadrupole moment (field-independent basis, Debye-Ang):
   XX=           -129.1700   YY=            -68.3327   ZZ=           -103.7910
   XY=              3.4911   XZ=             14.3352   YZ=             20.4427
 Traceless Quadrupole moment (field-independent basis, Debye-Ang):
   XX=            -28.7388   YY=             32.0986   ZZ=             -3.3598
   XY=              3.4911   XZ=             14.3352   YZ=             20.4427
 Octapole moment (field-independent basis, Debye-Ang**2):
  XXX=            129.9973  YYY=           -908.0046  ZZZ=          -1214.8630  XYY=             32.4026
  XXY=           -352.0668  XXZ=           -509.3445  XZZ=            104.6376  YZZ=           -246.6260
  YYZ=           -252.3907  XYZ=            -22.7574
 Hexadecapole moment (field-independent basis, Debye-Ang**3):
 XXXX=          -7622.1312 YYYY=          -7577.5051 ZZZZ=         -12676.7997 XXXY=            480.8268
 XXXZ=           3343.7146 YYYX=            287.0367 YYYZ=          -3535.7251 ZZZX=           2967.3628
 ZZZY=          -3523.5993 XXYY=          -2044.9629 XXZZ=          -3998.3614 YYZZ=          -2594.4086
 XXYZ=          -1426.6412 YYXZ=            426.1007 ZZXY=           -202.5451
 N-N= 1.271911117026D+03 E-N=-4.688897056190D+03  KE= 9.127809457017D+02
   1 Symmetry operations used in ECPInt.
 ECPInt:  NShTT=   32385 NPrTT=   99228 LenC2=   26085 LenP2D=   57351.
 LDataN:  DoStor=T MaxTD1= 7 Len=  274
 Calling FoFJK, ICntrl=      2127 FMM=F ISym2X=0 I1Cent= 0 IOpClX= 0 NMat=1 NMatS=1 NMatT=0.
 -------------------------------------------------------------------
 Center     Atomic                   Forces (Hartrees/Bohr)
 Number     Number              X              Y              Z
 -------------------------------------------------------------------
      1        8          -0.000474073   -0.004637527   -0.000580218
      2        1           0.001328732    0.000187358   -0.001015215
      3        6           0.000152348    0.000671879    0.000009430
      4        1           0.003377846    0.004956044   -0.001407937
      5        6           0.000051278    0.000685384    0.000228040
      6        1          -0.001929545    0.004913638    0.003158406
      7        8          -0.001414894    0.000775575    0.000895995
      8        6           0.002006787    0.001757116   -0.008164651
      9        1          -0.001038724   -0.005375086    0.000394617
     10        1           0.001217618    0.001685439    0.005317717
     11        6           0.004046162    0.010830553    0.006928239
     12        1          -0.004328008   -0.003505274    0.001251842
     13        1          -0.000591968   -0.001592840   -0.006077395
     14        6          -0.003215458   -0.000130504    0.002719378
     15        6          -0.000598375   -0.001259388    0.000451377
     16        8           0.002344595    0.001311892   -0.001672385
     17        6           0.003192306   -0.000056492   -0.002758824
     18        6           0.000266039   -0.001179617   -0.000874537
     19        8          -0.001962399    0.001279918    0.002146076
     20        6           0.000065657   -0.000759517   -0.000241904
     21        1          -0.003421777   -0.004921802    0.001453922
     22        6          -0.000293413   -0.000781933   -0.000030878
     23        1           0.001982439   -0.004877419   -0.003192157
     24        8           0.001633366    0.000601505   -0.000664765
     25        6          -0.000475919    0.013203942   -0.002672103
     26        1          -0.000181265   -0.003652135    0.005139420
     27        1           0.003228988   -0.003937570   -0.002570849
     28        6          -0.001853064   -0.000594248    0.008368277
     29        1          -0.000435592    0.003655394   -0.004379086
     30        1          -0.000483805   -0.004991115   -0.002241141
     31        8          -0.000860245   -0.004503933   -0.001026068
     32        1          -0.001335639    0.000240763    0.001107376
 -------------------------------------------------------------------
 Cartesian Forces:  Max     0.013203942 RMS     0.003310944

 GradGradGradGradGradGradGradGradGradGradGradGradGradGradGradGradGradGrad
 Berny optimization.
 FormGI is forming the generalized inverse of G from B-inverse, IUseBI=4.
 Internal  Forces:  Max     0.006875638 RMS     0.002326645
 Search for a local minimum.
 Step number   1 out of a maximum of  160
 All quantities printed in internal units (Hartrees-Bohrs-Radians)
 Mixed Optimization -- RFO/linear search
 Second derivative matrix not updated -- first step.
 ITU=  0
     Eigenvalues ---    0.00395   0.00396   0.00836   0.00836   0.01222
     Eigenvalues ---    0.01223   0.01450   0.01450   0.01691   0.01767
     Eigenvalues ---    0.01796   0.01796   0.02111   0.02135   0.02146
     Eigenvalues ---    0.02164   0.02168   0.02177   0.02189   0.02660
     Eigenvalues ---    0.02660   0.04642   0.04644   0.04673   0.04674
     Eigenvalues ---    0.05682   0.05682   0.06114   0.06114   0.11803
     Eigenvalues ---    0.11803   0.11927   0.11927   0.14076   0.14077
     Eigenvalues ---    0.14146   0.14146   0.16000   0.16000   0.16000
     Eigenvalues ---    0.16000   0.16000   0.16000   0.22000   0.22064
     Eigenvalues ---    0.22064   0.22127   0.22127   0.22983   0.24000
     Eigenvalues ---    0.25000   0.25000   0.25000   0.25000   0.25000
     Eigenvalues ---    0.25000   0.25000   0.25000   0.29606   0.29609
     Eigenvalues ---    0.32705   0.32705   0.32943   0.32943   0.33575
     Eigenvalues ---    0.33575   0.33634   0.33634   0.34143   0.34143
     Eigenvalues ---    0.34766   0.34767   0.34883   0.34884   0.40205
     Eigenvalues ---    0.40217   0.41981   0.42392   0.45892   0.45901
     Eigenvalues ---    0.46431   0.46949   0.46954   0.47313   0.53793
     Eigenvalues ---    0.53811   0.60270   0.60276   1.00872   1.00875
 RFO step:  Lambda=-2.64964366D-03 EMin= 3.95178068D-03
 Linear search not attempted -- first point.
 Iteration  1 RMS(Cart)=  0.05277100 RMS(Int)=  0.00110902
 Iteration  2 RMS(Cart)=  0.00165318 RMS(Int)=  0.00002313
 Iteration  3 RMS(Cart)=  0.00000145 RMS(Int)=  0.00002311
 Iteration  4 RMS(Cart)=  0.00000000 RMS(Int)=  0.00002311
 Variable       Old X    -DE/DX   Delta X   Delta X   Delta X     New X
                                 (Linear)    (Quad)   (Total)
    R1        1.82920  -0.00145   0.00000  -0.00268  -0.00268   1.82652
    R2        2.63076   0.00471   0.00000   0.00997   0.00997   2.64073
    R3        2.06054  -0.00615   0.00000  -0.01756  -0.01756   2.04298
    R4        2.62510  -0.00688   0.00000  -0.01442  -0.01442   2.61068
    R5        2.64263  -0.00662   0.00000  -0.01434  -0.01434   2.62829
    R6        2.06056  -0.00614   0.00000  -0.01753  -0.01753   2.04303
    R7        2.64253  -0.00663   0.00000  -0.01436  -0.01436   2.62816
    R8        2.28290  -0.00146   0.00000  -0.00144  -0.00144   2.28146
    R9        2.07089  -0.00547   0.00000  -0.01591  -0.01591   2.05498
   R10        2.08054  -0.00564   0.00000  -0.01666  -0.01666   2.06388
   R11        2.88756  -0.00061   0.00000  -0.00204  -0.00204   2.88552
   R12        2.71276   0.00285   0.00000   0.00704   0.00704   2.71980
   R13        2.07952  -0.00564   0.00000  -0.01663  -0.01663   2.06289
   R14        2.09573  -0.00601   0.00000  -0.01822  -0.01822   2.07751
   R15        2.82451  -0.00239   0.00000  -0.00718  -0.00718   2.81733
   R16        2.64243  -0.00670   0.00000  -0.01450  -0.01450   2.62793
   R17        2.50723   0.00064   0.00000   0.00106   0.00106   2.50829
   R18        2.50727   0.00067   0.00000   0.00110   0.00110   2.50837
   R19        2.71260   0.00289   0.00000   0.00713   0.00713   2.71973
   R20        2.82452  -0.00237   0.00000  -0.00715  -0.00715   2.81737
   R21        2.64233  -0.00671   0.00000  -0.01452  -0.01452   2.62782
   R22        2.28292  -0.00146   0.00000  -0.00145  -0.00145   2.28147
   R23        2.05863  -0.00615   0.00000  -0.01749  -0.01749   2.04114
   R24        2.62888  -0.00668   0.00000  -0.01409  -0.01409   2.61478
   R25        2.05865  -0.00614   0.00000  -0.01746  -0.01746   2.04119
   R26        2.09573  -0.00600   0.00000  -0.01820  -0.01820   2.07752
   R27        2.07952  -0.00563   0.00000  -0.01662  -0.01662   2.06290
   R28        2.88751  -0.00059   0.00000  -0.00198  -0.00198   2.88553
   R29        2.63070   0.00470   0.00000   0.00996   0.00996   2.64066
   R30        2.08053  -0.00565   0.00000  -0.01669  -0.01669   2.06383
   R31        2.07089  -0.00548   0.00000  -0.01593  -0.01593   2.05496
   R32        1.82904  -0.00153   0.00000  -0.00282  -0.00282   1.82622
    A1        1.87121   0.00144   0.00000   0.00885   0.00885   1.88006
    A2        2.12123  -0.00040   0.00000  -0.00231  -0.00231   2.11892
    A3        2.07218   0.00029   0.00000   0.00193   0.00193   2.07411
    A4        2.08977   0.00010   0.00000   0.00038   0.00038   2.09016
    A5        2.12108  -0.00041   0.00000  -0.00236  -0.00236   2.11872
    A6        2.08977   0.00012   0.00000   0.00046   0.00046   2.09024
    A7        2.07233   0.00029   0.00000   0.00190   0.00190   2.07423
    A8        1.90876   0.00010   0.00000   0.00102   0.00105   1.90981
    A9        1.93498  -0.00088   0.00000  -0.00931  -0.00930   1.92568
   A10        1.80419  -0.00067   0.00000  -0.01081  -0.01083   1.79335
   A11        1.90347   0.00099   0.00000   0.01245   0.01242   1.91589
   A12        1.90853  -0.00071   0.00000   0.00101   0.00091   1.90944
   A13        2.00083   0.00104   0.00000   0.00439   0.00433   2.00515
   A14        1.99691   0.00141   0.00000   0.00498   0.00499   2.00190
   A15        1.86328  -0.00106   0.00000  -0.00994  -0.00995   1.85334
   A16        1.97675  -0.00159   0.00000  -0.01182  -0.01184   1.96491
   A17        1.87748   0.00001   0.00000   0.00201   0.00200   1.87949
   A18        1.88171   0.00078   0.00000   0.00843   0.00843   1.89014
   A19        1.86050   0.00043   0.00000   0.00691   0.00684   1.86733
   A20        2.05442   0.00002   0.00000   0.00009   0.00009   2.05451
   A21        2.10443  -0.00020   0.00000  -0.00081  -0.00081   2.10362
   A22        2.12434   0.00018   0.00000   0.00071   0.00071   2.12505
   A23        2.15070  -0.00093   0.00000  -0.00368  -0.00371   2.14700
   A24        2.16067   0.00147   0.00000   0.00582   0.00578   2.16645
   A25        1.97181  -0.00054   0.00000  -0.00212  -0.00215   1.96967
   A26        2.06700   0.00156   0.00000   0.00616   0.00616   2.07316
   A27        2.05452   0.00006   0.00000   0.00025   0.00025   2.05478
   A28        2.10442  -0.00020   0.00000  -0.00081  -0.00081   2.10361
   A29        2.12424   0.00014   0.00000   0.00056   0.00056   2.12480
   A30        1.97163  -0.00066   0.00000  -0.00260  -0.00263   1.96901
   A31        2.16070   0.00155   0.00000   0.00615   0.00613   2.16683
   A32        2.15085  -0.00089   0.00000  -0.00354  -0.00356   2.14728
   A33        2.06706   0.00126   0.00000   0.00497   0.00497   2.07204
   A34        2.08531   0.00046   0.00000   0.00288   0.00288   2.08819
   A35        2.08898   0.00008   0.00000   0.00034   0.00034   2.08932
   A36        2.10890  -0.00053   0.00000  -0.00322  -0.00322   2.10567
   A37        2.08900   0.00009   0.00000   0.00043   0.00043   2.08942
   A38        2.08542   0.00045   0.00000   0.00285   0.00285   2.08827
   A39        2.10877  -0.00055   0.00000  -0.00328  -0.00328   2.10549
   A40        1.86055   0.00044   0.00000   0.00689   0.00681   1.86737
   A41        1.88158   0.00077   0.00000   0.00858   0.00858   1.89017
   A42        1.97667  -0.00160   0.00000  -0.01160  -0.01163   1.96505
   A43        1.87757  -0.00001   0.00000   0.00174   0.00174   1.87931
   A44        1.86327  -0.00111   0.00000  -0.01042  -0.01043   1.85284
   A45        1.99699   0.00148   0.00000   0.00533   0.00534   2.00233
   A46        2.00059   0.00116   0.00000   0.00494   0.00487   2.00545
   A47        1.90861  -0.00074   0.00000   0.00127   0.00116   1.90977
   A48        1.80416  -0.00072   0.00000  -0.01137  -0.01139   1.79278
   A49        1.90386   0.00099   0.00000   0.01266   0.01262   1.91648
   A50        1.93476  -0.00092   0.00000  -0.00976  -0.00975   1.92501
   A51        1.90876   0.00011   0.00000   0.00095   0.00099   1.90975
   A52        1.87133   0.00145   0.00000   0.00892   0.00892   1.88025
    D1       -0.90761  -0.00006   0.00000   0.00719   0.00720  -0.90041
    D2       -2.98242  -0.00019   0.00000   0.00852   0.00856  -2.97386
    D3        1.25854   0.00084   0.00000   0.01297   0.01292   1.27147
    D4        0.00069   0.00000   0.00000   0.00012   0.00011   0.00081
    D5        3.14156  -0.00001   0.00000  -0.00034  -0.00034   3.14122
    D6        3.14154  -0.00000   0.00000  -0.00015  -0.00015   3.14139
    D7       -0.00078  -0.00001   0.00000  -0.00060  -0.00060  -0.00138
    D8        0.00019  -0.00000   0.00000  -0.00002  -0.00002   0.00017
    D9        3.14110   0.00001   0.00000   0.00024   0.00024   3.14134
   D10       -3.14068   0.00001   0.00000   0.00024   0.00024  -3.14044
   D11        0.00023   0.00001   0.00000   0.00049   0.00049   0.00073
   D12       -3.14086   0.00002   0.00000   0.00073   0.00073  -3.14013
   D13        0.00020   0.00002   0.00000   0.00062   0.00062   0.00083
   D14        0.00003   0.00001   0.00000   0.00028   0.00028   0.00031
   D15        3.14109   0.00000   0.00000   0.00018   0.00017   3.14127
   D16       -2.57527  -0.00005   0.00000   0.03492   0.03494  -2.54033
   D17       -0.50850  -0.00052   0.00000   0.02686   0.02686  -0.48164
   D18        1.49189   0.00038   0.00000   0.04006   0.04008   1.53198
   D19       -0.47263   0.00017   0.00000   0.03841   0.03838  -0.43425
   D20        1.59415  -0.00031   0.00000   0.03034   0.03030   1.62445
   D21       -2.68865   0.00059   0.00000   0.04355   0.04352  -2.64513
   D22        1.67355   0.00074   0.00000   0.05243   0.05246   1.72601
   D23       -2.54286   0.00027   0.00000   0.04437   0.04438  -2.49848
   D24       -0.54247   0.00117   0.00000   0.05758   0.05760  -0.48486
   D25        3.00846  -0.00026   0.00000  -0.02250  -0.02250   2.98597
   D26        0.97684   0.00028   0.00000  -0.01860  -0.01861   0.95823
   D27       -1.16662  -0.00121   0.00000  -0.03883  -0.03883  -1.20545
   D28        0.01468   0.00013   0.00000   0.00784   0.00782   0.02250
   D29       -3.12534  -0.00011   0.00000  -0.00626  -0.00624  -3.13159
   D30       -3.12638   0.00013   0.00000   0.00795   0.00793  -3.11845
   D31        0.01679  -0.00011   0.00000  -0.00615  -0.00613   0.01065
   D32       -3.14140  -0.00000   0.00000  -0.00014  -0.00013  -3.14154
   D33        0.00092  -0.00001   0.00000  -0.00052  -0.00052   0.00041
   D34       -0.00036  -0.00001   0.00000  -0.00025  -0.00025  -0.00061
   D35       -3.14122  -0.00001   0.00000  -0.00063  -0.00063   3.14133
   D36        0.08273  -0.00054   0.00000  -0.02126  -0.02129   0.06144
   D37       -3.06045  -0.00029   0.00000  -0.00708  -0.00705  -3.06750
   D38       -3.05991  -0.00033   0.00000  -0.00846  -0.00844  -3.06835
   D39        0.08312  -0.00056   0.00000  -0.02181  -0.02184   0.06128
   D40       -1.16900  -0.00127   0.00000  -0.04121  -0.04121  -1.21021
   D41        0.97486   0.00028   0.00000  -0.02011  -0.02011   0.95475
   D42        3.00651  -0.00028   0.00000  -0.02425  -0.02425   2.98226
   D43       -3.12503  -0.00010   0.00000  -0.00584  -0.00583  -3.13086
   D44        0.01514   0.00012   0.00000   0.00743   0.00741   0.02255
   D45        0.01725  -0.00011   0.00000  -0.00610  -0.00609   0.01117
   D46       -3.12577   0.00012   0.00000   0.00717   0.00716  -3.11861
   D47        0.00089  -0.00001   0.00000  -0.00039  -0.00039   0.00051
   D48       -3.14140  -0.00001   0.00000  -0.00024  -0.00024   3.14155
   D49       -3.14140  -0.00000   0.00000  -0.00012  -0.00013  -3.14153
   D50       -0.00051  -0.00000   0.00000   0.00002   0.00002  -0.00049
   D51       -0.00146   0.00001   0.00000   0.00040   0.00040  -0.00107
   D52        3.14084   0.00001   0.00000   0.00025   0.00025   3.14109
   D53        3.14088  -0.00000   0.00000   0.00001   0.00001   3.14088
   D54       -0.00001  -0.00000   0.00000  -0.00014  -0.00014  -0.00015
   D55       -0.54184   0.00119   0.00000   0.06033   0.06036  -0.48148
   D56       -2.68825   0.00058   0.00000   0.04541   0.04538  -2.64288
   D57        1.49218   0.00038   0.00000   0.04216   0.04218   1.53435
   D58       -2.54227   0.00030   0.00000   0.04721   0.04722  -2.49505
   D59        1.59450  -0.00032   0.00000   0.03228   0.03224   1.62673
   D60       -0.50826  -0.00052   0.00000   0.02903   0.02904  -0.47922
   D61        1.67404   0.00080   0.00000   0.05586   0.05589   1.72993
   D62       -0.47238   0.00018   0.00000   0.04093   0.04090  -0.43148
   D63       -2.57513  -0.00002   0.00000   0.03768   0.03770  -2.53743
   D64        1.26070   0.00086   0.00000   0.01305   0.01300   1.27370
   D65       -2.98024  -0.00020   0.00000   0.00838   0.00843  -2.97182
   D66       -0.90528  -0.00009   0.00000   0.00659   0.00660  -0.89868
         Item               Value     Threshold  Converged?
 Maximum Force            0.006876     0.000450     NO 
 RMS     Force            0.002327     0.000300     NO 
 Maximum Displacement     0.227034     0.001800     NO 
 RMS     Displacement     0.053290     0.001200     NO 
 Predicted change in Energy=-1.388534D-03
 GradGradGradGradGradGradGradGradGradGradGradGradGradGradGradGradGradGrad

                          Input orientation:                          
 ---------------------------------------------------------------------
 Center     Atomic      Atomic             Coordinates (Angstroms)
 Number     Number       Type             X           Y           Z
 ---------------------------------------------------------------------
      1          8           0        4.979696    2.667221    0.502617
      2          1           0        4.170394    2.165983    0.670001
      3          6           0       -0.928218    2.217585    4.092481
      4          1           0       -1.485663    1.315069    4.301041
      5          6           0        0.117597    2.225372    3.189825
      6          1           0        0.412441    1.329240    2.661766
      7          8           0        2.238463    2.363142    1.360609
      8          6           0        3.570831    4.661669    0.826535
      9          1           0        3.759197    5.732557    0.810225
     10          1           0        3.186542    4.345636   -0.145705
     11          6           0        4.856141    3.901653    1.145797
     12          1           0        5.695047    4.509473    0.801620
     13          1           0        4.946062    3.819262    2.238382
     14          6           0        0.811308    3.406088    2.947141
     15          6           0        1.930404    3.363013    1.963041
     16          8           0       -2.671927    4.503633    6.282351
     17          6           0       -1.278601    3.390254    4.753150
     18          6           0       -2.413057    3.330127    5.718624
     19          8           0        2.531999    4.536858    1.814817
     20          6           0        0.461377    4.579315    3.606665
     21          1           0        1.009819    5.488228    3.407278
     22          6           0       -0.585136    4.571179    4.511828
     23          1           0       -0.869302    5.473706    5.032807
     24          8           0       -3.016003    2.313120    5.963017
     25          6           0       -5.112381    4.361681    6.809431
     26          1           0       -5.164727    4.679805    5.758388
     27          1           0       -5.762282    5.029786    7.377713
     28          6           0       -3.683330    4.573641    7.303876
     29          1           0       -3.453822    3.853396    8.092119
     30          1           0       -3.563757    5.583012    7.690394
     31          8           0       -5.613447    3.072047    7.005488
     32          1           0       -4.970665    2.448253    6.642676
 ---------------------------------------------------------------------
                    Distance matrix (angstroms):
                    1          2          3          4          5
     1  O    0.000000
     2  H    0.966554   0.000000
     3  C    6.927679   6.140999   0.000000
     4  H    7.619528   6.774916   1.081100   0.000000
     5  C    5.572820   4.772652   1.381512   2.152648   0.000000
     6  H    5.226082   4.334683   2.152549   2.508032   1.081125
     7  O    2.888420   2.061108   4.184755   4.859394   2.804120
     8  C    2.463258   2.571464   6.073005   6.988566   4.842057
     9  H    3.313687   3.592937   6.715660   7.694709   5.587853
    10  H    2.540236   2.526703   6.278700   7.126527   5.003969
    11  C    1.397415   1.925924   6.706552   7.540852   5.426027
    12  H    1.998755   2.798900   7.742749   8.603067   6.482947
    13  H    2.083557   2.407242   6.364764   7.203654   5.172989
    14  C    4.888463   4.243428   2.397978   3.388434   1.390764
    15  C    3.451832   2.849981   3.744093   4.618423   2.466880
    16  O    9.763455   9.153165   3.614148   3.936972   4.747171
    17  C    7.599742   6.918272   1.390829   2.133933   2.397979
    18  C    9.071877   8.377687   2.467152   2.632500   3.744264
    19  O    3.347929   3.100966   4.747618   5.718640   3.614271
    20  C    5.805722   5.310835   2.782941   3.863732   2.415158
    21  H    5.670543   5.340341   3.862978   4.943834   3.389628
    22  C    7.118018   6.569602   2.415153   3.384912   2.782865
    23  H    7.912632   7.441347   3.389691   4.267275   3.862929
    24  O    9.688784   8.926476   2.804795   2.469860   4.185420
    25  C   12.020695  11.343880   5.430119   5.359752   6.709548
    26  H   11.600988  10.924992   5.175498   5.194306   6.365901
    27  H   12.970688  12.322858   6.486093   6.446278   7.744425
    28  C   11.177637  10.558698   4.843006   4.946215   6.073452
    29  H   11.407531  10.773294   5.005163   4.968805   6.279966
    30  H   11.539348  10.989954   5.587230   5.832797   6.714256
[...]
 ! A42   A(26,25,31)           112.1369         calculate D2E/DX2 analytically  !
 ! A43   A(27,25,28)           108.2224         calculate D2E/DX2 analytically  !
 ! A44   A(27,25,31)           106.124          calculate D2E/DX2 analytically  !
 ! A45   A(28,25,31)           114.1642         calculate D2E/DX2 analytically  !
 ! A46   A(16,28,25)           114.1601         calculate D2E/DX2 analytically  !
 ! A47   A(16,28,29)           109.0904         calculate D2E/DX2 analytically  !
 ! A48   A(16,28,30)           103.1434         calculate D2E/DX2 analytically  !
 ! A49   A(25,28,29)           109.7119         calculate D2E/DX2 analytically  !
 ! A50   A(25,28,30)           110.8909         calculate D2E/DX2 analytically  !
 ! A51   A(29,28,30)           109.6253         calculate D2E/DX2 analytically  !
 ! A52   A(25,31,32)           107.3576         calculate D2E/DX2 analytically  !
 ! D1    D(2,1,11,8)           -51.5486         calculate D2E/DX2 analytically  !
 ! D2    D(2,1,11,12)         -170.6608         calculate D2E/DX2 analytically  !
 ! D3    D(2,1,11,13)           72.3074         calculate D2E/DX2 analytically  !
 ! D4    D(4,3,5,6)              0.0522         calculate D2E/DX2 analytically  !
 ! D5    D(4,3,5,14)          -179.9925         calculate D2E/DX2 analytically  !
 ! D6    D(17,3,5,6)           179.9964         calculate D2E/DX2 analytically  !
 ! D7    D(17,3,5,14)           -0.0483         calculate D2E/DX2 analytically  !
 ! D8    D(4,3,17,18)            0.0198         calculate D2E/DX2 analytically  !
 ! D9    D(4,3,17,22)          179.9782         calculate D2E/DX2 analytically  !
 ! D10   D(5,3,17,18)         -179.9257         calculate D2E/DX2 analytically  !
 ! D11   D(5,3,17,22)            0.0327         calculate D2E/DX2 analytically  !
 ! D12   D(3,5,14,15)         -179.9607         calculate D2E/DX2 analytically  !
 ! D13   D(3,5,14,20)            0.0216         calculate D2E/DX2 analytically  !
 ! D14   D(6,5,14,15)           -0.0044         calculate D2E/DX2 analytically  !
 ! D15   D(6,5,14,20)          179.9779         calculate D2E/DX2 analytically  !
 ! D16   D(9,8,11,1)          -145.5902         calculate D2E/DX2 analytically  !
 ! D17   D(9,8,11,12)          -27.6608         calculate D2E/DX2 analytically  !
 ! D18   D(9,8,11,13)           88.5949         calculate D2E/DX2 analytically  !
 ! D19   D(10,8,11,1)          -24.3438         calculate D2E/DX2 analytically  !
 ! D20   D(10,8,11,12)          93.5855         calculate D2E/DX2 analytically  !
 ! D21   D(10,8,11,13)        -150.1587         calculate D2E/DX2 analytically  !
 ! D22   D(19,8,11,1)           98.4361         calculate D2E/DX2 analytically  !
 ! D23   D(19,8,11,12)        -143.6346         calculate D2E/DX2 analytically  !
 ! D24   D(19,8,11,13)         -27.3788         calculate D2E/DX2 analytically  !
 ! D25   D(9,8,19,15)          171.4107         calculate D2E/DX2 analytically  !
 ! D26   D(10,8,19,15)          54.927          calculate D2E/DX2 analytically  !
 ! D27   D(11,8,19,15)         -68.1914         calculate D2E/DX2 analytically  !
 ! D28   D(5,14,15,7)            0.9625         calculate D2E/DX2 analytically  !
 ! D29   D(5,14,15,19)        -179.0368         calculate D2E/DX2 analytically  !
 ! D30   D(20,14,15,7)        -179.0195         calculate D2E/DX2 analytically  !
 ! D31   D(20,14,15,19)          0.9812         calculate D2E/DX2 analytically  !
 ! D32   D(5,14,20,21)         179.9989         calculate D2E/DX2 analytically  !
 ! D33   D(5,14,20,22)           0.0214         calculate D2E/DX2 analytically  !
 ! D34   D(15,14,20,21)         -0.0196         calculate D2E/DX2 analytically  !
 ! D35   D(15,14,20,22)       -179.997          calculate D2E/DX2 analytically  !
 ! D36   D(7,15,19,8)            3.6897         calculate D2E/DX2 analytically  !
 ! D37   D(14,15,19,8)        -176.311          calculate D2E/DX2 analytically  !
 ! D38   D(28,16,18,17)       -176.2777         calculate D2E/DX2 analytically  !
 ! D39   D(28,16,18,24)          3.7162         calculate D2E/DX2 analytically  !
 ! D40   D(18,16,28,25)        -68.0909         calculate D2E/DX2 analytically  !
 ! D41   D(18,16,28,29)         55.032          calculate D2E/DX2 analytically  !
 ! D42   D(18,16,28,30)        171.5058         calculate D2E/DX2 analytically  !
 ! D43   D(3,17,18,16)        -179.07           calculate D2E/DX2 analytically  !
 ! D44   D(3,17,18,24)           0.9361         calculate D2E/DX2 analytically  !
 ! D45   D(22,17,18,16)          0.9722         calculate D2E/DX2 analytically  !
 ! D46   D(22,17,18,24)       -179.0217         calculate D2E/DX2 analytically  !
 ! D47   D(3,17,22,20)           0.0103         calculate D2E/DX2 analytically  !
 ! D48   D(3,17,22,23)         179.994          calculate D2E/DX2 analytically  !
 ! D49   D(18,17,22,20)        179.9671         calculate D2E/DX2 analytically  !
 ! D50   D(18,17,22,23)         -0.0493         calculate D2E/DX2 analytically  !
 ! D51   D(14,20,22,17)         -0.0371         calculate D2E/DX2 analytically  !
 ! D52   D(14,20,22,23)        179.9793         calculate D2E/DX2 analytically  !
 ! D53   D(21,20,22,17)        179.9856         calculate D2E/DX2 analytically  !
 ! D54   D(21,20,22,23)          0.0021         calculate D2E/DX2 analytically  !
 ! D55   D(26,25,28,16)        -27.1615         calculate D2E/DX2 analytically  !
 ! D56   D(26,25,28,29)       -149.9467         calculate D2E/DX2 analytically  !
 ! D57   D(26,25,28,30)         88.8129         calculate D2E/DX2 analytically  !
 ! D58   D(27,25,28,16)       -143.4294         calculate D2E/DX2 analytically  !
 ! D59   D(27,25,28,29)         93.7854         calculate D2E/DX2 analytically  !
 ! D60   D(27,25,28,30)        -27.455          calculate D2E/DX2 analytically  !
 ! D61   D(31,25,28,16)         98.6551         calculate D2E/DX2 analytically  !
 ! D62   D(31,25,28,29)        -24.1301         calculate D2E/DX2 analytically  !
 ! D63   D(31,25,28,30)       -145.3705         calculate D2E/DX2 analytically  !
 ! D64   D(26,25,31,32)         72.0986         calculate D2E/DX2 analytically  !
 ! D65   D(27,25,31,32)       -170.873          calculate D2E/DX2 analytically  !
 ! D66   D(28,25,31,32)        -51.7636         calculate D2E/DX2 analytically  !
 --------------------------------------------------------------------------------
 Trust Radius=3.00D-01 FncErr=1.00D-07 GrdErr=1.00D-07 EigMax=2.50D+02 EigMin=1.00D-04
 Number of steps in this run=      2 maximum allowed number of steps=      2.
 GradGradGradGradGradGradGradGradGradGradGradGradGradGradGradGradGradGrad

                          Input orientation:                          
 ---------------------------------------------------------------------
 Center     Atomic      Atomic             Coordinates (Angstroms)
 Number     Number       Type             X           Y           Z
 ---------------------------------------------------------------------
      1          8           0        4.905746    2.612385    0.523410
      2          1           0        4.073522    2.152949    0.695863
      3          6           0       -0.925710    2.249292    4.097315
      4          1           0       -1.481760    1.345498    4.305945
      5          6           0        0.117587    2.257469    3.190233
      6          1           0        0.408846    1.360395    2.661059
      7          8           0        2.241479    2.397407    1.356018
      8          6           0        3.580453    4.661765    0.822936
      9          1           0        3.797318    5.726947    0.792869
     10          1           0        3.185890    4.340535   -0.142537
     11          6           0        4.834493    3.860672    1.158632
     12          1           0        5.702114    4.425600    0.815062
     13          1           0        4.909556    3.774103    2.250442
     14          6           0        0.812099    3.438358    2.945767
     15          6           0        1.928774    3.395927    1.958006
     16          8           0       -2.668770    4.535543    6.293766
     17          6           0       -1.274143    3.421895    4.760977
     18          6           0       -2.405419    3.361574    5.731089
     19          8           0        2.537888    4.567301    1.813172
     20          6           0        0.464254    4.611325    3.608255
     21          1           0        1.011536    5.521532    3.409411
     22          6           0       -0.580285    4.602923    4.517580
     23          1           0       -0.860809    5.506580    5.039371
     24          8           0       -3.014170    2.348130    5.975119
     25          6           0       -5.100177    4.318971    6.787620
     26          1           0       -5.142903    4.626008    5.734503
     27          1           0       -5.790949    4.955616    7.342081
     28          6           0       -3.690080    4.577284    7.309266
     29          1           0       -3.447754    3.853376    8.089169
     30          1           0       -3.602373    5.585622    7.706873
     31          8           0       -5.548849    3.003287    6.973110
     32          1           0       -4.872406    2.414730    6.613619
 ---------------------------------------------------------------------
                    Distance matrix (angstroms):
                    1          2          3          4          5
     1  O    0.000000
     2  H    0.966136   0.000000
     3  C    6.849125   6.047435   0.000000
     4  H    7.530790   6.674266   1.081463   0.000000
     5  C    5.492210   4.677844   1.382510   2.152769   0.000000
     6  H    5.134115   4.233201   2.152674   2.506045   1.081480
     7  O    2.799602   1.962638   4.191387   4.865294   2.809776
     8  C    2.458877   2.559964   6.070180   6.982477   4.834891
     9  H    3.316884   3.585967   6.732046   7.707624   5.596879
    10  H    2.527429   2.505262   6.265373   7.109585   4.986081
    11  C    1.402428   1.926019   6.664258   7.491778   5.380229
    12  H    2.001753   2.798475   7.709575   8.560452   6.444313
    13  H    2.081404   2.396624   6.307639   7.139477   5.113350
    14  C    4.827835   4.165480   2.399983   3.389976   1.391621
    15  C    3.396228   2.781716   3.746931   4.620478   2.468779
    16  O    9.714363   9.081397   3.617956   3.941677   4.752402
    17  C    7.536797   6.836146   1.391708   2.135786   2.400008
    18  C    9.007460   8.294031   2.468994   2.636047   3.747074
    19  O    3.330456   3.071749   4.752577   5.722893   3.617938
    20  C    5.765317   5.249043   2.783950   3.865147   2.415690
    21  H    5.653053   5.299665   3.864413   4.945660   3.391355
    22  C    7.071928   6.501216   2.415682   3.386482   2.783887
    23  H    7.875495   7.379737   3.391402   4.270609   3.864362
    24  O    9.618525   8.839910   2.810264   2.477840   4.191863
    25  C   11.927751  11.223097   5.380287   5.300301   6.664536
    26  H   11.497196  10.791033   5.110174   5.119227   6.305239
    27  H   12.899779  12.220267   6.443854   6.389067   7.708997
    28  C   11.126405  10.482748   4.835072   4.933665   6.070116
    29  H   11.338507  10.682791   4.986852   4.946450   6.265633
    30  H   11.525206  10.947916   5.596833   5.834549   6.731622
    31  O   12.290239  11.520283   5.496555   5.138409   6.853824
    32  H   11.521370  10.729305   4.683542   4.238526   6.053457
                    6          7          8          9         10
     6  H    0.000000
     7  O    2.477311   0.000000
     8  C    4.933238   2.684091   0.000000
     9  H    5.834266   3.718012   1.087451   0.000000
    10  H    4.945034   2.629321   1.091332   1.780721   0.000000
    11  C    5.300474   2.983928   1.525469   2.166218   2.154345
    12  H    6.389200   4.047493   2.134779   2.306999   2.693625
    13  H    5.123572   3.132717   2.142949   2.678655   3.003035
    14  C    2.135791   2.377815   3.696880   4.334068   3.998304
    15  C    2.635879   1.207152   2.370395   3.206658   2.623911
    16  O    5.722748   7.284471   8.306546   8.572608   8.702935
    17  C    3.389969   5.000291   6.372798   6.839508   6.691804
    18  C    4.620594   6.454806   7.849276   8.273751   8.168267
    19  O    3.941571   2.237250   1.440983   1.992978   2.072710
    20  C    3.386561   3.623883   4.179862   4.503369   4.642098
    21  H    4.270636   3.935649   3.745450   3.827411   4.328846
    22  C    3.865105   4.777250   5.564674   5.856647   5.997467
    23  H    4.945629   5.732210   6.181978   6.307098   6.677395
    24  O    4.865763   6.997168   8.682566   9.201548   8.935107
    25  C    7.492063   9.332449  10.537946  10.820576  10.802150
    26  H    7.136680   8.869435  10.011080  10.274209  10.197543
    27  H    8.560084  10.339114  11.419667  11.637096  11.703908
    28  C    6.982506   8.681959   9.743730   9.992311  10.142208
    29  H    7.110042   8.934345  10.141367  10.451667  10.583173
    30  H    7.707312   9.200471   9.991751  10.128122  10.451985
    31  O    7.535715   9.623305  11.131906  11.531025  11.345322
    32  H    6.680267   8.845904  10.489614  10.955183  10.690674
                   11         12         13         14         15
    11  C    0.000000
    12  H    1.090848   0.000000
    13  H    1.097805   1.764344   0.000000
    14  C    4.421748   5.424647   4.169575   0.000000
    15  C    3.049293   4.074879   3.018873   1.491454   0.000000
    16  O    9.117237  10.004998   8.623183   4.952713   6.421445
    17  C    7.105269   8.077489   6.683185   2.765441   4.256289
    18  C    8.577458   9.541046   8.111347   4.256329   5.746526
    19  O    2.490410   3.320938   2.538735   2.352793   1.328200
    20  C    5.065879   5.938990   4.722850   1.391308   2.518995
    21  H    4.737031   5.471127   4.426204   2.143445   2.732416
    22  C    6.415083   7.294424   5.997100   2.401154   3.782015
    23  H    7.085592   7.879420   6.639030   3.385165   4.661699
    24  O    9.332087  10.340003   8.870854   5.000590   6.455058
    25  C   11.427739  12.343918  11.003528   7.105654   8.578073
    26  H   11.003307  11.910309  10.673160   6.682036   8.110712
    27  H   12.342365  13.227751  11.908886   8.076502   9.540179
    28  C   10.536232  11.419763  10.009522   6.372353   7.848765
    29  H   10.799445  11.702998  10.195178   6.691276   8.167464
    30  H   10.818300  11.636846  10.271668   6.838599   8.272715
    31  O   11.931347  12.904599  11.501129   7.541248   9.012229
    32  H   11.228158  12.226501  10.796851   6.842116   8.300213
                   16         17         18         19         20
    16  O    0.000000
    17  C    2.352582   0.000000
    18  C    1.328218   1.491490   0.000000
    19  O    6.869208   4.953089   6.421849   0.000000
    20  C    4.127172   2.401153   3.781973   2.743032   0.000000
    21  H    4.778737   3.385193   4.661672   2.405886   1.080525
    22  C    2.742471   1.391225   2.518862   4.127723   1.384920
    23  H    2.405232   2.143423   2.732278   4.779304   2.146012
    24  O    2.237323   2.377983   1.207144   7.285044   4.777397
    25  C    2.490489   4.421602   3.048702   9.118489   6.415350
    26  H    2.538167   4.167127   3.015397   8.624085   5.996778
    27  H    3.320155   5.423646   4.074074  10.004457   7.292980
    28  C    1.440852   3.696681   2.370431   8.306307   5.563913
    29  H    2.072592   3.998453   2.624666   8.702054   5.996405
    30  H    1.992774   4.333667   3.206682   8.571785   5.855371
    31  O    3.332292   4.831343   3.398843   9.719383   7.075693
    32  H    3.075088   4.170631   2.785929   9.087922   6.506703
                   21         22         23         24         25
    21  H    0.000000
    22  C    2.146107   0.000000
    23  H    2.482472   1.080535   0.000000
    24  O    5.732333   3.623852   3.935530   0.000000
    25  C    7.086006   5.065879   4.736985   2.982582   0.000000
    26  H    6.639663   4.722173   4.426618   3.126999   1.097794
    27  H    7.877814   5.937442   5.469215   4.046983   1.090830
    28  C    6.181073   4.179114   3.744434   2.684386   1.525521
    29  H    6.675938   4.641169   4.327428   2.631154   2.154369
    30  H    6.305588   4.502255   3.825962   3.718374   2.166298
    31  O    7.879096   5.768456   5.655399   2.801752   1.402404
    32  H    7.385116   5.253939   5.303839   1.966001   1.925692
                   26         27         28         29         30
    26  H    0.000000
    27  H    1.764344   0.000000
    28  C    2.143116   2.134915   0.000000
    29  H    3.002488   2.695113   1.091335   0.000000
    30  H    2.680361   2.306480   1.087442   1.780655   0.000000
    31  O    2.081384   2.001584   2.458757   2.526428   3.315966
    32  H    2.394945   2.798299   2.560949   2.505311   3.586467
                   31         32
    31  O    0.000000
    32  H    0.966027   0.000000
 Symmetry turned off by external request.
 Stoichiometry    C12H14O6
 Framework group  C1[X(C12H14O6)]
 Deg. of freedom    90
 Full point group                 C1      NOp   1
 Rotational constants (GHZ):           1.7695268           0.1290837           0.1228160
 Standard basis: def2TZVP (5D, 7F)
   642 basis functions,  1030 primitive gaussians,   732 cartesian basis functions
    67 alpha electrons       67 beta electrons
       nuclear repulsion energy      1273.6269880467 Hartrees.
 NAtoms=   32 NActive=   32 NUniq=   32 SFac= 1.00D+00 NAtFMM=   60 NAOKFM=F Big=F
 Integral buffers will be    131072 words long.
 Raffenetti 2 integral format.
 Two-electron integral symmetry is turned off.
 One-electron integrals computed using PRISM.
   1 Symmetry operations used in ECPInt.
 ECPInt:  NShTT=   32385 NPrTT=   99228 LenC2=   26119 LenP2D=   57441.
 LDataN:  DoStor=T MaxTD1= 6 Len=  172
 NBasis=   642 RedAO= T EigKep=  7.10D-06  NBF=   642
 NBsUse=   642 1.00D-06 EigRej= -1.00D+00 NBFU=   642
 Initial guess from the checkpoint file:  "/dev/shm/pet_mono_843_tzvp.chk"
 B after Tr=     0.000000    0.000000    0.000000
         Rot=    1.000000    0.000000    0.000000    0.000000 Ang=   0.00 deg.
 Requested convergence on RMS density matrix=1.00D-08 within  32 cycles.
 Requested convergence on MAX density matrix=1.00D-06.
 Requested convergence on             energy=1.00D-06.
 No special actions if energy rises.
 SCF Done:  E(RM062X) =  -917.071861101     A.U. after    1 cycles
            NFock=  1  Conv=0.46D-08     -V/T= 2.0044
 QCSCF skips out because SCF is already converged.
 DoSCS=F DFT=T ScalE2(SS,OS)=  1.000000  1.000000
 Range of M.O.s used for correlation:     1   642
 NBasis=   642 NAE=    67 NBE=    67 NFC=     0 NFV=     0
 NROrb=    642 NOA=    67 NOB=    67 NVA=   575 NVB=   575

 **** Warning!!: The largest alpha MO coefficient is  0.62316153D+02

   1 Symmetry operations used in ECPInt.
 ECPInt:  NShTT=   32385 NPrTT=   99228 LenC2=   26119 LenP2D=   57441.
 LDataN:  DoStor=T MaxTD1= 7 Len=  274
 Number of processors reduced to  18 by ecpmxn.
 Symmetrizing basis deriv contribution to polar:
 IMax=3 JMax=2 DiffMx= 0.00D+00
 G2DrvN: will do    33 centers at a time, making    1 passes.
 Calling FoFCou, ICntrl=  3107 FMM=F I1Cent=   0 AccDes= 0.00D+00.
 End of G2Drv F.D. properties file   721 does not exist.
 End of G2Drv F.D. properties file   722 does not exist.
 End of G2Drv F.D. properties file   788 does not exist.
          IDoAtm=11111111111111111111111111111111
          Differentiating once with respect to electric field.
                with respect to dipole field.
          Differentiating once with respect to nuclear coordinates.
 CalDSu exits because no D1Ps are significant.
          There are    99 degrees of freedom in the 1st order CPHF.  IDoFFX=6 NUNeed=     3.
     96 vectors produced by pass  0 Test12= 3.89D-14 1.01D-09 XBig12= 9.66D+01 5.20D+00.
 AX will form    96 AO Fock derivatives at one time.
     96 vectors produced by pass  1 Test12= 3.89D-14 1.01D-09 XBig12= 1.63D+01 7.98D-01.
